 --invoking executable--
/nfs/workspaces/public/cfour_mpi/bin/xjoda


   *************************************************************************
         <<<     CCCCCC     CCCCCC   |||     CCCCCC     CCCCCC   >>>
       <<<      CCC        CCC       |||    CCC        CCC         >>>
      <<<      CCC        CCC        |||   CCC        CCC            >>>
    <<<        CCC        CCC        |||   CCC        CCC              >>>
      <<<      CCC        CCC        |||   CCC        CCC            >>>
       <<<      CCC        CCC       |||    CCC        CCC         >>>
         <<<     CCCCCC     CCCCCC   |||     CCCCCC     CCCCCC   >>>
   *************************************************************************

     ****************************************************************
     * CFOUR Coupled-Cluster techniques for Computational Chemistry *
     ****************************************************************
 

   Department of Chemistry                Institut fuer Physikalische Chemie
   University of Florida                  Universitaet Mainz
   Gainesville, FL 32611, USA             D-55099 Mainz, Germany

   Department of Chemistry                Fakultaet fuer Chemie und Biowiss.
   Johns Hopkins University               Karlsruher Institut fuer Technologie
   Baltimore, MD 21218, USA               D-76131 Karlsruhe, Germany

   Department of Chemistry                Department of Physical Chemistry
   Southern Methodist University          Eotvos Lorand University
   Dallas, TX 75275, USA                  H-1053 Budapest, Hungary

 
                       Version 2.1
 
                     vincent.theory.phys.ucl.ac.uk                     
                     Tue 25 Feb 17:08:53 GMT 2025                      
                     integer*8 version is running
 
********************************************************************************
*                          Input from ZMAT file                                *
********************************************************************************
Carbon Monoxide DBOC calculation                                                
C                                                                               
O 1 r                                                                           
                                                                                
r=1.5206896551724138                                                            
                                                                                
                                                                                
*CFOUR(CALC=CCSD,BASIS=AUG-PCVQZ,SCF_CONV=10                                    
CC_CONV=14,DBOC=ON,MEMORY=500000000                                             
ZFIELD=200)                                                                     
                                                                                
%isotopes                                                                       
12                                                                              
16                                                                              
********************************************************************************
  @GTFLGS-I, Hessian will be transformed to curvilinear coordinates.
    -------------------------------------------------------------------
                    CFOUR Control Parameters 
    -------------------------------------------------------------------
        External           Internal           Value            Units
          Name               Name
    -------------------------------------------------------------------
       ABCDTYPE             IABCDT         STANDARD    [  0]    ***   
       ANHARMONIC           IANHAR         OFF         [  0]    ***   
       ANH_ALGORIT          IANALG         STANDARD    [  0]    ***   
       ANH_DERIVAT          IANDER         SECOND      [  1]    ***   
       ANH_MODE             ANHMOD         VIBRATION   [  0]    ***   
       ANH_STEPSIZ          ICUBST             50000          x 10-6  
       ANH_SYMMETR          IANHSM         ABELIAN     [  0]    ***   
       AO_LADDERS           IAOLAD         SINGLEPASS  [  1]    ***   
       AV_SCF               IAVSCF         OFF         [  0]    ***   
       BASIS                IBASIS         AUG-PCVQZ   [ 52]    ***   
       BOTHVECTORS          BOTHVC         OFF         [  0]    ***   
       BOX_POTENT           IPIAB          OFF         [  0]    ***   
       BREIT                IBREIT         OFF         [  0]    ***   
       BRUCK_CONV           IBRTOL          10D-  4             ***   
       BRUECKNER            IBRKNR         OFF         [  0]    ***   
       BUFFERSIZE           IBUFFS              4096            ***   
       CACHE_RECS           ICHREC             10               ***   
       CALCLEVEL            ICLLVL         CCSD        [ 10]    ***   
       CCORBOPT             ICCORB         OFF         [  0]  x 0.01  
       CC_CONV              ICCCNV          10D- 14             ***   
       CC_EXPORDER          ICCEOR              5               ***   
       CC_EXTRAPOL          ICCEXT         DIIS        [  1]    ***   
       CC_GUESS             ICCGES         MP2         [  0]    ***   
       CC_MAXCYC            ICCCYC            100              cycles 
       CC_PROGRAM           ICCPRO         VCC         [  0]    ***   
       CHARGE               ICHRGE              0               ***   
       CHOLESKY             ICHOLE         OFF         [  0]    ***   
       CIS_CONV             ICISTL              5               ***   
       COMM_SIZE            IPSIZE            ***               ***   
       CONSTANT             ICONST         OLD         [  1]    ***   
       CONTINUUM            ICONTU         NONE        [  0]    ***   
       CONTRACTION          ICNTYP         GENERAL     [  1]    ***   
       COORDINATES          ICOORD         INTERNAL    [  0]    ***   
       CPHF_CONVER          ICPHFT          10D- 16             ***   
       CPHF_MAXCYC          ICPHFC             64              cycles 
       CUBIC                ICUBIC         OFF         [  0]    ***   
       CURVILINEAR          ICURVY         ON          [  1]    ***   
       DBOC                 IDBOC          ON          [  1]    ***   
       DCT                  IDCT           OFF         [  0]    ***   
       DERIV_LEV            IDRLVL         SECOND      [  2]    ***   
       DEVMEM_SIZE          IDVMEM          50000000           MByte  
       DIAG_MRCC            IEOMST          10D-  0             ***   
       DIFF_TYPE            IDIFTY         RELAXED     [  0]    ***   
       DIRECT               IDIRCT         OFF         [  0]    ***   
       DROPMO               IDRPMO      NONE         
       ECP                  IECP           OFF         [  0]    ***   
       EIGENVECTOR          IVEC                1               ***   
       EL_ANHARM            IELANH         OFF         [  0]    ***   
       EOMFOLLOW            IEOMSR         ENERGY      [  0]    ***   
       EOMIP                IEOMIP         OFF         [  0]    ***   
       EOMLEVEL             HBARFM         SAME        [  0]    ***   
       EOM_MRCC             IMRCCE         NEW         [  1]    ***   
       EOM_NONIT            EOMNON         OFF         [  0]    ***   
       EOM_NSING            IEOMSI          10D-  0             ***   
       EOM_NSTATES          IMRCCD         DAVIDSON    [  0]    ***   
       EOM_NTRIP            IEOMTR          10D-  0             ***   
       EOM_ORDER            IEXORD         ENERGY      [  0]    ***   
       EOM_PROPSTA          IEOMST              0               ***   
       ESTATE_CONV          IEXTOL          10D-  5             ***   
       ESTATE_DIAG          IEXDIG         ITERATIVE   [  0]    ***   
       ESTATE_LOCK          IESLOC         ON          [  1]    ***   
       ESTATE_MAXC          IEXMXC             40               ***   
       ESTATE_PROP          IEXPRP         OFF         [  0]    ***   
       EVAL_HESS            IRECAL              0            # of cyc.
       EXCITATION           IEXCIT              0               ***   
       EXCITE               IEXCIT         NONE        [  0]    ***   
       EXTERN_POT           IEXPOT         OFF         [  0]    ***   
       FCGRADNEW            IFCGNW         OFF         [  0]    ***   
       FC_FIELD             IFINFC              0             x 10-6  
       FD_CALTYPE           IFDCAL         GRADONLY    [  0]    ***   
       FD_PROJECT           IFDPRJ         OFF         [  1]    ***   
       FD_STEPSIZE          IDISFD              0            10-4 bohr
       FD_USEGROUP          IFDGRP         FULL        [  0]    ***   
       FILE_RECSIZ          IFLREC              4096           words  
       FINITE_PERT          IFIPER              0             x 10-6  
       FIXGEOM              IFIXGM         OFF         [  0]    ***   
       FOCK                 IFOCK          AO          [  1]    ***   
       FREQ_ALGORI          IVIALG         STANDARD    [  0]    ***   
       FROZEN_CORE          IFROCO         OFF         [  0]    ***   
       GAMMA_ABCD           IGABCD         STORE       [  0]    ***   
       GAMMA_ABCI           IGABCI         STORE       [  0]    ***   
       GENBAS_1             IGNBS1              0               ***   
       GENBAS_2             IGNBS2              0               ***   
       GENBAS_3             IGNBS3              0               ***   
       GENBAS_4             IGNBS4              0               ***   
       GEO_CONV             ICONTL              5              H/bohr 
       GEO_MAXCYC           IOPTCY             50               ***   
       GEO_MAXSTEP          IMXSTP            300            millibohr
       GEO_METHOD           INR            SINGLE_POINT[  5]    ***   
       GIAO                 IGIAO          OFF         [  1]    ***   
       GIMIC                IGIMIC         OFF         [  0]    ***   
       GRID                 IGRID          OFF         [  0]    ***   
       GRID_ALGO            IGALGO         SERIAL      [  0]    ***   
       GUESS                IGUESS         MOREAD      [  0]    ***   
       HBAR                 IHBAR          OFF         [  0]    ***   
       HESS_TYPE            IHESTP         SCF         [  0]    ***   
       HF2_FILE             IHF2Fl         USE         [  1]    ***   
       HFSTABILITY          ISTABL         OFF         [  0]    ***   
       INCORE               INCORE         OFF         [  0]    ***   
       INPUT_MRCC           IMRCC          ON          [  1]    ***   
       INTEGRALS            INTTYP         VMOL        [  1]    ***   
       JODA_PRINT           IJPRNT              0               ***   
       KEYWORD_OUT          IDMPKW         NO          [  0]    ***   
       LINDEP_TOL           ILINDP              8               ***   
       LINEQ_CONV           IZTACN          10D-  7           cycles  
       LINEQ_EXPOR          ILMAXD              5               ***   
       LINEQ_MAXCY          ILMAXC            100               ***   
       LINEQ_TYPE           ILTYPE         DIIS        [  1]    ***   
       LOCK_ORBOCC          ILOCOC         OFF         [  0]    ***   
       MEMORY_SIZE          IMEMSZ         500000000           words  
       MEM_UNIT             IMEMU          INTEGERWORDS[  0]    ***   
       MRCC                 IMRCCC         OFF         [  0]    ***   
       MULTIPLICTY          IMULTP              1               ***   
       NACOUPLING           IVCOUP         OFF         [  0]    ***   
       NEGEVAL              IDIE           ABORT       [  0]    ***   
       NEWNORM              INEWNO         OFF         [  0]    ***   
       NON-HF               INONHF         OFF         [  0]    ***   
       NTOP_TAMP            ITOPT2             15               ***   
       NUC_MODEL            INUCMO         POINT       [  0]    ***   
       OCCUPATION           IOCCU   ESTIMATED BY SCF 
       OPEN-SHELL           IOPEN          SPIN-ORBITAL[  0]    ***   
       OPTVIB               IOPTVB         OFF         [  0]    ***   
       ORBITALS             IORBTP         STANDARD    [  0]    ***   
       PARALLEL             IPARAL         ON          [  1]    ***   
       PARA_INT             IPINTS         ON          [  1]    ***   
       PARA_PRINT           IPPRIN              0               ***   
       PERT_ORB             IPTORB         STANDARD    [  0]    ***   
       POINTS               IGRDFD              0               ***   
       PRINT                IPRNT               0               ***   
       PROPS                IPROPS         OFF         [  0]    ***   
       PROP_INTEGR          IINTYP         INTERNAL    [  0]    ***   
       PSI                  IPSI           OFF         [  0]    ***   
       QC_ALG               IQCALG         FLM         [  0]    ***   
       QC_LINALG            IQCLIN         TRIDIAG     [  2]    ***   
       QC_MAXCYC            IQCMAX          10D-100           cycles  
       QC_MAXSCFCY          IQCMSC          10D- 15           cycles  
       QC_RTRUST            IQCRTR          10D-  0           x 10-3  
       QC_SKIPSCF           IQCSKI         OFF         [  0]    ***   
       QC_START             IQCSTA          10D-  1             ***   
       QRHFGUESS            IQGUES         OFF         [  0]    ***   
       QUARTIC              IQUART         OFF         [  0]    ***   
       RAMAN_INT            IRAMIN         OFF         [  0]    ***   
       RAMAN_ORB            IRAMRE         UNRELAXED   [  0]    ***   
       RDO                  IRDOFM         ON          [  1]    ***   
       REDUCE_REPR          REDREP         Ir          [  0]    ***   
       REFERENCE            IREFNC         RHF         [  0]    ***   
       RELATIVIST           IRELAT         OFF         [  0]    ***   
       RELAX_DENS           IRDENS         ON          [  1]    ***   
       RESET_FLAGS          IRESET         OFF         [  0]    ***   
       RESTART_CC           ICCRES         OFF         [  0]    ***   
       ROT_EVEC             ROTVEC              0               ***   
       SAVE_INTS            ISVINT         OFF         [  0]    ***   
       SCALE_ON             ISTCRT              0               ***   
       SCF_CONV             ISCFCV          10D- 10             ***   
       SCF_DAMPING          IDAMP               0             x 10-3  
       SCF_EXPORDE          IRPPOR              6               ***   
       SCF_EXPSTAR          IRPPLS              8               ***   
       SCF_EXTRAPO          IRPP           ON          [  1]    ***   
       SCF_MAXCYC           ISCFCY            150              cycles 
       SCF_NOSTOP           ISCFST         OFF         [  0]    ***   
       SCF_PRINT            ISCFPR              0               ***   
       SCF_PROG             ISCFPR         SCF         [  0]    ***   
       SD_FIELD             IFINSD              0             x 10-6  
       SOPERT               IPERSO         OFF         [  0]    ***   
       SPHERICAL            IDFGHI         ON          [  1]    ***   
       SPINORBIT            ISOCAL         OFF         [  0]    ***   
       SPINROTATIO          ISRCON         OFF         [  0]    ***   
       SPIN_FLIP            ISPFLP         OFF         [  0]    ***   
       SPIN_ORBIT           ISPORB         OFF         [  0]    ***   
       SPIN_SCAL            ISCSMP         OFF         [  0]    ***   
       STEEPSCALE           ISTPSC              1000          x 10-3  
       SUBGROUP             ISUBGP         DEFAULT     [  0]    ***   
       SUBGRPAXIS           ISBXYZ         X           [  0]    ***   
       SYMMETRY             ISYM           ON          [  0]    ***   
       SYM_CHECK            ISYMCK         OVERRIDE    [  1]    ***   
       T3_EXTRAPOL          IT3EXT         OFF         [  0]    ***   
       T4_EXTRAPOL          IT4EXP         OFF         [  0]    ***   
       TAMP_SUM             IEVERY              5               ***   
       TESTSUITE            ITESTS         OFF         [  0]    ***   
       THERMOCH             ITHERM         OFF         [  0]    ***   
       TOL_CHOLESK          ITOLCH          10D-  4             ***   
       TRANGRAD             IRESRM         OFF         [  0]    ***   
       TRANS_INV            ITRAIN         IGNORE      [  1]    ***   
       TREAT_PERT           ITREAT         SIMULTANEOUS[  0]    ***   
       TRIP_ALGORI          ITRALG         NORMAL      [  0]    ***   
       UIJ_THRESHO          IUIJTH              1               ***   
       UNITS                IUNITS         ANGSTROM    [  0]    ***   
       UNOS                 IUNOS          OFF         [  0]    ***   
       UPDATE_HESS          IHUPDT         ON          [  1]    ***   
       VIBPHASE             ISETPH         STANDARD    [  0]    ***   
       VIBRATION            IVIB           ANALYTIC    [  1]    ***   
       VIB_ALGORIT          IGEALG         STANDARD    [  0]    ***   
       VNATORB              IVNORB         OFF         [  0]    ***   
       VTRAN                IVTRAN         FULL/PARTIAL[  0]    ***   
       XFIELD               IXEFLD              0             x 10-6  
       XFORM_TOL            IXFTOL          10D- 11             ***   
       YFIELD               IYEFLD              0             x 10-6  
       ZFIELD               IZEFLD            200             x 10-6  
       ZSCALE_EXP           IZEXPS         OFF         [  0]    ***   
    -------------------------------------------------------------------
   2 entries found in Z-matrix 
   Job Title : Carbon Monoxide DBOC calculation                                                
   There are  1 unique internal coordinates.
   Of these,  0 will be optimized.
   User supplied Z-matrix: 
--------------------------------------------------------------------------------
       SYMBOL    BOND      LENGTH    ANGLE     ANGLE     DIHED     ANGLE
                  TO      (ANGST)    WRT      (DEG)      WRT      (DEG)
--------------------------------------------------------------------------------
        C    
        O          1         r    
                  *Initial values for internal coordinates* 
                      Name             Value
                        r               1.5206896552
--------------------------------------------------------------------------------
  read isotopes from ZMAT file 
   Rotational constants (in cm-1): 
          1.0632400984             1.0632400984
   Rotational constants (in MHz): 
      31875.1407210964         31875.1407210964
********************************************************************************
   The full molecular point group is CXv .
   The largest Abelian subgroup of the full molecular point group is C2v .
   The computational point group is C2v .
********************************************************************************
--------------------------------------------------------------------------------
   Analysis of internal coordinates specified by Z-matrix 
--------------------------------------------------------------------------------
   *The nuclear repulsion energy is   16.703277170068027 a.u.
   *There is   1 degree of freedom within the tot. symm. molecular subspace.
   *Z-matrix requests optimization of   0 coordinates.
   *The optimization is constrained.
   *The following   1 parameters can have non-zero 
    derivatives within the totally symmetric subspace:
             r    [ 1]
   *The following   0 parameters are to be optimized:

   *The following coordinates must be varied in an  unconstrained optimization.
             r    [ 1]
--------------------------------------------------------------------------------


 ----------------------------------------------------------------
         Coordinates used in calculation (QCOMP) 
 ----------------------------------------------------------------
 Z-matrix   Atomic            Coordinates (in bohr)
  Symbol    Number           X              Y              Z
 ----------------------------------------------------------------
     C         6        -0.00000000     0.00000000     1.64188346
     O         8         0.00000000     0.00000000    -1.23180411
 ----------------------------------------------------------------
 
   Interatomic distance matrix (Angstroms) 
 
                 C             O    
                [ 1]        [ 2]
  C    [ 1]     0.00000
  O    [ 2]     1.52069     0.00000
 rotcon2
   Rotational constants (in cm-1): 
          1.0632400984             0.0000000000
   Rotational constants (in MHz): 
      31875.1407210964             0.0000000000
  ECPDATA file not present.   Using default ECPDATA. 
  @GTFLGS-I, Hessian will be transformed to curvilinear coordinates.
  There are  218 basis functions.
 @CHECKOUT-I, Total execution time (CPU/WALL):        0.12/       0.15 seconds.
--executable xjoda finished with status     0 in        0.18 seconds (walltime).
 --invoking executable--
/nfs/workspaces/public/cfour_mpi/bin/xvmol
 SERIAL VERSION OF MOLECULE STARTED
********************************************************************************
                    INPUT FROM MOL FILE
********************************************************************************
INTGRL        1    0    1    0    0    0    0    0    0                         
         *** CFOUR Program System (Release V0.1) ***                            
Carbon Monoxide DBOC calculation                                                
    2    2 X  Y       0.10E-08              0    0                              
   9999.00      3.00                                                            
          6.00000000    1    5    1    1    1    1    1                         
C #1  -0.000000000000000   0.000000000000000   1.641883462774640                
   16    9                                                                      
   33980.0000000000       9.100000000000000E-005 -1.900000000000000E-005        
  0.000000000000000E+000  0.000000000000000E+000  0.000000000000000E+000        
  0.000000000000000E+000  0.000000000000000E+000  0.000000000000000E+000        
  0.000000000000000E+000                                                        
   5089.00000000000       7.040000000000000E-004 -1.510000000000000E-004        
  0.000000000000000E+000  0.000000000000000E+000  0.000000000000000E+000        
  0.000000000000000E+000  0.000000000000000E+000  0.000000000000000E+000        
  0.000000000000000E+000                                                        
   1157.00000000000       3.693000000000000E-003 -7.850000000000000E-004        
  0.000000000000000E+000  0.000000000000000E+000  0.000000000000000E+000        
  0.000000000000000E+000  0.000000000000000E+000  0.000000000000000E+000        
  0.000000000000000E+000                                                        
   326.600000000000       1.536000000000000E-002 -3.324000000000000E-003        
  0.000000000000000E+000  0.000000000000000E+000  0.000000000000000E+000        
  0.000000000000000E+000  0.000000000000000E+000  0.000000000000000E+000        
  0.000000000000000E+000                                                        
   106.100000000000       5.292900000000000E-002 -1.151200000000000E-002        
  0.000000000000000E+000  0.000000000000000E+000  0.000000000000000E+000        
  0.000000000000000E+000  0.000000000000000E+000  0.000000000000000E+000        
  0.000000000000000E+000                                                        
   38.1100000000000       0.147043000000000      -3.416000000000000E-002        
  0.000000000000000E+000  0.000000000000000E+000  0.000000000000000E+000        
  0.000000000000000E+000  0.000000000000000E+000  0.000000000000000E+000        
  0.000000000000000E+000                                                        
   14.7500000000000       0.305631000000000      -7.717300000000001E-002        
  0.000000000000000E+000  0.000000000000000E+000  0.000000000000000E+000        
  0.000000000000000E+000  0.000000000000000E+000  0.000000000000000E+000        
  0.000000000000000E+000                                                        
   6.03500000000000       0.399345000000000      -0.141493000000000             
  0.000000000000000E+000  0.000000000000000E+000  0.000000000000000E+000        
  0.000000000000000E+000  0.000000000000000E+000  0.000000000000000E+000        
  0.000000000000000E+000                                                        
   2.53000000000000       0.217051000000000      -0.118019000000000             
  0.000000000000000E+000  0.000000000000000E+000  0.000000000000000E+000        
  0.000000000000000E+000  0.000000000000000E+000  0.000000000000000E+000        
  0.000000000000000E+000                                                        
  0.735500000000000       1.589400000000000E-002  0.273806000000000             
   1.00000000000000       0.000000000000000E+000  0.000000000000000E+000        
  0.000000000000000E+000  0.000000000000000E+000  0.000000000000000E+000        
  0.000000000000000E+000                                                        
  0.290500000000000      -3.084000000000000E-003  0.586510000000000             
  0.000000000000000E+000   1.00000000000000       0.000000000000000E+000        
  0.000000000000000E+000  0.000000000000000E+000  0.000000000000000E+000        
  0.000000000000000E+000                                                        
  0.111100000000000       9.779999999999999E-004  0.285430000000000             
  0.000000000000000E+000  0.000000000000000E+000   1.00000000000000             
  0.000000000000000E+000  0.000000000000000E+000  0.000000000000000E+000        
  0.000000000000000E+000                                                        
   7.21600000000000       0.000000000000000E+000  0.000000000000000E+000        
  0.000000000000000E+000  0.000000000000000E+000  0.000000000000000E+000        
   1.00000000000000       0.000000000000000E+000  0.000000000000000E+000        
  0.000000000000000E+000                                                        
   19.5700000000000       0.000000000000000E+000  0.000000000000000E+000        
  0.000000000000000E+000  0.000000000000000E+000  0.000000000000000E+000        
  0.000000000000000E+000   1.00000000000000       0.000000000000000E+000        
  0.000000000000000E+000                                                        
   53.0730000000000       0.000000000000000E+000  0.000000000000000E+000        
  0.000000000000000E+000  0.000000000000000E+000  0.000000000000000E+000        
  0.000000000000000E+000  0.000000000000000E+000   1.00000000000000             
  0.000000000000000E+000                                                        
  4.145000000000000E-002  0.000000000000000E+000  0.000000000000000E+000        
  0.000000000000000E+000  0.000000000000000E+000  0.000000000000000E+000        
  0.000000000000000E+000  0.000000000000000E+000  0.000000000000000E+000        
   1.00000000000000                                                             
   10    8                                                                      
   34.5100000000000       5.378000000000000E-003  0.000000000000000E+000        
  0.000000000000000E+000  0.000000000000000E+000  0.000000000000000E+000        
  0.000000000000000E+000  0.000000000000000E+000  0.000000000000000E+000        
   7.91500000000000       3.613200000000000E-002  0.000000000000000E+000        
  0.000000000000000E+000  0.000000000000000E+000  0.000000000000000E+000        
  0.000000000000000E+000  0.000000000000000E+000  0.000000000000000E+000        
   2.36800000000000       0.142493000000000       0.000000000000000E+000        
  0.000000000000000E+000  0.000000000000000E+000  0.000000000000000E+000        
  0.000000000000000E+000  0.000000000000000E+000  0.000000000000000E+000        
  0.813200000000000       0.342150000000000        1.00000000000000             
  0.000000000000000E+000  0.000000000000000E+000  0.000000000000000E+000        
  0.000000000000000E+000  0.000000000000000E+000  0.000000000000000E+000        
  0.289000000000000       0.463864000000000       0.000000000000000E+000        
   1.00000000000000       0.000000000000000E+000  0.000000000000000E+000        
  0.000000000000000E+000  0.000000000000000E+000  0.000000000000000E+000        
  0.100700000000000       0.250028000000000       0.000000000000000E+000        
  0.000000000000000E+000   1.00000000000000       0.000000000000000E+000        
  0.000000000000000E+000  0.000000000000000E+000  0.000000000000000E+000        
   8.18200000000000       0.000000000000000E+000  0.000000000000000E+000        
  0.000000000000000E+000  0.000000000000000E+000   1.00000000000000             
  0.000000000000000E+000  0.000000000000000E+000  0.000000000000000E+000        
   24.1860000000000       0.000000000000000E+000  0.000000000000000E+000        
  0.000000000000000E+000  0.000000000000000E+000  0.000000000000000E+000        
   1.00000000000000       0.000000000000000E+000  0.000000000000000E+000        
   71.4940000000000       0.000000000000000E+000  0.000000000000000E+000        
  0.000000000000000E+000  0.000000000000000E+000  0.000000000000000E+000        
  0.000000000000000E+000   1.00000000000000       0.000000000000000E+000        
  3.218000000000000E-002  0.000000000000000E+000  0.000000000000000E+000        
  0.000000000000000E+000  0.000000000000000E+000  0.000000000000000E+000        
  0.000000000000000E+000  0.000000000000000E+000   1.00000000000000             
    6    6                                                                      
   1.84800000000000        1.00000000000000       0.000000000000000E+000        
  0.000000000000000E+000  0.000000000000000E+000  0.000000000000000E+000        
  0.000000000000000E+000                                                        
  0.649000000000000       0.000000000000000E+000   1.00000000000000             
  0.000000000000000E+000  0.000000000000000E+000  0.000000000000000E+000        
  0.000000000000000E+000                                                        
  0.228000000000000       0.000000000000000E+000  0.000000000000000E+000        
   1.00000000000000       0.000000000000000E+000  0.000000000000000E+000        
  0.000000000000000E+000                                                        
   8.65600000000000       0.000000000000000E+000  0.000000000000000E+000        
  0.000000000000000E+000   1.00000000000000       0.000000000000000E+000        
  0.000000000000000E+000                                                        
   33.2130000000000       0.000000000000000E+000  0.000000000000000E+000        
  0.000000000000000E+000  0.000000000000000E+000   1.00000000000000             
  0.000000000000000E+000                                                        
  7.660000000000000E-002  0.000000000000000E+000  0.000000000000000E+000        
  0.000000000000000E+000  0.000000000000000E+000  0.000000000000000E+000        
   1.00000000000000                                                             
    4    4                                                                      
   1.41900000000000        1.00000000000000       0.000000000000000E+000        
  0.000000000000000E+000  0.000000000000000E+000                                
  0.485000000000000       0.000000000000000E+000   1.00000000000000             
  0.000000000000000E+000  0.000000000000000E+000                                
   24.6940000000000       0.000000000000000E+000  0.000000000000000E+000        
   1.00000000000000       0.000000000000000E+000                                
  0.187000000000000       0.000000000000000E+000  0.000000000000000E+000        
  0.000000000000000E+000   1.00000000000000                                     
    2    2                                                                      
   1.01100000000000        1.00000000000000       0.000000000000000E+000        
  0.424000000000000       0.000000000000000E+000   1.00000000000000             
          8.00000000    1    5    1    1    1    1    1                         
O #2   0.000000000000000   0.000000000000000  -1.231804108309622                
   16    9                                                                      
   61420.0000000000       9.000000000000001E-005 -2.000000000000000E-005        
  0.000000000000000E+000  0.000000000000000E+000  0.000000000000000E+000        
  0.000000000000000E+000  0.000000000000000E+000  0.000000000000000E+000        
  0.000000000000000E+000                                                        
   9199.00000000000       6.980000000000001E-004 -1.590000000000000E-004        
  0.000000000000000E+000  0.000000000000000E+000  0.000000000000000E+000        
  0.000000000000000E+000  0.000000000000000E+000  0.000000000000000E+000        
  0.000000000000000E+000                                                        
   2091.00000000000       3.664000000000000E-003 -8.290000000000000E-004        
  0.000000000000000E+000  0.000000000000000E+000  0.000000000000000E+000        
  0.000000000000000E+000  0.000000000000000E+000  0.000000000000000E+000        
  0.000000000000000E+000                                                        
   590.900000000000       1.521800000000000E-002 -3.508000000000000E-003        
  0.000000000000000E+000  0.000000000000000E+000  0.000000000000000E+000        
  0.000000000000000E+000  0.000000000000000E+000  0.000000000000000E+000        
  0.000000000000000E+000                                                        
   192.300000000000       5.242300000000000E-002 -1.215600000000000E-002        
  0.000000000000000E+000  0.000000000000000E+000  0.000000000000000E+000        
  0.000000000000000E+000  0.000000000000000E+000  0.000000000000000E+000        
  0.000000000000000E+000                                                        
   69.3200000000000       0.145921000000000      -3.626100000000000E-002        
  0.000000000000000E+000  0.000000000000000E+000  0.000000000000000E+000        
  0.000000000000000E+000  0.000000000000000E+000  0.000000000000000E+000        
  0.000000000000000E+000                                                        
   26.9700000000000       0.305258000000000      -8.299200000000000E-002        
  0.000000000000000E+000  0.000000000000000E+000  0.000000000000000E+000        
  0.000000000000000E+000  0.000000000000000E+000  0.000000000000000E+000        
  0.000000000000000E+000                                                        
   11.1000000000000       0.398508000000000      -0.152090000000000             
  0.000000000000000E+000  0.000000000000000E+000  0.000000000000000E+000        
  0.000000000000000E+000  0.000000000000000E+000  0.000000000000000E+000        
  0.000000000000000E+000                                                        
   4.68200000000000       0.216980000000000      -0.115331000000000             
  0.000000000000000E+000  0.000000000000000E+000  0.000000000000000E+000        
  0.000000000000000E+000  0.000000000000000E+000  0.000000000000000E+000        
  0.000000000000000E+000                                                        
   1.42800000000000       1.759400000000000E-002  0.288979000000000             
   1.00000000000000       0.000000000000000E+000  0.000000000000000E+000        
  0.000000000000000E+000  0.000000000000000E+000  0.000000000000000E+000        
  0.000000000000000E+000                                                        
  0.554700000000000      -2.502000000000000E-003  0.586128000000000             
  0.000000000000000E+000   1.00000000000000       0.000000000000000E+000        
  0.000000000000000E+000  0.000000000000000E+000  0.000000000000000E+000        
  0.000000000000000E+000                                                        
  0.206700000000000       9.540000000000000E-004  0.277624000000000             
  0.000000000000000E+000  0.000000000000000E+000   1.00000000000000             
  0.000000000000000E+000  0.000000000000000E+000  0.000000000000000E+000        
  0.000000000000000E+000                                                        
   12.9740000000000       0.000000000000000E+000  0.000000000000000E+000        
  0.000000000000000E+000  0.000000000000000E+000  0.000000000000000E+000        
   1.00000000000000       0.000000000000000E+000  0.000000000000000E+000        
  0.000000000000000E+000                                                        
   34.9000000000000       0.000000000000000E+000  0.000000000000000E+000        
  0.000000000000000E+000  0.000000000000000E+000  0.000000000000000E+000        
  0.000000000000000E+000   1.00000000000000       0.000000000000000E+000        
  0.000000000000000E+000                                                        
   93.8810000000000       0.000000000000000E+000  0.000000000000000E+000        
  0.000000000000000E+000  0.000000000000000E+000  0.000000000000000E+000        
  0.000000000000000E+000  0.000000000000000E+000   1.00000000000000             
  0.000000000000000E+000                                                        
  6.959000000000000E-002  0.000000000000000E+000  0.000000000000000E+000        
  0.000000000000000E+000  0.000000000000000E+000  0.000000000000000E+000        
  0.000000000000000E+000  0.000000000000000E+000  0.000000000000000E+000        
   1.00000000000000                                                             
   10    8                                                                      
   63.4200000000000       6.044000000000000E-003  0.000000000000000E+000        
  0.000000000000000E+000  0.000000000000000E+000  0.000000000000000E+000        
  0.000000000000000E+000  0.000000000000000E+000  0.000000000000000E+000        
   14.6600000000000       4.179900000000000E-002  0.000000000000000E+000        
  0.000000000000000E+000  0.000000000000000E+000  0.000000000000000E+000        
  0.000000000000000E+000  0.000000000000000E+000  0.000000000000000E+000        
   4.45900000000000       0.161143000000000       0.000000000000000E+000        
  0.000000000000000E+000  0.000000000000000E+000  0.000000000000000E+000        
  0.000000000000000E+000  0.000000000000000E+000  0.000000000000000E+000        
   1.53100000000000       0.356731000000000        1.00000000000000             
  0.000000000000000E+000  0.000000000000000E+000  0.000000000000000E+000        
  0.000000000000000E+000  0.000000000000000E+000  0.000000000000000E+000        
  0.530200000000000       0.448309000000000       0.000000000000000E+000        
   1.00000000000000       0.000000000000000E+000  0.000000000000000E+000        
  0.000000000000000E+000  0.000000000000000E+000  0.000000000000000E+000        
  0.175000000000000       0.244940000000000       0.000000000000000E+000        
  0.000000000000000E+000   1.00000000000000       0.000000000000000E+000        
  0.000000000000000E+000  0.000000000000000E+000  0.000000000000000E+000        
   14.4750000000000       0.000000000000000E+000  0.000000000000000E+000        
  0.000000000000000E+000  0.000000000000000E+000   1.00000000000000             
  0.000000000000000E+000  0.000000000000000E+000  0.000000000000000E+000        
   42.7300000000000       0.000000000000000E+000  0.000000000000000E+000        
  0.000000000000000E+000  0.000000000000000E+000  0.000000000000000E+000        
   1.00000000000000       0.000000000000000E+000  0.000000000000000E+000        
   126.140000000000       0.000000000000000E+000  0.000000000000000E+000        
  0.000000000000000E+000  0.000000000000000E+000  0.000000000000000E+000        
  0.000000000000000E+000   1.00000000000000       0.000000000000000E+000        
  5.348000000000000E-002  0.000000000000000E+000  0.000000000000000E+000        
  0.000000000000000E+000  0.000000000000000E+000  0.000000000000000E+000        
  0.000000000000000E+000  0.000000000000000E+000   1.00000000000000             
    6    6                                                                      
   3.77500000000000        1.00000000000000       0.000000000000000E+000        
  0.000000000000000E+000  0.000000000000000E+000  0.000000000000000E+000        
  0.000000000000000E+000                                                        
   1.30000000000000       0.000000000000000E+000   1.00000000000000             
  0.000000000000000E+000  0.000000000000000E+000  0.000000000000000E+000        
  0.000000000000000E+000                                                        
  0.444000000000000       0.000000000000000E+000  0.000000000000000E+000        
   1.00000000000000       0.000000000000000E+000  0.000000000000000E+000        
  0.000000000000000E+000                                                        
   14.9270000000000       0.000000000000000E+000  0.000000000000000E+000        
  0.000000000000000E+000   1.00000000000000       0.000000000000000E+000        
  0.000000000000000E+000                                                        
   57.5440000000000       0.000000000000000E+000  0.000000000000000E+000        
  0.000000000000000E+000  0.000000000000000E+000   1.00000000000000             
  0.000000000000000E+000                                                        
  0.154000000000000       0.000000000000000E+000  0.000000000000000E+000        
  0.000000000000000E+000  0.000000000000000E+000  0.000000000000000E+000        
   1.00000000000000                                                             
    4    4                                                                      
   2.66600000000000        1.00000000000000       0.000000000000000E+000        
  0.000000000000000E+000  0.000000000000000E+000                                
  0.859000000000000       0.000000000000000E+000   1.00000000000000             
  0.000000000000000E+000  0.000000000000000E+000                                
   26.4830000000000       0.000000000000000E+000  0.000000000000000E+000        
   1.00000000000000       0.000000000000000E+000                                
  0.324000000000000       0.000000000000000E+000  0.000000000000000E+000        
  0.000000000000000E+000   1.00000000000000                                     
    2    2                                                                      
   1.84600000000000        1.00000000000000       0.000000000000000E+000        
  0.714000000000000       0.000000000000000E+000   1.00000000000000             
FINISH                                                                          
 
********************************************************************************
 ONE- AND TWO-ELECTRON INTEGRALS OVER SYMMETRY-ADAPTED AOS ARE CALCULATED.

  SPHERICAL HARMONICS ARE USED.
  
  INTEGRALS LESS THAN  0.10E-13 ARE NEGLECTED.

  NUCLEAR REPULSION ENERGY :   16.7032771701 A.U.
  @MOLECU-I, ONE ELECTRON INTEGRALS (CPU/WALL):        0.06/       0.06 SECONDS.
  @TWOEL-I,    4462663 INTEGRALS OF SYMMETRY TYPE  I I I I
  @TWOEL-I,   19246701 INTEGRALS OF SYMMETRY TYPE  I J I J
  @TWOEL-I,   10134578 INTEGRALS OF SYMMETRY TYPE  I I J J
  @TWOEL-I,   14233296 INTEGRALS OF SYMMETRY TYPE  I J K L
  @TWOEL-I, TOTAL NUMBER OF 2-E INTEGRALS   48077238.
  @MOLECU-I, TWO ELECTRON INTEGRALS (CPU/WALL):      149.90/      20.36 SECONDS.
 @CHECKOUT-I, Total execution time (CPU/WALL):      149.99/      20.45 seconds.

Running with 14 threads/proc

--executable xvmol finished with status     0 in       20.48 seconds (walltime).
 --invoking executable--
/nfs/workspaces/public/cfour_mpi/bin/xvmol2ja
 @GETMEM-I,  Allocated    3814 MB of main memory.
 @CHECKOUT-I, Total execution time (CPU/WALL):        0.15/       0.03 seconds.
--executable xvmol2ja finished with status     0 in        0.06 seconds (walltime).
 --invoking executable--
/nfs/workspaces/public/cfour_mpi/bin/xvprop
 @GETMEM-I,  Allocated    3814 MB of main memory.
   Property integrals will be calculated.
    --------------------------------------------------------------
                                   Property evaluated at 
    Property type                X             Y             Z
    --------------------------------------------------------------
    Dipole moment               ----          ----          ----  
    Quadrupole moment           ----          ----          ----  
    Octopole moment             ----          ----          ----  
    Relativisitic corr.         ----          ----          ----  
    Second moment            0.0000000     0.0000000     0.0000000
    Electron density         0.0000000     0.0000000     1.6418835
    Electron density         0.0000000     0.0000000    -1.2318041
    Field gradient           0.0000000     0.0000000     1.6418835
    Field gradient           0.0000000     0.0000000    -1.2318041
    Potential                0.0000000     0.0000000     1.6418835
    Potential                0.0000000     0.0000000    -1.2318041
    --------------------------------------------------------------
 @CHECKOUT-I, Total execution time (CPU/WALL):        1.31/       1.31 seconds.
--executable xvprop finished with status     0 in        1.34 seconds (walltime).
 --invoking executable--
/nfs/workspaces/public/cfour_mpi/bin/xvscf
  There are  218 functions in the AO basis.

  There are 4 irreducible representations.

       Irrep        # of functions
         1                 86
         2                 52
         3                 52
         4                 28


  Parameters for SCF calculation: 
        SCF reference function:  RHF  
  Maximum number of iterations:  150
     Full symmetry point group: CXv 
     Computational point group: C2v 
        Initial density matrix: MOREAD                 
     SCF convergence tolerance: 10**(-10)
  DIIS convergence acceleration:  ON
          Latest start for DIIS:   8
                     DIIS order:   6

  Memory information:    2523578 words required.
  Fock matrices are constructed from AO integral file.
 @GETMEM-I,  Allocated      19 MB of main memory.
  Initialization and symmetry analysis required      0.002 seconds.

  Adding electric field perturbation to one-electron Hamiltonian.
  Field direction     : Z
  Field strength      :  0.0002000 a.u.

  @INITGES-I, Occupancies from core Hamiltonian:

          Alpha population by irrep:   5    1    1    0
           Beta population by irrep:   5    1    1    0


 total no. of electrons in initial guess :  0.000000000000000E+000
  --------------------------------------------------------------------
  Iteration         Total Energy            Largest Density Difference
  --------------------------------------------------------------------
       0            16.703277796485995              0.0000000000D+00
   current occupation vector 
     5  1  1  0
     5  1  1  0
       1           -93.464785952824045              0.1753492754D+02
   current occupation vector 
     5  1  1  0
     5  1  1  0
       2           -98.180965442184274              0.1753490134D+02
   current occupation vector 
     5  1  1  0
     5  1  1  0
       3          -101.284477676532703              0.6242499563D+01
   current occupation vector 
     5  1  1  0
     5  1  1  0
       4           -96.319693479785002              0.6234739827D+01
   current occupation vector 
     5  1  1  0
     5  1  1  0
       5          -100.624802891599529              0.6827555968D+01
   current occupation vector 
     5  1  1  0
     5  1  1  0
       6           -95.712800147582243              0.6827854137D+01
   current occupation vector 
     5  1  1  0
     5  1  1  0
       7          -100.598772434890250              0.6872156296D+01
   current occupation vector 
     5  1  1  0
     5  1  1  0
       8           -95.690952882648645              0.6872274028D+01
   current occupation vector 
     5  1  1  0
     5  1  1  0
       9          -107.480126942059258              0.5577926161D+01
   current occupation vector 
     5  1  1  0
     5  1  1  0
      10          -109.841622302546284              0.1106408787D+01
   current occupation vector 
     5  1  1  0
     5  1  1  0
      11          -112.361702242548773              0.1368471790D+01
   current occupation vector 
     5  1  1  0
     5  1  1  0
      12          -112.574416535887423              0.4907081501D+00
   current occupation vector 
     5  1  1  0
     5  1  1  0
      13          -112.580577764584262              0.1284984167D+00
   current occupation vector 
     5  1  1  0
     5  1  1  0
      14          -112.582712694943922              0.6175862846D-01
   current occupation vector 
     5  1  1  0
     5  1  1  0
      15          -112.582857310311596              0.1590619190D-01
   current occupation vector 
     5  1  1  0
     5  1  1  0
      16          -112.582940056846724              0.1569519929D-01
   current occupation vector 
     5  1  1  0
     5  1  1  0
      17          -112.582967925786363              0.1061230846D-01
   current occupation vector 
     5  1  1  0
     5  1  1  0
      18          -112.582972538510660              0.5611627731D-02
   current occupation vector 
     5  1  1  0
     5  1  1  0
      19          -112.582972569093698              0.4544215808D-03
   current occupation vector 
     5  1  1  0
     5  1  1  0
      20          -112.582972569530170              0.1475986390D-04
   current occupation vector 
     5  1  1  0
     5  1  1  0
      21          -112.582972569557029              0.7941474277D-05
   current occupation vector 
     5  1  1  0
     5  1  1  0
      22          -112.582972569557000              0.9979956328D-06
   current occupation vector 
     5  1  1  0
     5  1  1  0
      23          -112.582972569557739              0.1531535894D-06
   current occupation vector 
     5  1  1  0
     5  1  1  0
      24          -112.582972569558279              0.5303730655D-07
   current occupation vector 
     5  1  1  0
     5  1  1  0
      25          -112.582972569556574              0.1458252541D-07
   current occupation vector 
     5  1  1  0
     5  1  1  0
      26          -112.582972569559416              0.5028713668D-08
   current occupation vector 
     5  1  1  0
     5  1  1  0
      27          -112.582972569557796              0.4474098869D-08
   current occupation vector 
     5  1  1  0
     5  1  1  0
      28          -112.582972569558279              0.1045995068D-08
   current occupation vector 
     5  1  1  0
     5  1  1  0
      29          -112.582972569557597              0.1046391862D-09
   current occupation vector 
     5  1  1  0
     5  1  1  0
      30          -112.582972569555949              0.6402953723D-09
   current occupation vector 
     5  1  1  0
     5  1  1  0
      31          -112.582972569557853              0.5052609442D-09
   current occupation vector 
     5  1  1  0
     5  1  1  0

  SCF has converged.

 Density matrix saved to file den.dat
 total electron number:   14.0000000000000     
     E(SCF)=      -112.582972569557967              0.7428657689D-10

  Eigenvector printing suppressed.

 @PUTMOS-I, Writing converged MOs to NEWMOS. 
 @PUTMOS-I, Symmetry   1 Full Blocks 21 Partial Blocksize   2
 @PUTMOS-I, Symmetry   2 Full Blocks 13 Partial Blocksize   0
 @PUTMOS-I, Symmetry   3 Full Blocks 13 Partial Blocksize   0
 @PUTMOS-I, Symmetry   4 Full Blocks  7 Partial Blocksize   0
 @PUTFOCK-I, Writing converged Fock matrix to NEWFOCK. 
 @PUTFOCK-I, Symmetry   1 Full Blocks 21 Partial Blocksize   2
 @PUTFOCK-I, Symmetry   2 Full Blocks 13 Partial Blocksize   0
 @PUTFOCK-I, Symmetry   3 Full Blocks 13 Partial Blocksize   0
 @PUTFOCK-I, Symmetry   4 Full Blocks  7 Partial Blocksize   0


 
  ORBITAL EIGENVALUES (ALPHA)  (1H = 27.2113834 eV)

       MO #        E(hartree)               E(eV)           FULLSYM    COMPSYM
       ----   --------------------   --------------------   -------   ---------
    1     1         -20.6524542138        -561.9818497626     SG+        A1 (1)
    2     2         -11.5044544548        -313.0521209767     SG+        A1 (1)
    3     3          -1.3065019255         -35.5517248072     SG+        A1 (1)
    4     4          -0.7991487969         -21.7459443055     SG+        A1 (1)
    5     5          -0.5458808776         -14.8541738511     SG+        A1 (1)
    6    87          -0.5134275104         -13.9710728332      PI        B1 (2)
    7   139          -0.5134275104         -13.9710728332      PI        B2 (3)
  +++++++++++++++++++++++++++++++++++++++++++++++++++++++++++++++++++++++++++++
    8   140           0.0084355332           0.2295425285      PI        B2 (3)
    9    88           0.0084355332           0.2295425285      PI        B1 (2)
   10     6           0.0628155310           1.7092974985     SG+        A1 (1)
   11     7           0.0682409592           1.8569309056     SG+        A1 (1)
   12   141           0.0842065307           2.2913761921      PI        B2 (3)
   13    89           0.0842065307           2.2913761921      PI        B1 (2)
   14     8           0.1566871433           4.2636739308     SG+        A1 (1)
   15    90           0.1765468180           4.8040831535      PI        B1 (2)
   16   142           0.1765468180           4.8040831535      PI        B2 (3)
   17     9           0.2132722644           5.8034333554     SG+        A1 (1)
   18    10           0.2237189470           6.0877020412      DE        A1 (1)
   19   191           0.2237189470           6.0877020412      DE        A2 (4)
   20    91           0.2899677776           7.8904243700      PI        B1 (2)
   21   143           0.2899677776           7.8904243700      PI        B2 (3)
   22    11           0.3001821266           8.1683709354     SG+        A1 (1)
   23    12           0.3354948339           9.1292785549     SG+        A1 (1)
   24    92           0.4028307539          10.9615820901      PI        B1 (2)
   25   144           0.4028307539          10.9615820901      PI        B2 (3)
   26    13           0.4365614560          11.8794411577     SG+        A1 (1)
   27    14           0.5123704437          13.9423085863     SG+        A1 (1)
   28   192           0.5489341053          14.9372563996      DE        A2 (4)
   29    15           0.5489341053          14.9372563996      DE        A1 (1)
   30    93           0.6232512059          16.9595275191      PI        B1 (2)
   31   145           0.6232512059          16.9595275191      PI        B2 (3)
   32    16           0.7128231071          19.3969028631     SG+        A1 (1)
   33   146           0.7353181038          20.0090228447      PH        B2 (3)
   34    94           0.7353181038          20.0090228447      PH        B1 (2)
   35    17           0.7440230269          20.2458958444      DE        A1 (1)
   36   193           0.7440230269          20.2458958444      DE        A2 (4)
   37   147           0.7823918086          21.2899634720      PI        B2 (3)
   38    95           0.7823918086          21.2899634720      PI        B1 (2)
   39    18           0.8240618588          22.4238631853     SG+        A1 (1)
   40   194           0.8655618585          23.5531355887      DE        A2 (4)
   41    19           0.8655618585          23.5531355887      DE        A1 (1)
   42    20           0.8751580103          23.8142601543     SG+        A1 (1)
   43    96           0.8924876241          24.2858229195      PI        B1 (2)
   44   148           0.8924876241          24.2858229195      PI        B2 (3)
   45    97           1.0346349184          28.1538474424      PI        B1 (2)
   46   149           1.0346349184          28.1538474425      PI        B2 (3)
   47    21           1.1277729564          30.6882623057     SG+        A1 (1)
   48    22           1.3767081238          37.4621325875     SG+        A1 (1)
   49   150           1.4232251455          38.7279250999      PH        B2 (3)
   50    98           1.4232251455          38.7279250999      PH        B1 (2)
   51   151           1.5143850644          41.2085126023      PI        B2 (3)
   52    99           1.5143850644          41.2085126023      PI        B1 (2)
   53    23           1.5783440227          42.9489243399      DE        A1 (1)
   54   195           1.5783440227          42.9489243400      DE        A2 (4)
   55    24           1.6049765771          43.6736329881     SG+        A1 (1)
   56   100           1.6379610135          44.5711851336      PI        B1 (2)
   57   152           1.6379610135          44.5711851336      PI        B2 (3)
   58   196           1.6912742429          46.0219118574      DE        A2 (4)
   59    25           1.6912742429          46.0219118574      DE        A1 (1)
   60    26           1.9115993706          52.0172633809     SG+        A1 (1)
   61    27           1.9767768839          53.7908336836     SG+        A1 (1)
   62   197           2.0744282284          56.4480618589      PI        A2 (4)
   63    28           2.0744282284          56.4480618589      PI        A1 (1)
   64   101           2.0870502459          56.7915244161      PI        B1 (2)
   65   153           2.0870502459          56.7915244162      PI        B2 (3)
   66    29           2.1346107451          58.0857113939      DE        A1 (1)
   67   198           2.1346107451          58.0857113939      DE        A2 (4)
   68   102           2.2133469700          60.2282329970      PH        B1 (2)
   69   154           2.2133469700          60.2282329970      PH        B2 (3)
   70   155           2.2296183623          60.6710000926      PH        B2 (3)
   71   103           2.2296183623          60.6710000926      PH        B1 (2)
   72    30           2.2365421315          60.8594054304     SG+        A1 (1)
   73   104           2.2383237883          60.9078867767      PI        B1 (2)
   74   156           2.2383237883          60.9078867767      PI        B2 (3)
   75   199           2.2954709189          62.4629392568      DE        A2 (4)
   76    31           2.2954709189          62.4629392568      DE        A1 (1)
   77    32           2.4359892213          66.2866366603     SG+        A1 (1)
   78   105           2.5190627029          68.5471810179      PI        B1 (2)
   79   157           2.5190627029          68.5471810179      PI        B2 (3)
   80   106           2.5986634057          70.7132262593      PI        B1 (2)
   81   158           2.5986634057          70.7132262593      PI        B2 (3)
   82    33           2.6118637074          71.0724247296     SG+        A1 (1)
   83   200           2.6891359303          73.1751088148      DE        A2 (4)
   84    34           2.6891359303          73.1751088148      DE        A1 (1)
   85    35           3.0357610267          82.6072572076     SG+        A1 (1)
   86   107           3.4572526045          94.0766261329      PI        B1 (2)
   87   159           3.4572526045          94.0766261329      PI        B2 (3)
   88    36           3.7044666263         100.8036616610      PI        A1 (1)
   89   201           3.7044666263         100.8036616610      PI        A2 (4)
   90    37           3.9048747781         106.2570447156     SG+        A1 (1)
   91   160           3.9494623605         107.4703345166      PH        B2 (3)
   92   108           3.9494623605         107.4703345166      PH        B1 (2)
   93   109           4.1331908261         112.4698402347      PH        B1 (2)
   94   161           4.1331908261         112.4698402347      PH        B2 (3)
   95   110           4.1599870004         113.1990012080      PI        B1 (2)
   96   162           4.1599870004         113.1990012080      PI        B2 (3)
   97    38           4.1645681994         113.3236619704     SG+        A1 (1)
   98   202           4.2041939815         114.4019343198      DE        A2 (4)
   99    39           4.2041939815         114.4019343198      DE        A1 (1)
  100    40           4.2811885462         116.4970629378      DE        A1 (1)
  101   203           4.2811885462         116.4970629378      DE        A2 (4)
  102    41           4.4389019306         120.7886623083     SG+        A1 (1)
  103   111           4.5869307513         124.8167313018      PI        B1 (2)
  104   163           4.5869307513         124.8167313018      PI        B2 (3)
  105   204           4.7443195049         129.0994970211      DE        A2 (4)
  106    42           4.7443195049         129.0994970211      DE        A1 (1)
  107    43           4.7512316347         129.2875856340     SG+        A1 (1)
  108   112           5.1854309197         141.1027488489      PI        B1 (2)
  109   164           5.1854309197         141.1027488489      PI        B2 (3)
  110    44           5.3117392250         144.5397725713     SG+        A1 (1)
  111   113           5.3545506986         145.7047319942      PI        B1 (2)
  112   165           5.3545506986         145.7047319942      PI        B2 (3)
  113   205           5.8383104847         158.8685050071      PI        A2 (4)
  114    45           5.8383104847         158.8685050071      PI        A1 (1)
  115   166           5.9143345475         160.9372249285      PH        B2 (3)
  116   114           5.9143345475         160.9372249285      PH        B1 (2)
  117    46           6.0809043743         165.4698203481     SG+        A1 (1)
  118   206           6.1353577571         166.9515722247      DE        A2 (4)
  119    47           6.1353577571         166.9515722247      DE        A1 (1)
  120   167           6.1549223784         167.4839526371      PI        B2 (3)
  121   115           6.1549223784         167.4839526371      PI        B1 (2)
  122    48           6.2119992048         169.0370920423     SG+        A1 (1)
  123   116           6.3671198003         173.2581380408      PH        B1 (2)
  124   168           6.3671198003         173.2581380408      PH        B2 (3)
  125   207           6.3779622968         173.5531773700      DE        A2 (4)
  126    49           6.3779622968         173.5531773700      DE        A1 (1)
  127   208           6.5018039951         176.9230813023      DE        A2 (4)
  128    50           6.5018039951         176.9230813023      DE        A1 (1)
  129   117           6.8465827998         186.3049895443      PI        B1 (2)
  130   169           6.8465827998         186.3049895443      PI        B2 (3)
  131    51           7.1350776637         194.1553338952     SG+        A1 (1)
  132   118           7.3997344255         201.3570105100      PI        B1 (2)
  133   170           7.3997344255         201.3570105100      PI        B2 (3)
  134    52           8.0221642960         218.2941883561     SG+        A1 (1)
  135    53           9.6345601186         262.1697092764     SG+        A1 (1)
  136   119           9.8144663440         267.0652065538      PI        B1 (2)
  137   171           9.8144663440         267.0652065538      PI        B2 (3)
  138    54          10.6444366242         289.6498460589      PI        A1 (1)
  139   209          10.6444366242         289.6498460589      PI        A2 (4)
  140    55          10.6995573598         291.1497575285     SG+        A1 (1)
  141   172          10.7456303481         292.4034672765      PH        B2 (3)
  142   120          10.7456303481         292.4034672765      PH        B1 (2)
  143   210          10.9780663042         298.7283711945      DE        A2 (4)
  144    56          10.9780663042         298.7283711945      DE        A1 (1)
  145   121          10.9839069798         298.8873040578      PI        B1 (2)
  146   173          10.9839069798         298.8873040578      PI        B2 (3)
  147    57          11.1917989788         304.5443329471     SG+        A1 (1)
  148   122          11.8830514204         323.3542681613      PH        B1 (2)
  149   174          11.8830514204         323.3542681613      PH        B2 (3)
  150    58          12.0093918371         326.7921656807      DE        A1 (1)
  151   211          12.0093918371         326.7921656807      DE        A2 (4)
  152   123          12.4495737415         338.7701242475      PI        B1 (2)
  153   175          12.4495737415         338.7701242475      PI        B2 (3)
  154    59          12.6800578960         345.0419169414     SG+        A1 (1)
  155   212          12.7359304174         346.5622855444      DE        A2 (4)
  156    60          12.7359304174         346.5622855444      DE        A1 (1)
  157   176          13.0924482049         356.2636277487      PI        B2 (3)
  158   124          13.0924482049         356.2636277488      PI        B1 (2)
  159    61          13.6538846823         371.5410909885     SG+        A1 (1)
  160    62          17.4028325614         473.5551490738     SG+        A1 (1)
  161   125          18.7679363586         510.7015118806      PI        B1 (2)
  162   177          18.7679363586         510.7015118808      PI        B2 (3)
  163    63          19.8826697615         541.0349498970     SG+        A1 (1)
  164   213          26.2800395793         715.1162327593      DE        A2 (4)
  165    64          26.2800395793         715.1162327593      DE        A1 (1)
  166   178          26.6246470335         724.4934783172      PI        B2 (3)
  167   126          26.6246470335         724.4934783172      PI        B1 (2)
  168    65          27.1091724654         737.6780856136     SG+        A1 (1)
  169   127          33.4932475413         911.3976001572      PI        B1 (2)
  170   179          33.4932475413         911.3976001572      PI        B2 (3)
  171    66          34.3302887038         934.1746481523     SG+        A1 (1)
  172    67          35.7011415908         971.4774516439     SG+        A1 (1)
  173    68          47.0732896222        1280.9293318087      DE        A1 (1)
  174   214          47.0732896222        1280.9293318088      DE        A2 (4)
  175   180          47.2579828946        1285.9550912550      PI        B2 (3)
  176   128          47.2579828946        1285.9550912550      PI        B1 (2)
  177    69          47.5843194146        1294.8351594187     SG+        A1 (1)
  178    70          63.8219553904        1736.6836974663     SG+        A1 (1)
  179   129          66.3431113492        1805.2878388722      PI        B1 (2)
  180   181          66.3431113492        1805.2878388724      PI        B2 (3)
  181    71          67.1503243608        1827.2532216151     SG+        A1 (1)
  182   130          98.5254904120        2681.0148942750      PH        B1 (2)
  183   182          98.5254904120        2681.0148942750      PH        B2 (3)
  184   215          98.5389070138        2681.3799785689      DE        A2 (4)
  185    72          98.5389070138        2681.3799785689      DE        A1 (1)
  186   183          98.5529549244        2681.7622416516      PI        B2 (3)
  187   131          98.5529549244        2681.7622416516      PI        B1 (2)
  188    73          98.5661103601        2682.1202192567     SG+        A1 (1)
  189   132         103.3025160979        2811.0043717240      PH        B1 (2)
  190   184         103.3025160979        2811.0043717240      PH        B2 (3)
  191   216         103.3077172072        2811.1459011047      DE        A2 (4)
  192    74         103.3077172074        2811.1459011090      DE        A1 (1)
  193   185         103.3426326000        2812.0959972449      PI        B2 (3)
  194   133         103.3426326000        2812.0959972449      PI        B1 (2)
  195    75         103.3469616649        2812.2137970883     SG+        A1 (1)
  196   217         114.9796811256        3128.7561863184      DE        A2 (4)
  197    76         114.9796811256        3128.7561863184      DE        A1 (1)
  198   186         115.1460122189        3133.2822854705      PI        B2 (3)
  199   134         115.1460122189        3133.2822854705      PI        B1 (2)
  200    77         115.3948520037        3140.0535602594     SG+        A1 (1)
  201   135         116.7862669689        3177.9158863447      PI        B1 (2)
  202   187         116.7862669689        3177.9158863449      PI        B2 (3)
  203    78         117.4627695905        3196.3244585533     SG+        A1 (1)
  204    79         121.9497321008        3318.4209157212     SG+        A1 (1)
  205    80         198.5525556676        5402.8897173202      DE        A1 (1)
  206   218         198.5525556676        5402.8897173202      DE        A2 (4)
  207   188         198.6531774429        5405.6277750268      PI        B2 (3)
  208   136         198.6531774429        5405.6277750270      PI        B1 (2)
  209    81         198.8217322529        5410.2143845863     SG+        A1 (1)
  210    82         216.3491317772        5887.1591730464     SG+        A1 (1)
  211   137         224.8193229964        6117.6447937829      PI        B1 (2)
  212   189         224.8193229964        6117.6447937831      PI        B2 (3)
  213    83         225.4502600332        6134.8134633920     SG+        A1 (1)
  214   138         395.2986963778       10756.6243846574      PI        B1 (2)
  215   190         395.2986963779       10756.6243846579      PI        B2 (3)
  216    84         395.8531816812       10771.7126968383     SG+        A1 (1)
  217    85         508.6566351459       13841.2507179077     SG+        A1 (1)
  218    86         895.1698875125       24358.8110172368     SG+        A1 (1)


  VSCF finished.

 @CHECKOUT-I, Total execution time (CPU/WALL):       52.52/       9.13 seconds.
--executable xvscf finished with status     0 in        9.16 seconds (walltime).
 --invoking executable--
/nfs/workspaces/public/cfour_mpi/bin/xvtran
 @GETMEM-I,  Allocated    3814 MB of main memory.
  Full RHF integral transformation
  Transformation of IIII integrals :
  1 pass through the AO integral file was required.
     4462663 AO integrals were read.
     8681834 MO integrals were written to HF2.
  Transformation of IIJJ integrals :
  1 pass through the AO integral file was required.
    10134578 AO integrals were read.
    14432799 MO integrals were written to HF2.
  Transformation of IJIJ integrals :
  1 pass through the AO integral file was required.
    19246701 AO integrals were read.
    26885414 MO integrals were written to HF2.
  Transformation of IJKL integrals :
  1 pass through the AO integral file was required.
    14233296 AO integrals were read.
    18188304 MO integrals were written to HF2.
  Summary of active molecular orbitals: 
------------------------------------------------------------------------
 
  Index      Eigenvalue    Symmetry    Index      Eigenvalue    Symmetry
------------------------------------------------------------------------
     1       -20.6524542        1       110         4.1331908        2
     2       -11.5044545        1       111         4.1599870        2
     3        -1.3065019        1       112         4.5869308        2
     4        -0.7991488        1       113         5.1854309        2
     5        -0.5458809        1       114         5.3545507        2
     6        -0.5134275        2       115         5.9143345        2
     7        -0.5134275        3       116         6.1549224        2
     8         0.0628155        1       117         6.3671198        2
     9         0.0682410        1       118         6.8465828        2
    10         0.1566871        1       119         7.3997344        2
    11         0.2132723        1       120         9.8144663        2
    12         0.2237189        1       121        10.7456303        2
    13         0.3001821        1       122        10.9839070        2
    14         0.3354948        1       123        11.8830514        2
    15         0.4365615        1       124        12.4495737        2
    16         0.5123704        1       125        13.0924482        2
    17         0.5489341        1       126        18.7679364        2
    18         0.7128231        1       127        26.6246470        2
    19         0.7440230        1       128        33.4932475        2
    20         0.8240619        1       129        47.2579829        2
    21         0.8655619        1       130        66.3431113        2
    22         0.8751580        1       131        98.5254904        2
    23         1.1277730        1       132        98.5529549        2
    24         1.3767081        1       133       103.3025161        2
    25         1.5783440        1       134       103.3426326        2
    26         1.6049766        1       135       115.1460122        2
    27         1.6912742        1       136       116.7862670        2
    28         1.9115994        1       137       198.6531774        2
    29         1.9767769        1       138       224.8193230        2
    30         2.0744282        1       139       395.2986964        2
    31         2.1346107        1       140         0.0084355        3
    32         2.2365421        1       141         0.0842065        3
    33         2.2954709        1       142         0.1765468        3
    34         2.4359892        1       143         0.2899678        3
    35         2.6118637        1       144         0.4028308        3
    36         2.6891359        1       145         0.6232512        3
    37         3.0357610        1       146         0.7353181        3
    38         3.7044666        1       147         0.7823918        3
    39         3.9048748        1       148         0.8924876        3
    40         4.1645682        1       149         1.0346349        3
    41         4.2041940        1       150         1.4232251        3
    42         4.2811885        1       151         1.5143851        3
    43         4.4389019        1       152         1.6379610        3
    44         4.7443195        1       153         2.0870502        3
    45         4.7512316        1       154         2.2133470        3
    46         5.3117392        1       155         2.2296184        3
    47         5.8383105        1       156         2.2383238        3
    48         6.0809044        1       157         2.5190627        3
    49         6.1353578        1       158         2.5986634        3
    50         6.2119992        1       159         3.4572526        3
    51         6.3779623        1       160         3.9494624        3
    52         6.5018040        1       161         4.1331908        3
    53         7.1350777        1       162         4.1599870        3
    54         8.0221643        1       163         4.5869308        3
    55         9.6345601        1       164         5.1854309        3
    56        10.6444366        1       165         5.3545507        3
    57        10.6995574        1       166         5.9143345        3
    58        10.9780663        1       167         6.1549224        3
    59        11.1917990        1       168         6.3671198        3
    60        12.0093918        1       169         6.8465828        3
    61        12.6800579        1       170         7.3997344        3
    62        12.7359304        1       171         9.8144663        3
    63        13.6538847        1       172        10.7456303        3
    64        17.4028326        1       173        10.9839070        3
    65        19.8826698        1       174        11.8830514        3
    66        26.2800396        1       175        12.4495737        3
    67        27.1091725        1       176        13.0924482        3
    68        34.3302887        1       177        18.7679364        3
    69        35.7011416        1       178        26.6246470        3
    70        47.0732896        1       179        33.4932475        3
    71        47.5843194        1       180        47.2579829        3
    72        63.8219554        1       181        66.3431113        3
    73        67.1503244        1       182        98.5254904        3
    74        98.5389070        1       183        98.5529549        3
    75        98.5661104        1       184       103.3025161        3
    76       103.3077172        1       185       103.3426326        3
    77       103.3469617        1       186       115.1460122        3
    78       114.9796811        1       187       116.7862670        3
    79       115.3948520        1       188       198.6531774        3
    80       117.4627696        1       189       224.8193230        3
    81       121.9497321        1       190       395.2986964        3
    82       198.5525557        1       191         0.2237189        4
    83       198.8217323        1       192         0.5489341        4
    84       216.3491318        1       193         0.7440230        4
    85       225.4502600        1       194         0.8655619        4
    86       395.8531817        1       195         1.5783440        4
    87       508.6566351        1       196         1.6912742        4
    88       895.1698875        1       197         2.0744282        4
    89         0.0084355        2       198         2.1346107        4
    90         0.0842065        2       199         2.2954709        4
    91         0.1765468        2       200         2.6891359        4
    92         0.2899678        2       201         3.7044666        4
    93         0.4028308        2       202         4.2041940        4
    94         0.6232512        2       203         4.2811885        4
    95         0.7353181        2       204         4.7443195        4
    96         0.7823918        2       205         5.8383105        4
    97         0.8924876        2       206         6.1353578        4
    98         1.0346349        2       207         6.3779623        4
    99         1.4232251        2       208         6.5018040        4
   100         1.5143851        2       209        10.6444366        4
   101         1.6379610        2       210        10.9780663        4
   102         2.0870502        2       211        12.0093918        4
   103         2.2133470        2       212        12.7359304        4
   104         2.2296184        2       213        26.2800396        4
   105         2.2383238        2       214        47.0732896        4
   106         2.5190627        2       215        98.5389070        4
   107         2.5986634        2       216       103.3077172        4
   108         3.4572526        2       217       114.9796811        4
   109         3.9494624        2       218       198.5525557        4
------------------------------------------------------------------------
  -20.6524542137977       -11.5044544547744       -1.30650192548375     
 -0.799148796877571      -0.545880877598838      -0.513427510386732     
 -0.513427510386714       6.281553103655946E-002  6.824095924345853E-002
  0.156687143321229       0.213272264406861       0.223718947018974     
  0.300182126552271       0.335494833934794       0.436561456031270     
  0.512370443698473       0.548934105262710       0.712823107080020     
  0.744023026936841       0.824061858805777       0.865561858522920     
  0.875158010315031        1.12777295643533        1.37670812383251     
   1.57834402274249        1.60497657712250        1.69127424287535     
   1.91159937061113        1.97677688388245        2.07442822840590     
   2.13461074507160        2.23654213149626        2.29547091886640     
   2.43598922134729        2.61186370736451        2.68913593032487     
   3.03576102667297        3.70446662630991        3.90487477808937     
   4.16456819943979        4.20419398154409        4.28118854618049     
[...]
 Convergence information after    14 iterations: 
 Largest element of residual vector : -0.84937119E-06.
 Largest element of DIIS residual   : -0.65560019E-06.
 Convergence information after    15 iterations: 
 Largest element of residual vector :  0.77849095E-06.
 Largest element of DIIS residual   :  0.50445812E-06.
 Convergence information after    16 iterations: 
 Largest element of residual vector :  0.37970659E-06.
 Largest element of DIIS residual   :  0.21900793E-06.
 Convergence information after    17 iterations: 
 Largest element of residual vector :  0.21212609E-06.
 Largest element of DIIS residual   :  0.90234387E-07.
 Perturbed amplitude equations converged in    17 iterations.
  Dominant contributions to perturbed wavefunction:
    7    7  140   28   0.2188282763 ABAB
    7    7   28  140   0.2188282763 ABAB
    7    7  140   39  -0.2165673037 ABAB
    7    7   39  140  -0.2165673037 ABAB
    7    7  140   45  -0.2155768060 ABAB
    7    7   45  140  -0.2155768060 ABAB
    7    7  140   22  -0.2055046940 ABAB
    7    7   22  140  -0.2055046940 ABAB
    7    7  140   29  -0.1588446083 ABAB
    7    7   29  140  -0.1588446083 ABAB
    7    7  140   57   0.1558066304 ABAB
    7    7   57  140   0.1558066304 ABAB
    7    0   35    0  -0.1548824314 AA  
    7    7  140   54   0.1533271098 ABAB
    7    7   54  140   0.1533271098 ABAB
    7    6   28   89   0.1368331245 ABAB
    6    7   89   28   0.1368331245 ABAB
    7    6   39   89  -0.1363930386 ABAB
    6    7   89   39  -0.1363930386 ABAB
    7    6   45   89  -0.1353282347 ABAB
  norm of converged amps    1.74420783511383     
 Starting iterative solution of the perturbed Lambda equations.
 The DIIS procedure is used to accelerate convergence.
 Convergence criterion is 10**(-7).
 Maximum number of iterations is 100.
 Convergence information after     1 iterations: 
 Largest element of residual vector :  0.75431365E-01.
 Largest element of DIIS residual   :  0.75431365E-01.
 Convergence information after     2 iterations: 
 Largest element of residual vector :  0.14321125E-01.
 Largest element of DIIS residual   :  0.10793410E-01.
 Convergence information after     3 iterations: 
 Largest element of residual vector : -0.64544400E-02.
 Largest element of DIIS residual   : -0.60856072E-02.
 Convergence information after     4 iterations: 
 Largest element of residual vector : -0.38917778E-02.
 Largest element of DIIS residual   : -0.34782545E-02.
 Convergence information after     5 iterations: 
 Largest element of residual vector : -0.31557063E-02.
 Largest element of DIIS residual   : -0.23218349E-02.
 Convergence information after     6 iterations: 
 Largest element of residual vector : -0.15118583E-02.
 Largest element of DIIS residual   : -0.67219373E-03.
 Convergence information after     7 iterations: 
 Largest element of residual vector : -0.68598301E-03.
 Largest element of DIIS residual   : -0.30878474E-03.
 Convergence information after     8 iterations: 
 Largest element of residual vector : -0.21002471E-03.
 Largest element of DIIS residual   : -0.13736037E-03.
 Convergence information after     9 iterations: 
 Largest element of residual vector : -0.86893946E-04.
 Largest element of DIIS residual   : -0.37628020E-04.
 Convergence information after    10 iterations: 
 Largest element of residual vector : -0.32068413E-04.
 Largest element of DIIS residual   : -0.14375908E-04.
 Convergence information after    11 iterations: 
 Largest element of residual vector : -0.65684932E-05.
 Largest element of DIIS residual   : -0.41899557E-05.
 Convergence information after    12 iterations: 
 Largest element of residual vector : -0.19056000E-05.
 Largest element of DIIS residual   : -0.16498098E-05.
 Convergence information after    13 iterations: 
 Largest element of residual vector : -0.14521939E-05.
 Largest element of DIIS residual   : -0.12561550E-05.
 Convergence information after    14 iterations: 
 Largest element of residual vector : -0.63165885E-06.
 Largest element of DIIS residual   : -0.41876701E-06.
 Convergence information after    15 iterations: 
 Largest element of residual vector :  0.48844073E-06.
 Largest element of DIIS residual   :  0.33676492E-06.
 Convergence information after    16 iterations: 
 Largest element of residual vector :  0.24838501E-06.
 Largest element of DIIS residual   :  0.15826153E-06.
 Convergence information after    17 iterations: 
 Largest element of residual vector :  0.14460552E-06.
 Largest element of DIIS residual   :  0.73434537E-07.
 Perturbed Lambda equations converged in    17 iterations.
  Dominant contributions to perturbed wavefunction:
    7    7  140   28   0.1889501276 ABAB
    7    7   28  140   0.1889501276 ABAB
    7    7  140   45  -0.1837792713 ABAB
    7    7   45  140  -0.1837792713 ABAB
    7    7  140   39  -0.1832648093 ABAB
    7    7   39  140  -0.1832648093 ABAB
    7    7  140   22  -0.1751577822 ABAB
    7    7   22  140  -0.1751577822 ABAB
    7    7  140   29  -0.1326929079 ABAB
    7    7   29  140  -0.1326929079 ABAB
    7    7  140   54   0.1319868543 ABAB
    7    7   54  140   0.1319868543 ABAB
    7    7  140   57   0.1317486551 ABAB
    7    7   57  140   0.1317486551 ABAB
    7    6   28   89   0.1163185563 ABAB
    6    7   89   28   0.1163185563 ABAB
    7    6   45   89  -0.1138301306 ABAB
    6    7   89   45  -0.1138301306 ABAB
    7    6   39   89  -0.1137879900 ABAB
    6    7   89   39  -0.1137879900 ABAB
        The DBOC first-order density matrix is being calculated 
             (Symmetry block 3, perturbation   2)
 term   3.25950177619600     
 final tnorm  0.818335237149974     
  norm contr. I: |<0|L dT/dx|0>|^2   0.000000000000000E+000
  norm contr. II: <0|[nabla(1+L)e-T][nabla e^T]|0>   3.25950177619600     
  total norm contribution   3.25950177619600     
 oo  8.435113764342167E-003
 vv  -24.4026537451195     
 vo  7.345540936919576E-002
  Correlated perturbed 1-el contribution to DBOC  -24.3207632219859       cm**-1
  SUM_I |dc_I/dx|^2 contribution to DBOC   12.2710776522280       cm**-1
 
 
  The total diagonal Born-Oppenheimer correction (DBOC) is:      0.0041406422 a.u.
  The total diagonal Born-Oppenheimer correction (DBOC) is:        908.765911 cm-1
 
 Total CC energy including DBOC  -113.118549381341     
 First-order density matrix is being calculated  (Symmetry block 3, perturbation   2)
 Calculation of the contributions of <pq||rs> to dI(i,j)/dx required   1.4 seconds.
 Calculation of the contributions of <pq||rs> to dI(a,b)/dx required  14.8 seconds.
 Calculation of the contributions of <pq||rs> to dI(i,a)/dx required   9.1 seconds.
 First-order Z-vector equations are solved for 1 perturbation.
 Convergence reached after  19 iterations.
        U*G(pq,rs) contribution is being calculated
             (Symmetry block 3, perturbation   2)

 CCSD contribution to force constants 

        0.0000000000        0.0000000000        0.0000000000
        0.0000000000        0.0000000000        0.0000000000
        0.0000000000        0.0000000000        0.0000000000
        0.0000000000        0.0000000000        0.0000000000
        0.0000000000        0.0000000000        0.0000000000
        0.0000000000        0.0000000000        0.0000000000
        0.0000000000        0.0000000000        0.0000000000
        0.0000000000        0.0000000000        0.0000000000
        0.0000000000        0.0000000000        0.0000000000
        0.0000000000        0.0000000000        0.0000000000
        0.0000000000        0.0000000000        0.0000000000
        0.0000000000       -2.5494547807        2.5494547807

 CCSD contribution to dipole derivatives 

        0.0000000000        0.0000000000        0.0000000000
        0.0000000000        0.0000000000        0.0000000000
        0.0000000000        0.0000000000        0.0000000000
        0.0000000000        0.0000000000       -0.0567413799
        0.0000000000        0.0000000000        0.0000000000
        0.0000000000        0.0000000000        0.0000000000
 @CHECKOUT-I, Total execution time (CPU/WALL):     1008.21/     214.98 seconds.
--executable xsdcc finished with status     0 in      215.02 seconds (walltime).
 --invoking executable--
/nfs/workspaces/public/cfour_mpi/bin/xanti
 @GETMEM-I,  Allocated    3814 MB of main memory.
 CCSD MO derivative gammas will be sorted to Mulliken order.
 @CHECKOUT-I, Total execution time (CPU/WALL):        8.74/      13.36 seconds.
--executable xanti finished with status     0 in       13.39 seconds (walltime).
 --invoking executable--
/nfs/workspaces/public/cfour_mpi/bin/xbcktrn
 @GETMEM-I,  Allocated    3814 MB of main memory.
 CCSD MO derivative gammas will be transformed to the AO basis.
 @CHECKOUT-I, Total execution time (CPU/WALL):       16.96/       5.24 seconds.
--executable xbcktrn finished with status     0 in        5.27 seconds (walltime).
 --invoking executable--
/nfs/workspaces/public/cfour_mpi/bin/xvdint
 @GETMEM-I,  Allocated    3814 MB of main memory.
 One- and two-electron integral derivatives are calculated
 for RHF-CC/MBPT hessians and dipole derivatives.
 Spherical gaussians are used.
  magnet F F
                    8722  records have been written to the Sort file.
  Total length of Sort file :             178609116  words.
 Evaluation of 2el integral derivatives

                      Two-electron integral gradient
                      ------------------------------

                         C #1 z     0.0000000000
                         O #2 z     0.0000000000


 C #1       0.0000000000            0.0400265803            0.0000000000
 O #2       0.0000000000           -0.0400265803            0.0000000000


 Evaluation of 2e integral derivatives required  251.69 seconds.
  contribution to Hessian
        0.0000000000        0.0000000000        0.0000000000
        0.0000000000        0.0400265803       -0.0400265803
 @CHECKOUT-I, Total execution time (CPU/WALL):      251.67/      62.06 seconds.
--executable xvdint finished with status     0 in       62.09 seconds (walltime).
 --invoking executable--
/nfs/workspaces/public/cfour_mpi/bin/xanti
 @GETMEM-I,  Allocated    3814 MB of main memory.
 CCSD MO gammas will be sorted to Mulliken order.
 @CHECKOUT-I, Total execution time (CPU/WALL):       10.23/       8.85 seconds.
--executable xanti finished with status     0 in        8.88 seconds (walltime).
 --invoking executable--
/nfs/workspaces/public/cfour_mpi/bin/xbcktrn
 @GETMEM-I,  Allocated    3814 MB of main memory.
 CCSD MO gammas will be transformed to the AO basis.
 @CHECKOUT-I, Total execution time (CPU/WALL):       22.24/       3.67 seconds.
--executable xbcktrn finished with status     0 in        3.69 seconds (walltime).
 --invoking executable--
/nfs/workspaces/public/cfour_mpi/bin/xvdint
 @GETMEM-I,  Allocated    3814 MB of main memory.
 One- and two-electron integral derivatives are calculated
 for RHF-CC/MBPT hessians and dipole derivatives.
 Spherical gaussians are used.
  magnet F F

                     Kinetic energy integral gradient
                     --------------------------------

                         C #1 z    -0.6267883843
                         O #2 z     0.6267883843


 C #1       0.0000000000            0.0000000000           -0.6267883843
 O #2       0.0000000000            0.0000000000            0.6267883843



                   Nuclear attraction integral gradient
                   ------------------------------------

                         C #1 z    14.9026796842
                         O #2 z   -14.9026796842


 C #1       0.0000000000            0.0000000000           14.9026796842
 O #2       0.0000000000            0.0000000000          -14.9026796842



                      Reorthonormalization gradient
                      -----------------------------

                         C #1 z     0.0000000000
                         O #2 z     0.0000000000


 C #1       0.0000000000            0.0000000000            0.0000000000
 O #2       0.0000000000            0.0000000000            0.0000000000



                     Kinetic energy integral Hessian
                     -------------------------------


           Symmetry 1

           C #1 z      O #2 z

 C #1 z    0.652313
 O #2 z   -0.652313    0.652313


           Symmetry 2

           C #1 x      O #2 x

 C #1 x   -0.515172
 O #2 x    0.515172   -0.515172


           Symmetry 3

           C #1 y      O #2 y

 C #1 y   -0.515172
 O #2 y    0.515172   -0.515172




           C #1 x      C #1 y      C #1 z      O #2 x      O #2 y      O #2 z

 C #1 x   -0.515172
 C #1 y    0.000000   -0.515172
 C #1 z    0.000000    0.000000    0.652313

 O #2 x    0.515172    0.000000    0.000000   -0.515172
 O #2 y    0.000000    0.515172    0.000000    0.000000   -0.515172
 O #2 z    0.000000    0.000000   -0.652313    0.000000    0.000000    0.652313




                   Nuclear attraction integral Hessian
                   -----------------------------------


           Symmetry 1

           C #1 z      O #2 z

 C #1 z   -9.163565
 O #2 z    9.163565   -9.163565


           Symmetry 2

           C #1 x      O #2 x

 C #1 x    8.550611
 O #2 x   -8.550611    8.550611


           Symmetry 3

           C #1 y      O #2 y

 C #1 y    8.550611
 O #2 y   -8.550611    8.550611




           C #1 x      C #1 y      C #1 z      O #2 x      O #2 y      O #2 z

 C #1 x    8.550611
 C #1 y    0.000000    8.550611
 C #1 z    0.000000    0.000000   -9.163565

 O #2 x   -8.550611    0.000000    0.000000    8.550611
 O #2 y    0.000000   -8.550611    0.000000    0.000000    8.550611
 O #2 z    0.000000    0.000000    9.163565    0.000000    0.000000   -9.163565




                Highest order reorthonormalization Hessian
                ------------------------------------------


           Symmetry 1

           C #1 z      O #2 z

 C #1 z    0.000000
 O #2 z    0.000000    0.000000


           Symmetry 2

           C #1 x      O #2 x

 C #1 x    0.000000
 O #2 x    0.000000    0.000000


           Symmetry 3

           C #1 y      O #2 y

 C #1 y    0.000000
 O #2 y    0.000000    0.000000




           C #1 x      C #1 y      C #1 z      O #2 x      O #2 y      O #2 z




                Electronic contributions to dipole moment
                -----------------------------------------

                               au             Debye

                    z      0.41711511      1.06020104

  Conversion factor used: 1 a.u. =   2.54174691 Debye 



   Electronic contributions to static part of dipole moment derivatives
   --------------------------------------------------------------------


                     Total dipole moment derivatives
                     -------------------------------


           Symmetry 1
                              Ez

               C #1 z    -5.64660633
               O #2 z    -8.35339367

           Symmetry 2
                              Ex

               C #1 x    -5.66965243
               O #2 x    -8.33034757

           Symmetry 3
                              Ey

               C #1 y    -5.66965243
               O #2 y    -8.33034757



                       Ex          Ey          Ez

      C #1    x   -5.669652    0.000000    0.000000
      C #1    y    0.000000   -5.669652    0.000000
      C #1    z    0.000000    0.000000   -5.646606

      O #2    x   -8.330348    0.000000    0.000000
      O #2    y    0.000000   -8.330348    0.000000
      O #2    z    0.000000    0.000000   -8.353394

 Evaluation of 1e integral derivatives required    1.73 seconds.
                    8815  records have been written to the Sort file.
  Total length of Sort file :             180513570  words.
 Evaluation of 2el integral derivatives

                      Two-electron integral gradient
                      ------------------------------

                         C #1 z    -7.8388554276
                         O #2 z     7.8388554276


 C #1       0.0000000000            0.0000000000           -7.8388554276
 O #2       0.0000000000            0.0000000000            7.8388554276


 Evaluation of 2e integral derivatives required  558.00 seconds.

                            Molecular gradient
                            ------------------

                         C #1 z     0.6245469510
                         O #2 z    -0.6245469510


 C #1       0.0000000000            0.0000000000            0.6245469510
 O #2       0.0000000000            0.0000000000           -0.6245469510


  Molecular gradient norm 0.883E+00

                            Molecular hessian
                            -----------------


           Symmetry 1

           C #1 z      O #2 z

 C #1 z   20.793781
 O #2 z  -20.793781   20.793781


           Symmetry 2

           C #1 x      O #2 x

 C #1 x    2.775319
 O #2 x   -2.775319    2.775319


           Symmetry 3

           C #1 y      O #2 y

 C #1 y    2.775319
 O #2 y   -2.775319    2.775319




           C #1 x      C #1 y      C #1 z      O #2 x      O #2 y      O #2 z

 C #1 x    2.775319
 C #1 y    0.000000    2.775319
 C #1 z    0.000000    0.000000   20.793781

 O #2 x   -2.775319    0.000000    0.000000    2.775319
 O #2 y    0.000000   -2.775319    0.000000    0.000000    2.775319
 O #2 z    0.000000    0.000000  -20.793781    0.000000    0.000000   20.793781




                           Total dipole moment
                           -------------------

                               au             Debye

                    z      0.41398302      1.05224006

  Conversion factor used: 1 a.u. =   2.54174691 Debye 



                     Total dipole moment derivatives
                     -------------------------------


           Symmetry 1
                              Ez

               C #1 z     0.62094786
               O #2 z    -0.62094786

           Symmetry 2
                              Ex

               C #1 x     0.14875048
               O #2 x    -0.14875048

           Symmetry 3
                              Ey

               C #1 y     0.14875048
               O #2 y    -0.14875048



                       Ex          Ey          Ez

      C #1    x    0.148750    0.000000    0.000000
      C #1    y    0.000000    0.148750    0.000000
      C #1    z    0.000000    0.000000    0.620948

      O #2    x   -0.148750    0.000000    0.000000
      O #2    y    0.000000   -0.148750    0.000000
      O #2    z    0.000000    0.000000   -0.620948

 @CHECKOUT-I, Total execution time (CPU/WALL):      559.73/      95.46 seconds.
--executable xvdint finished with status     0 in       95.48 seconds (walltime).
 --invoking executable--
/nfs/workspaces/public/cfour_mpi/bin/xjoda
  @GTFLGS-I, Hessian will be transformed to curvilinear coordinates.
  @GTFLGS-I, Hessian will be transformed to curvilinear coordinates.
  igrd and ihes are                      0                     1
  gradient from JOBARC 
   0.000000000000000   0.000000000000000   0.624546951037865
   0.000000000000000   0.000000000000000  -0.624546951037865
 
  @PROJFCM-I, Projecting force constant matrix onto totally symmetric subspace.
  Largest difference between matrix elements of symmetrized
  and unsymmetrized FCM :     0.2414513034E-11.
  read isotopes from ZMAT file 
 
  Summary of diagonal Born-Oppenheimer correction at the correlated level
  The total diagonal Born-Oppenheimer correction (DBOC) is:      0.0041406422 a.u.
  The total diagonal Born-Oppenheimer correction (DBOC) is:        908.765911 cm-1
  The total diagonal Born-Oppenheimer correction (DBOC) is:            10.871 kJ/mole
  hellooooooo 
  readis is  F
 
 @CHECKOUT-I, Total execution time (CPU/WALL):        0.01/       0.01 seconds.
--executable xjoda finished with status     0 in        0.04 seconds (walltime).
  The final electronic energy is      -113.118549381341097 a.u. 
  This computation required                         2259.97 seconds (walltime).
