 --invoking executable--
/nfs/workspaces/public/cfour_mpi/bin/xjoda


   *************************************************************************
         <<<     CCCCCC     CCCCCC   |||     CCCCCC     CCCCCC   >>>
       <<<      CCC        CCC       |||    CCC        CCC         >>>
      <<<      CCC        CCC        |||   CCC        CCC            >>>
    <<<        CCC        CCC        |||   CCC        CCC              >>>
      <<<      CCC        CCC        |||   CCC        CCC            >>>
       <<<      CCC        CCC       |||    CCC        CCC         >>>
         <<<     CCCCCC     CCCCCC   |||     CCCCCC     CCCCCC   >>>
   *************************************************************************

     ****************************************************************
     * CFOUR Coupled-Cluster techniques for Computational Chemistry *
     ****************************************************************
 

   Department of Chemistry                Institut fuer Physikalische Chemie
   University of Florida                  Universitaet Mainz
   Gainesville, FL 32611, USA             D-55099 Mainz, Germany

   Department of Chemistry                Fakultaet fuer Chemie und Biowiss.
   Johns Hopkins University               Karlsruher Institut fuer Technologie
   Baltimore, MD 21218, USA               D-76131 Karlsruhe, Germany

   Department of Chemistry                Department of Physical Chemistry
   Southern Methodist University          Eotvos Lorand University
   Dallas, TX 75275, USA                  H-1053 Budapest, Hungary

 
                       Version 2.1
 
                     vincent.theory.phys.ucl.ac.uk                     
                     Mon 24 Feb 20:37:21 GMT 2025                      
                     integer*8 version is running
 
********************************************************************************
*                          Input from ZMAT file                                *
********************************************************************************
Carbon Monoxide DBOC calculation                                                
C                                                                               
O 1 r                                                                           
                                                                                
r=1.0862068965517242                                                            
                                                                                
                                                                                
*CFOUR(CALC=CCSD,BASIS=AUG-PCVQZ,SCF_CONV=10                                    
CC_CONV=14,DBOC=ON,MEMORY=500000000                                             
ZFIELD=200)                                                                     
                                                                                
%isotopes                                                                       
12                                                                              
16                                                                              
********************************************************************************
  @GTFLGS-I, Hessian will be transformed to curvilinear coordinates.
    -------------------------------------------------------------------
                    CFOUR Control Parameters 
    -------------------------------------------------------------------
        External           Internal           Value            Units
          Name               Name
    -------------------------------------------------------------------
       ABCDTYPE             IABCDT         STANDARD    [  0]    ***   
       ANHARMONIC           IANHAR         OFF         [  0]    ***   
       ANH_ALGORIT          IANALG         STANDARD    [  0]    ***   
       ANH_DERIVAT          IANDER         SECOND      [  1]    ***   
       ANH_MODE             ANHMOD         VIBRATION   [  0]    ***   
       ANH_STEPSIZ          ICUBST             50000          x 10-6  
       ANH_SYMMETR          IANHSM         ABELIAN     [  0]    ***   
       AO_LADDERS           IAOLAD         SINGLEPASS  [  1]    ***   
       AV_SCF               IAVSCF         OFF         [  0]    ***   
       BASIS                IBASIS         AUG-PCVQZ   [ 52]    ***   
       BOTHVECTORS          BOTHVC         OFF         [  0]    ***   
       BOX_POTENT           IPIAB          OFF         [  0]    ***   
       BREIT                IBREIT         OFF         [  0]    ***   
       BRUCK_CONV           IBRTOL          10D-  4             ***   
       BRUECKNER            IBRKNR         OFF         [  0]    ***   
       BUFFERSIZE           IBUFFS              4096            ***   
       CACHE_RECS           ICHREC             10               ***   
       CALCLEVEL            ICLLVL         CCSD        [ 10]    ***   
       CCORBOPT             ICCORB         OFF         [  0]  x 0.01  
       CC_CONV              ICCCNV          10D- 14             ***   
       CC_EXPORDER          ICCEOR              5               ***   
       CC_EXTRAPOL          ICCEXT         DIIS        [  1]    ***   
       CC_GUESS             ICCGES         MP2         [  0]    ***   
       CC_MAXCYC            ICCCYC            100              cycles 
       CC_PROGRAM           ICCPRO         VCC         [  0]    ***   
       CHARGE               ICHRGE              0               ***   
       CHOLESKY             ICHOLE         OFF         [  0]    ***   
       CIS_CONV             ICISTL              5               ***   
       COMM_SIZE            IPSIZE            ***               ***   
       CONSTANT             ICONST         OLD         [  1]    ***   
       CONTINUUM            ICONTU         NONE        [  0]    ***   
       CONTRACTION          ICNTYP         GENERAL     [  1]    ***   
       COORDINATES          ICOORD         INTERNAL    [  0]    ***   
       CPHF_CONVER          ICPHFT          10D- 16             ***   
       CPHF_MAXCYC          ICPHFC             64              cycles 
       CUBIC                ICUBIC         OFF         [  0]    ***   
       CURVILINEAR          ICURVY         ON          [  1]    ***   
       DBOC                 IDBOC          ON          [  1]    ***   
       DCT                  IDCT           OFF         [  0]    ***   
       DERIV_LEV            IDRLVL         SECOND      [  2]    ***   
       DEVMEM_SIZE          IDVMEM          50000000           MByte  
       DIAG_MRCC            IEOMST          10D-  0             ***   
       DIFF_TYPE            IDIFTY         RELAXED     [  0]    ***   
       DIRECT               IDIRCT         OFF         [  0]    ***   
       DROPMO               IDRPMO      NONE         
       ECP                  IECP           OFF         [  0]    ***   
       EIGENVECTOR          IVEC                1               ***   
       EL_ANHARM            IELANH         OFF         [  0]    ***   
       EOMFOLLOW            IEOMSR         ENERGY      [  0]    ***   
       EOMIP                IEOMIP         OFF         [  0]    ***   
       EOMLEVEL             HBARFM         SAME        [  0]    ***   
       EOM_MRCC             IMRCCE         NEW         [  1]    ***   
       EOM_NONIT            EOMNON         OFF         [  0]    ***   
       EOM_NSING            IEOMSI          10D-  0             ***   
       EOM_NSTATES          IMRCCD         DAVIDSON    [  0]    ***   
       EOM_NTRIP            IEOMTR          10D-  0             ***   
       EOM_ORDER            IEXORD         ENERGY      [  0]    ***   
       EOM_PROPSTA          IEOMST              0               ***   
       ESTATE_CONV          IEXTOL          10D-  5             ***   
       ESTATE_DIAG          IEXDIG         ITERATIVE   [  0]    ***   
       ESTATE_LOCK          IESLOC         ON          [  1]    ***   
       ESTATE_MAXC          IEXMXC             40               ***   
       ESTATE_PROP          IEXPRP         OFF         [  0]    ***   
       EVAL_HESS            IRECAL              0            # of cyc.
       EXCITATION           IEXCIT              0               ***   
       EXCITE               IEXCIT         NONE        [  0]    ***   
       EXTERN_POT           IEXPOT         OFF         [  0]    ***   
       FCGRADNEW            IFCGNW         OFF         [  0]    ***   
       FC_FIELD             IFINFC              0             x 10-6  
       FD_CALTYPE           IFDCAL         GRADONLY    [  0]    ***   
       FD_PROJECT           IFDPRJ         OFF         [  1]    ***   
       FD_STEPSIZE          IDISFD              0            10-4 bohr
       FD_USEGROUP          IFDGRP         FULL        [  0]    ***   
       FILE_RECSIZ          IFLREC              4096           words  
       FINITE_PERT          IFIPER              0             x 10-6  
       FIXGEOM              IFIXGM         OFF         [  0]    ***   
       FOCK                 IFOCK          AO          [  1]    ***   
       FREQ_ALGORI          IVIALG         STANDARD    [  0]    ***   
       FROZEN_CORE          IFROCO         OFF         [  0]    ***   
       GAMMA_ABCD           IGABCD         STORE       [  0]    ***   
       GAMMA_ABCI           IGABCI         STORE       [  0]    ***   
       GENBAS_1             IGNBS1              0               ***   
       GENBAS_2             IGNBS2              0               ***   
       GENBAS_3             IGNBS3              0               ***   
       GENBAS_4             IGNBS4              0               ***   
       GEO_CONV             ICONTL              5              H/bohr 
       GEO_MAXCYC           IOPTCY             50               ***   
       GEO_MAXSTEP          IMXSTP            300            millibohr
       GEO_METHOD           INR            SINGLE_POINT[  5]    ***   
       GIAO                 IGIAO          OFF         [  1]    ***   
       GIMIC                IGIMIC         OFF         [  0]    ***   
       GRID                 IGRID          OFF         [  0]    ***   
       GRID_ALGO            IGALGO         SERIAL      [  0]    ***   
       GUESS                IGUESS         MOREAD      [  0]    ***   
       HBAR                 IHBAR          OFF         [  0]    ***   
       HESS_TYPE            IHESTP         SCF         [  0]    ***   
       HF2_FILE             IHF2Fl         USE         [  1]    ***   
       HFSTABILITY          ISTABL         OFF         [  0]    ***   
       INCORE               INCORE         OFF         [  0]    ***   
       INPUT_MRCC           IMRCC          ON          [  1]    ***   
       INTEGRALS            INTTYP         VMOL        [  1]    ***   
       JODA_PRINT           IJPRNT              0               ***   
       KEYWORD_OUT          IDMPKW         NO          [  0]    ***   
       LINDEP_TOL           ILINDP              8               ***   
       LINEQ_CONV           IZTACN          10D-  7           cycles  
       LINEQ_EXPOR          ILMAXD              5               ***   
       LINEQ_MAXCY          ILMAXC            100               ***   
       LINEQ_TYPE           ILTYPE         DIIS        [  1]    ***   
       LOCK_ORBOCC          ILOCOC         OFF         [  0]    ***   
       MEMORY_SIZE          IMEMSZ         500000000           words  
       MEM_UNIT             IMEMU          INTEGERWORDS[  0]    ***   
       MRCC                 IMRCCC         OFF         [  0]    ***   
       MULTIPLICTY          IMULTP              1               ***   
       NACOUPLING           IVCOUP         OFF         [  0]    ***   
       NEGEVAL              IDIE           ABORT       [  0]    ***   
       NEWNORM              INEWNO         OFF         [  0]    ***   
       NON-HF               INONHF         OFF         [  0]    ***   
       NTOP_TAMP            ITOPT2             15               ***   
       NUC_MODEL            INUCMO         POINT       [  0]    ***   
       OCCUPATION           IOCCU   ESTIMATED BY SCF 
       OPEN-SHELL           IOPEN          SPIN-ORBITAL[  0]    ***   
       OPTVIB               IOPTVB         OFF         [  0]    ***   
       ORBITALS             IORBTP         STANDARD    [  0]    ***   
       PARALLEL             IPARAL         ON          [  1]    ***   
       PARA_INT             IPINTS         ON          [  1]    ***   
       PARA_PRINT           IPPRIN              0               ***   
       PERT_ORB             IPTORB         STANDARD    [  0]    ***   
       POINTS               IGRDFD              0               ***   
       PRINT                IPRNT               0               ***   
       PROPS                IPROPS         OFF         [  0]    ***   
       PROP_INTEGR          IINTYP         INTERNAL    [  0]    ***   
       PSI                  IPSI           OFF         [  0]    ***   
       QC_ALG               IQCALG         FLM         [  0]    ***   
       QC_LINALG            IQCLIN         TRIDIAG     [  2]    ***   
       QC_MAXCYC            IQCMAX          10D-100           cycles  
       QC_MAXSCFCY          IQCMSC          10D- 15           cycles  
       QC_RTRUST            IQCRTR          10D-  0           x 10-3  
       QC_SKIPSCF           IQCSKI         OFF         [  0]    ***   
       QC_START             IQCSTA          10D-  1             ***   
       QRHFGUESS            IQGUES         OFF         [  0]    ***   
       QUARTIC              IQUART         OFF         [  0]    ***   
       RAMAN_INT            IRAMIN         OFF         [  0]    ***   
       RAMAN_ORB            IRAMRE         UNRELAXED   [  0]    ***   
       RDO                  IRDOFM         ON          [  1]    ***   
       REDUCE_REPR          REDREP         Ir          [  0]    ***   
       REFERENCE            IREFNC         RHF         [  0]    ***   
       RELATIVIST           IRELAT         OFF         [  0]    ***   
       RELAX_DENS           IRDENS         ON          [  1]    ***   
       RESET_FLAGS          IRESET         OFF         [  0]    ***   
       RESTART_CC           ICCRES         OFF         [  0]    ***   
       ROT_EVEC             ROTVEC              0               ***   
       SAVE_INTS            ISVINT         OFF         [  0]    ***   
       SCALE_ON             ISTCRT              0               ***   
       SCF_CONV             ISCFCV          10D- 10             ***   
       SCF_DAMPING          IDAMP               0             x 10-3  
       SCF_EXPORDE          IRPPOR              6               ***   
       SCF_EXPSTAR          IRPPLS              8               ***   
       SCF_EXTRAPO          IRPP           ON          [  1]    ***   
       SCF_MAXCYC           ISCFCY            150              cycles 
       SCF_NOSTOP           ISCFST         OFF         [  0]    ***   
       SCF_PRINT            ISCFPR              0               ***   
       SCF_PROG             ISCFPR         SCF         [  0]    ***   
       SD_FIELD             IFINSD              0             x 10-6  
       SOPERT               IPERSO         OFF         [  0]    ***   
       SPHERICAL            IDFGHI         ON          [  1]    ***   
       SPINORBIT            ISOCAL         OFF         [  0]    ***   
       SPINROTATIO          ISRCON         OFF         [  0]    ***   
       SPIN_FLIP            ISPFLP         OFF         [  0]    ***   
       SPIN_ORBIT           ISPORB         OFF         [  0]    ***   
       SPIN_SCAL            ISCSMP         OFF         [  0]    ***   
       STEEPSCALE           ISTPSC              1000          x 10-3  
       SUBGROUP             ISUBGP         DEFAULT     [  0]    ***   
       SUBGRPAXIS           ISBXYZ         X           [  0]    ***   
       SYMMETRY             ISYM           ON          [  0]    ***   
       SYM_CHECK            ISYMCK         OVERRIDE    [  1]    ***   
       T3_EXTRAPOL          IT3EXT         OFF         [  0]    ***   
       T4_EXTRAPOL          IT4EXP         OFF         [  0]    ***   
       TAMP_SUM             IEVERY              5               ***   
       TESTSUITE            ITESTS         OFF         [  0]    ***   
       THERMOCH             ITHERM         OFF         [  0]    ***   
       TOL_CHOLESK          ITOLCH          10D-  4             ***   
       TRANGRAD             IRESRM         OFF         [  0]    ***   
       TRANS_INV            ITRAIN         IGNORE      [  1]    ***   
       TREAT_PERT           ITREAT         SIMULTANEOUS[  0]    ***   
       TRIP_ALGORI          ITRALG         NORMAL      [  0]    ***   
       UIJ_THRESHO          IUIJTH              1               ***   
       UNITS                IUNITS         ANGSTROM    [  0]    ***   
       UNOS                 IUNOS          OFF         [  0]    ***   
       UPDATE_HESS          IHUPDT         ON          [  1]    ***   
       VIBPHASE             ISETPH         STANDARD    [  0]    ***   
       VIBRATION            IVIB           ANALYTIC    [  1]    ***   
       VIB_ALGORIT          IGEALG         STANDARD    [  0]    ***   
       VNATORB              IVNORB         OFF         [  0]    ***   
       VTRAN                IVTRAN         FULL/PARTIAL[  0]    ***   
       XFIELD               IXEFLD              0             x 10-6  
       XFORM_TOL            IXFTOL          10D- 11             ***   
       YFIELD               IYEFLD              0             x 10-6  
       ZFIELD               IZEFLD            200             x 10-6  
       ZSCALE_EXP           IZEXPS         OFF         [  0]    ***   
    -------------------------------------------------------------------
   2 entries found in Z-matrix 
   Job Title : Carbon Monoxide DBOC calculation                                                
   There are  1 unique internal coordinates.
   Of these,  0 will be optimized.
   User supplied Z-matrix: 
--------------------------------------------------------------------------------
       SYMBOL    BOND      LENGTH    ANGLE     ANGLE     DIHED     ANGLE
                  TO      (ANGST)    WRT      (DEG)      WRT      (DEG)
--------------------------------------------------------------------------------
        C    
        O          1         r    
                  *Initial values for internal coordinates* 
                      Name             Value
                        r               1.0862068966
--------------------------------------------------------------------------------
  read isotopes from ZMAT file 
   Rotational constants (in cm-1): 
          2.0839505929             2.0839505929
   Rotational constants (in MHz): 
      62475.2758133490         62475.2758133490
********************************************************************************
   The full molecular point group is CXv .
   The largest Abelian subgroup of the full molecular point group is C2v .
   The computational point group is C2v .
********************************************************************************
--------------------------------------------------------------------------------
   Analysis of internal coordinates specified by Z-matrix 
--------------------------------------------------------------------------------
   *The nuclear repulsion energy is   23.384588038095234 a.u.
   *There is   1 degree of freedom within the tot. symm. molecular subspace.
   *Z-matrix requests optimization of   0 coordinates.
   *The optimization is constrained.
   *The following   1 parameters can have non-zero 
    derivatives within the totally symmetric subspace:
             r    [ 1]
   *The following   0 parameters are to be optimized:

   *The following coordinates must be varied in an  unconstrained optimization.
             r    [ 1]
--------------------------------------------------------------------------------


 ----------------------------------------------------------------
         Coordinates used in calculation (QCOMP) 
 ----------------------------------------------------------------
 Z-matrix   Atomic            Coordinates (in bohr)
  Symbol    Number           X              Y              Z
 ----------------------------------------------------------------
     C         6        -0.00000000     0.00000000     1.17277390
     O         8         0.00000000     0.00000000    -0.87986008
 ----------------------------------------------------------------
 
   Interatomic distance matrix (Angstroms) 
 
                 C             O    
                [ 1]        [ 2]
  C    [ 1]     0.00000
  O    [ 2]     1.08621     0.00000
 rotcon2
   Rotational constants (in cm-1): 
          2.0839505929             0.0000000000
   Rotational constants (in MHz): 
      62475.2758133490             0.0000000000
  ECPDATA file not present.   Using default ECPDATA. 
  @GTFLGS-I, Hessian will be transformed to curvilinear coordinates.
  There are  218 basis functions.
 @CHECKOUT-I, Total execution time (CPU/WALL):        0.10/       0.14 seconds.
--executable xjoda finished with status     0 in        0.15 seconds (walltime).
 --invoking executable--
/nfs/workspaces/public/cfour_mpi/bin/xvmol
 SERIAL VERSION OF MOLECULE STARTED
********************************************************************************
                    INPUT FROM MOL FILE
********************************************************************************
INTGRL        1    0    1    0    0    0    0    0    0                         
         *** CFOUR Program System (Release V0.1) ***                            
Carbon Monoxide DBOC calculation                                                
    2    2 X  Y       0.10E-08              0    0                              
   9999.00      3.00                                                            
          6.00000000    1    5    1    1    1    1    1                         
C #1  -0.000000000000000   0.000000000000000   1.172773901981886                
   16    9                                                                      
   33980.0000000000       9.100000000000000E-005 -1.900000000000000E-005        
  0.000000000000000E+000  0.000000000000000E+000  0.000000000000000E+000        
  0.000000000000000E+000  0.000000000000000E+000  0.000000000000000E+000        
  0.000000000000000E+000                                                        
   5089.00000000000       7.040000000000000E-004 -1.510000000000000E-004        
  0.000000000000000E+000  0.000000000000000E+000  0.000000000000000E+000        
  0.000000000000000E+000  0.000000000000000E+000  0.000000000000000E+000        
  0.000000000000000E+000                                                        
   1157.00000000000       3.693000000000000E-003 -7.850000000000000E-004        
  0.000000000000000E+000  0.000000000000000E+000  0.000000000000000E+000        
  0.000000000000000E+000  0.000000000000000E+000  0.000000000000000E+000        
  0.000000000000000E+000                                                        
   326.600000000000       1.536000000000000E-002 -3.324000000000000E-003        
  0.000000000000000E+000  0.000000000000000E+000  0.000000000000000E+000        
  0.000000000000000E+000  0.000000000000000E+000  0.000000000000000E+000        
  0.000000000000000E+000                                                        
   106.100000000000       5.292900000000000E-002 -1.151200000000000E-002        
  0.000000000000000E+000  0.000000000000000E+000  0.000000000000000E+000        
  0.000000000000000E+000  0.000000000000000E+000  0.000000000000000E+000        
  0.000000000000000E+000                                                        
   38.1100000000000       0.147043000000000      -3.416000000000000E-002        
  0.000000000000000E+000  0.000000000000000E+000  0.000000000000000E+000        
  0.000000000000000E+000  0.000000000000000E+000  0.000000000000000E+000        
  0.000000000000000E+000                                                        
   14.7500000000000       0.305631000000000      -7.717300000000001E-002        
  0.000000000000000E+000  0.000000000000000E+000  0.000000000000000E+000        
  0.000000000000000E+000  0.000000000000000E+000  0.000000000000000E+000        
  0.000000000000000E+000                                                        
   6.03500000000000       0.399345000000000      -0.141493000000000             
  0.000000000000000E+000  0.000000000000000E+000  0.000000000000000E+000        
  0.000000000000000E+000  0.000000000000000E+000  0.000000000000000E+000        
  0.000000000000000E+000                                                        
   2.53000000000000       0.217051000000000      -0.118019000000000             
  0.000000000000000E+000  0.000000000000000E+000  0.000000000000000E+000        
  0.000000000000000E+000  0.000000000000000E+000  0.000000000000000E+000        
  0.000000000000000E+000                                                        
  0.735500000000000       1.589400000000000E-002  0.273806000000000             
   1.00000000000000       0.000000000000000E+000  0.000000000000000E+000        
  0.000000000000000E+000  0.000000000000000E+000  0.000000000000000E+000        
  0.000000000000000E+000                                                        
  0.290500000000000      -3.084000000000000E-003  0.586510000000000             
  0.000000000000000E+000   1.00000000000000       0.000000000000000E+000        
  0.000000000000000E+000  0.000000000000000E+000  0.000000000000000E+000        
  0.000000000000000E+000                                                        
  0.111100000000000       9.779999999999999E-004  0.285430000000000             
  0.000000000000000E+000  0.000000000000000E+000   1.00000000000000             
  0.000000000000000E+000  0.000000000000000E+000  0.000000000000000E+000        
  0.000000000000000E+000                                                        
   7.21600000000000       0.000000000000000E+000  0.000000000000000E+000        
  0.000000000000000E+000  0.000000000000000E+000  0.000000000000000E+000        
   1.00000000000000       0.000000000000000E+000  0.000000000000000E+000        
  0.000000000000000E+000                                                        
   19.5700000000000       0.000000000000000E+000  0.000000000000000E+000        
  0.000000000000000E+000  0.000000000000000E+000  0.000000000000000E+000        
  0.000000000000000E+000   1.00000000000000       0.000000000000000E+000        
  0.000000000000000E+000                                                        
   53.0730000000000       0.000000000000000E+000  0.000000000000000E+000        
  0.000000000000000E+000  0.000000000000000E+000  0.000000000000000E+000        
  0.000000000000000E+000  0.000000000000000E+000   1.00000000000000             
  0.000000000000000E+000                                                        
  4.145000000000000E-002  0.000000000000000E+000  0.000000000000000E+000        
  0.000000000000000E+000  0.000000000000000E+000  0.000000000000000E+000        
  0.000000000000000E+000  0.000000000000000E+000  0.000000000000000E+000        
   1.00000000000000                                                             
   10    8                                                                      
   34.5100000000000       5.378000000000000E-003  0.000000000000000E+000        
  0.000000000000000E+000  0.000000000000000E+000  0.000000000000000E+000        
  0.000000000000000E+000  0.000000000000000E+000  0.000000000000000E+000        
   7.91500000000000       3.613200000000000E-002  0.000000000000000E+000        
  0.000000000000000E+000  0.000000000000000E+000  0.000000000000000E+000        
  0.000000000000000E+000  0.000000000000000E+000  0.000000000000000E+000        
   2.36800000000000       0.142493000000000       0.000000000000000E+000        
  0.000000000000000E+000  0.000000000000000E+000  0.000000000000000E+000        
  0.000000000000000E+000  0.000000000000000E+000  0.000000000000000E+000        
  0.813200000000000       0.342150000000000        1.00000000000000             
  0.000000000000000E+000  0.000000000000000E+000  0.000000000000000E+000        
  0.000000000000000E+000  0.000000000000000E+000  0.000000000000000E+000        
  0.289000000000000       0.463864000000000       0.000000000000000E+000        
   1.00000000000000       0.000000000000000E+000  0.000000000000000E+000        
  0.000000000000000E+000  0.000000000000000E+000  0.000000000000000E+000        
  0.100700000000000       0.250028000000000       0.000000000000000E+000        
  0.000000000000000E+000   1.00000000000000       0.000000000000000E+000        
  0.000000000000000E+000  0.000000000000000E+000  0.000000000000000E+000        
   8.18200000000000       0.000000000000000E+000  0.000000000000000E+000        
  0.000000000000000E+000  0.000000000000000E+000   1.00000000000000             
  0.000000000000000E+000  0.000000000000000E+000  0.000000000000000E+000        
   24.1860000000000       0.000000000000000E+000  0.000000000000000E+000        
  0.000000000000000E+000  0.000000000000000E+000  0.000000000000000E+000        
   1.00000000000000       0.000000000000000E+000  0.000000000000000E+000        
   71.4940000000000       0.000000000000000E+000  0.000000000000000E+000        
  0.000000000000000E+000  0.000000000000000E+000  0.000000000000000E+000        
  0.000000000000000E+000   1.00000000000000       0.000000000000000E+000        
  3.218000000000000E-002  0.000000000000000E+000  0.000000000000000E+000        
  0.000000000000000E+000  0.000000000000000E+000  0.000000000000000E+000        
  0.000000000000000E+000  0.000000000000000E+000   1.00000000000000             
    6    6                                                                      
   1.84800000000000        1.00000000000000       0.000000000000000E+000        
  0.000000000000000E+000  0.000000000000000E+000  0.000000000000000E+000        
  0.000000000000000E+000                                                        
  0.649000000000000       0.000000000000000E+000   1.00000000000000             
  0.000000000000000E+000  0.000000000000000E+000  0.000000000000000E+000        
  0.000000000000000E+000                                                        
  0.228000000000000       0.000000000000000E+000  0.000000000000000E+000        
   1.00000000000000       0.000000000000000E+000  0.000000000000000E+000        
  0.000000000000000E+000                                                        
   8.65600000000000       0.000000000000000E+000  0.000000000000000E+000        
  0.000000000000000E+000   1.00000000000000       0.000000000000000E+000        
  0.000000000000000E+000                                                        
   33.2130000000000       0.000000000000000E+000  0.000000000000000E+000        
  0.000000000000000E+000  0.000000000000000E+000   1.00000000000000             
  0.000000000000000E+000                                                        
  7.660000000000000E-002  0.000000000000000E+000  0.000000000000000E+000        
  0.000000000000000E+000  0.000000000000000E+000  0.000000000000000E+000        
   1.00000000000000                                                             
    4    4                                                                      
   1.41900000000000        1.00000000000000       0.000000000000000E+000        
  0.000000000000000E+000  0.000000000000000E+000                                
  0.485000000000000       0.000000000000000E+000   1.00000000000000             
  0.000000000000000E+000  0.000000000000000E+000                                
   24.6940000000000       0.000000000000000E+000  0.000000000000000E+000        
   1.00000000000000       0.000000000000000E+000                                
  0.187000000000000       0.000000000000000E+000  0.000000000000000E+000        
  0.000000000000000E+000   1.00000000000000                                     
    2    2                                                                      
   1.01100000000000        1.00000000000000       0.000000000000000E+000        
  0.424000000000000       0.000000000000000E+000   1.00000000000000             
          8.00000000    1    5    1    1    1    1    1                         
O #2   0.000000000000000   0.000000000000000  -0.879860077364016                
   16    9                                                                      
   61420.0000000000       9.000000000000001E-005 -2.000000000000000E-005        
  0.000000000000000E+000  0.000000000000000E+000  0.000000000000000E+000        
  0.000000000000000E+000  0.000000000000000E+000  0.000000000000000E+000        
  0.000000000000000E+000                                                        
   9199.00000000000       6.980000000000001E-004 -1.590000000000000E-004        
  0.000000000000000E+000  0.000000000000000E+000  0.000000000000000E+000        
  0.000000000000000E+000  0.000000000000000E+000  0.000000000000000E+000        
  0.000000000000000E+000                                                        
   2091.00000000000       3.664000000000000E-003 -8.290000000000000E-004        
  0.000000000000000E+000  0.000000000000000E+000  0.000000000000000E+000        
  0.000000000000000E+000  0.000000000000000E+000  0.000000000000000E+000        
  0.000000000000000E+000                                                        
   590.900000000000       1.521800000000000E-002 -3.508000000000000E-003        
  0.000000000000000E+000  0.000000000000000E+000  0.000000000000000E+000        
  0.000000000000000E+000  0.000000000000000E+000  0.000000000000000E+000        
  0.000000000000000E+000                                                        
   192.300000000000       5.242300000000000E-002 -1.215600000000000E-002        
  0.000000000000000E+000  0.000000000000000E+000  0.000000000000000E+000        
  0.000000000000000E+000  0.000000000000000E+000  0.000000000000000E+000        
  0.000000000000000E+000                                                        
   69.3200000000000       0.145921000000000      -3.626100000000000E-002        
  0.000000000000000E+000  0.000000000000000E+000  0.000000000000000E+000        
  0.000000000000000E+000  0.000000000000000E+000  0.000000000000000E+000        
  0.000000000000000E+000                                                        
   26.9700000000000       0.305258000000000      -8.299200000000000E-002        
  0.000000000000000E+000  0.000000000000000E+000  0.000000000000000E+000        
  0.000000000000000E+000  0.000000000000000E+000  0.000000000000000E+000        
  0.000000000000000E+000                                                        
   11.1000000000000       0.398508000000000      -0.152090000000000             
  0.000000000000000E+000  0.000000000000000E+000  0.000000000000000E+000        
  0.000000000000000E+000  0.000000000000000E+000  0.000000000000000E+000        
  0.000000000000000E+000                                                        
   4.68200000000000       0.216980000000000      -0.115331000000000             
  0.000000000000000E+000  0.000000000000000E+000  0.000000000000000E+000        
  0.000000000000000E+000  0.000000000000000E+000  0.000000000000000E+000        
  0.000000000000000E+000                                                        
   1.42800000000000       1.759400000000000E-002  0.288979000000000             
   1.00000000000000       0.000000000000000E+000  0.000000000000000E+000        
  0.000000000000000E+000  0.000000000000000E+000  0.000000000000000E+000        
  0.000000000000000E+000                                                        
  0.554700000000000      -2.502000000000000E-003  0.586128000000000             
  0.000000000000000E+000   1.00000000000000       0.000000000000000E+000        
  0.000000000000000E+000  0.000000000000000E+000  0.000000000000000E+000        
  0.000000000000000E+000                                                        
  0.206700000000000       9.540000000000000E-004  0.277624000000000             
  0.000000000000000E+000  0.000000000000000E+000   1.00000000000000             
  0.000000000000000E+000  0.000000000000000E+000  0.000000000000000E+000        
  0.000000000000000E+000                                                        
   12.9740000000000       0.000000000000000E+000  0.000000000000000E+000        
  0.000000000000000E+000  0.000000000000000E+000  0.000000000000000E+000        
   1.00000000000000       0.000000000000000E+000  0.000000000000000E+000        
  0.000000000000000E+000                                                        
   34.9000000000000       0.000000000000000E+000  0.000000000000000E+000        
  0.000000000000000E+000  0.000000000000000E+000  0.000000000000000E+000        
  0.000000000000000E+000   1.00000000000000       0.000000000000000E+000        
  0.000000000000000E+000                                                        
   93.8810000000000       0.000000000000000E+000  0.000000000000000E+000        
  0.000000000000000E+000  0.000000000000000E+000  0.000000000000000E+000        
  0.000000000000000E+000  0.000000000000000E+000   1.00000000000000             
  0.000000000000000E+000                                                        
  6.959000000000000E-002  0.000000000000000E+000  0.000000000000000E+000        
  0.000000000000000E+000  0.000000000000000E+000  0.000000000000000E+000        
  0.000000000000000E+000  0.000000000000000E+000  0.000000000000000E+000        
   1.00000000000000                                                             
   10    8                                                                      
   63.4200000000000       6.044000000000000E-003  0.000000000000000E+000        
  0.000000000000000E+000  0.000000000000000E+000  0.000000000000000E+000        
  0.000000000000000E+000  0.000000000000000E+000  0.000000000000000E+000        
   14.6600000000000       4.179900000000000E-002  0.000000000000000E+000        
  0.000000000000000E+000  0.000000000000000E+000  0.000000000000000E+000        
  0.000000000000000E+000  0.000000000000000E+000  0.000000000000000E+000        
   4.45900000000000       0.161143000000000       0.000000000000000E+000        
  0.000000000000000E+000  0.000000000000000E+000  0.000000000000000E+000        
  0.000000000000000E+000  0.000000000000000E+000  0.000000000000000E+000        
   1.53100000000000       0.356731000000000        1.00000000000000             
  0.000000000000000E+000  0.000000000000000E+000  0.000000000000000E+000        
  0.000000000000000E+000  0.000000000000000E+000  0.000000000000000E+000        
  0.530200000000000       0.448309000000000       0.000000000000000E+000        
   1.00000000000000       0.000000000000000E+000  0.000000000000000E+000        
  0.000000000000000E+000  0.000000000000000E+000  0.000000000000000E+000        
  0.175000000000000       0.244940000000000       0.000000000000000E+000        
  0.000000000000000E+000   1.00000000000000       0.000000000000000E+000        
  0.000000000000000E+000  0.000000000000000E+000  0.000000000000000E+000        
   14.4750000000000       0.000000000000000E+000  0.000000000000000E+000        
  0.000000000000000E+000  0.000000000000000E+000   1.00000000000000             
  0.000000000000000E+000  0.000000000000000E+000  0.000000000000000E+000        
   42.7300000000000       0.000000000000000E+000  0.000000000000000E+000        
  0.000000000000000E+000  0.000000000000000E+000  0.000000000000000E+000        
   1.00000000000000       0.000000000000000E+000  0.000000000000000E+000        
   126.140000000000       0.000000000000000E+000  0.000000000000000E+000        
  0.000000000000000E+000  0.000000000000000E+000  0.000000000000000E+000        
  0.000000000000000E+000   1.00000000000000       0.000000000000000E+000        
  5.348000000000000E-002  0.000000000000000E+000  0.000000000000000E+000        
  0.000000000000000E+000  0.000000000000000E+000  0.000000000000000E+000        
  0.000000000000000E+000  0.000000000000000E+000   1.00000000000000             
    6    6                                                                      
   3.77500000000000        1.00000000000000       0.000000000000000E+000        
  0.000000000000000E+000  0.000000000000000E+000  0.000000000000000E+000        
  0.000000000000000E+000                                                        
   1.30000000000000       0.000000000000000E+000   1.00000000000000             
  0.000000000000000E+000  0.000000000000000E+000  0.000000000000000E+000        
  0.000000000000000E+000                                                        
  0.444000000000000       0.000000000000000E+000  0.000000000000000E+000        
   1.00000000000000       0.000000000000000E+000  0.000000000000000E+000        
  0.000000000000000E+000                                                        
   14.9270000000000       0.000000000000000E+000  0.000000000000000E+000        
  0.000000000000000E+000   1.00000000000000       0.000000000000000E+000        
  0.000000000000000E+000                                                        
   57.5440000000000       0.000000000000000E+000  0.000000000000000E+000        
  0.000000000000000E+000  0.000000000000000E+000   1.00000000000000             
  0.000000000000000E+000                                                        
  0.154000000000000       0.000000000000000E+000  0.000000000000000E+000        
  0.000000000000000E+000  0.000000000000000E+000  0.000000000000000E+000        
   1.00000000000000                                                             
    4    4                                                                      
   2.66600000000000        1.00000000000000       0.000000000000000E+000        
  0.000000000000000E+000  0.000000000000000E+000                                
  0.859000000000000       0.000000000000000E+000   1.00000000000000             
  0.000000000000000E+000  0.000000000000000E+000                                
   26.4830000000000       0.000000000000000E+000  0.000000000000000E+000        
   1.00000000000000       0.000000000000000E+000                                
  0.324000000000000       0.000000000000000E+000  0.000000000000000E+000        
  0.000000000000000E+000   1.00000000000000                                     
    2    2                                                                      
   1.84600000000000        1.00000000000000       0.000000000000000E+000        
  0.714000000000000       0.000000000000000E+000   1.00000000000000             
FINISH                                                                          
 
********************************************************************************
 ONE- AND TWO-ELECTRON INTEGRALS OVER SYMMETRY-ADAPTED AOS ARE CALCULATED.

  SPHERICAL HARMONICS ARE USED.
  
  INTEGRALS LESS THAN  0.10E-13 ARE NEGLECTED.

  NUCLEAR REPULSION ENERGY :   23.3845880381 A.U.
  @MOLECU-I, ONE ELECTRON INTEGRALS (CPU/WALL):        0.06/       0.07 SECONDS.
  @TWOEL-I,    4616501 INTEGRALS OF SYMMETRY TYPE  I I I I
  @TWOEL-I,   19798951 INTEGRALS OF SYMMETRY TYPE  I J I J
  @TWOEL-I,   10434826 INTEGRALS OF SYMMETRY TYPE  I I J J
  @TWOEL-I,   14642789 INTEGRALS OF SYMMETRY TYPE  I J K L
  @TWOEL-I, TOTAL NUMBER OF 2-E INTEGRALS   49493067.
  @MOLECU-I, TWO ELECTRON INTEGRALS (CPU/WALL):      200.89/      28.48 SECONDS.
 @CHECKOUT-I, Total execution time (CPU/WALL):      200.96/      28.57 seconds.

Running with 14 threads/proc

--executable xvmol finished with status     0 in       28.58 seconds (walltime).
 --invoking executable--
/nfs/workspaces/public/cfour_mpi/bin/xvmol2ja
 @GETMEM-I,  Allocated    3814 MB of main memory.
 @CHECKOUT-I, Total execution time (CPU/WALL):        0.22/       0.06 seconds.
--executable xvmol2ja finished with status     0 in        0.07 seconds (walltime).
 --invoking executable--
/nfs/workspaces/public/cfour_mpi/bin/xvprop
 @GETMEM-I,  Allocated    3814 MB of main memory.
   Property integrals will be calculated.
    --------------------------------------------------------------
                                   Property evaluated at 
    Property type                X             Y             Z
    --------------------------------------------------------------
    Dipole moment               ----          ----          ----  
    Quadrupole moment           ----          ----          ----  
    Octopole moment             ----          ----          ----  
    Relativisitic corr.         ----          ----          ----  
    Second moment            0.0000000     0.0000000     0.0000000
    Electron density         0.0000000     0.0000000     1.1727739
    Electron density         0.0000000     0.0000000    -0.8798601
    Field gradient           0.0000000     0.0000000     1.1727739
    Field gradient           0.0000000     0.0000000    -0.8798601
    Potential                0.0000000     0.0000000     1.1727739
    Potential                0.0000000     0.0000000    -0.8798601
    --------------------------------------------------------------
 @CHECKOUT-I, Total execution time (CPU/WALL):        1.41/       1.47 seconds.
--executable xvprop finished with status     0 in        1.48 seconds (walltime).
 --invoking executable--
/nfs/workspaces/public/cfour_mpi/bin/xvscf
  There are  218 functions in the AO basis.

  There are 4 irreducible representations.

       Irrep        # of functions
         1                 86
         2                 52
         3                 52
         4                 28


  Parameters for SCF calculation: 
        SCF reference function:  RHF  
  Maximum number of iterations:  150
     Full symmetry point group: CXv 
     Computational point group: C2v 
        Initial density matrix: MOREAD                 
     SCF convergence tolerance: 10**(-10)
  DIIS convergence acceleration:  ON
          Latest start for DIIS:   8
                     DIIS order:   6

  Memory information:    2523578 words required.
  Fock matrices are constructed from AO integral file.
 @GETMEM-I,  Allocated      19 MB of main memory.
  Initialization and symmetry analysis required      0.001 seconds.

  Adding electric field perturbation to one-electron Hamiltonian.
  Field direction     : Z
  Field strength      :  0.0002000 a.u.

  @INITGES-I, Occupancies from core Hamiltonian:

          Alpha population by irrep:   5    1    1    0
           Beta population by irrep:   5    1    1    0


 total no. of electrons in initial guess :  0.000000000000000E+000
  --------------------------------------------------------------------
  Iteration         Total Energy            Largest Density Difference
  --------------------------------------------------------------------
       0            23.384588485536636              0.0000000000D+00
   current occupation vector 
     5  1  1  0
     5  1  1  0
       1           -91.445336797754109              0.1900584965D+02
   current occupation vector 
     5  1  1  0
     5  1  1  0
       2           -95.370820876978883              0.4514302104D+02
   current occupation vector 
     5  1  1  0
     5  1  1  0
       3          -103.234387424237525              0.4512381674D+02
   current occupation vector 
     5  1  1  0
     5  1  1  0
       4          -100.538305424403177              0.8432574851D+01
   current occupation vector 
     5  1  1  0
     5  1  1  0
       5          -104.072173361367504              0.8419557618D+01
   current occupation vector 
     5  1  1  0
     5  1  1  0
       6          -101.238310299887473              0.5766632000D+01
   current occupation vector 
     5  1  1  0
     5  1  1  0
       7          -103.599032426843451              0.5445731790D+01
   current occupation vector 
     5  1  1  0
     5  1  1  0
       8          -100.782744940995499              0.5421523400D+01
   current occupation vector 
     5  1  1  0
     5  1  1  0
       9          -111.103923114936364              0.3986377651D+01
   current occupation vector 
     5  1  1  0
     5  1  1  0
      10          -112.427403176910431              0.9075141942D+00
   current occupation vector 
     5  1  1  0
     5  1  1  0
      11          -112.782348829807873              0.4579103722D+00
   current occupation vector 
     5  1  1  0
     5  1  1  0
      12          -112.790065539335146              0.8254010033D-01
   current occupation vector 
     5  1  1  0
     5  1  1  0
      13          -112.790327989082400              0.1937688188D-01
   current occupation vector 
     5  1  1  0
     5  1  1  0
      14          -112.790373136551679              0.1077439238D-01
   current occupation vector 
     5  1  1  0
     5  1  1  0
      15          -112.790373932284425              0.1752455861D-02
   current occupation vector 
     5  1  1  0
     5  1  1  0
      16          -112.790373942873927              0.1258321217D-03
   current occupation vector 
     5  1  1  0
     5  1  1  0
      17          -112.790373943108946              0.2332155818D-04
   current occupation vector 
     5  1  1  0
     5  1  1  0
      18          -112.790373943117643              0.2931318755D-05
   current occupation vector 
     5  1  1  0
     5  1  1  0
      19          -112.790373943117871              0.7942303768D-06
   current occupation vector 
     5  1  1  0
     5  1  1  0
      20          -112.790373943117331              0.1002592509D-06
   current occupation vector 
     5  1  1  0
     5  1  1  0
      21          -112.790373943117302              0.9410525470D-08
   current occupation vector 
     5  1  1  0
     5  1  1  0
      22          -112.790373943117757              0.7772562594D-09
   current occupation vector 
     5  1  1  0
     5  1  1  0
      23          -112.790373943117501              0.1860194221D-09
   current occupation vector 
     5  1  1  0
     5  1  1  0
      24          -112.790373943118098              0.1414085515D-09
   current occupation vector 
     5  1  1  0
     5  1  1  0
      25          -112.790373943117586              0.2251288045D-09
   current occupation vector 
     5  1  1  0
     5  1  1  0
      26          -112.790373943117672              0.1545998884D-09
   current occupation vector 
     5  1  1  0
     5  1  1  0
      27          -112.790373943117416              0.3077551547D-09
   current occupation vector 
     5  1  1  0
     5  1  1  0
      28          -112.790373943117956              0.4345196980D-09
   current occupation vector 
     5  1  1  0
     5  1  1  0
      29          -112.790373943117871              0.6836633204D-09
   current occupation vector 
     5  1  1  0
     5  1  1  0
      30          -112.790373943117473              0.1664675064D-09
   current occupation vector 
     5  1  1  0
     5  1  1  0
      31          -112.790373943117473              0.1545672479D-09
   current occupation vector 
     5  1  1  0
     5  1  1  0

  SCF has converged.

 Density matrix saved to file den.dat
 total electron number:   13.9999999999998     
     E(SCF)=      -112.790373943118496              0.6875733316D-10

  Eigenvector printing suppressed.

 @PUTMOS-I, Writing converged MOs to NEWMOS. 
 @PUTMOS-I, Symmetry   1 Full Blocks 21 Partial Blocksize   2
 @PUTMOS-I, Symmetry   2 Full Blocks 13 Partial Blocksize   0
 @PUTMOS-I, Symmetry   3 Full Blocks 13 Partial Blocksize   0
 @PUTMOS-I, Symmetry   4 Full Blocks  7 Partial Blocksize   0
 @PUTFOCK-I, Writing converged Fock matrix to NEWFOCK. 
 @PUTFOCK-I, Symmetry   1 Full Blocks 21 Partial Blocksize   2
 @PUTFOCK-I, Symmetry   2 Full Blocks 13 Partial Blocksize   0
 @PUTFOCK-I, Symmetry   3 Full Blocks 13 Partial Blocksize   0
 @PUTFOCK-I, Symmetry   4 Full Blocks  7 Partial Blocksize   0


 
  ORBITAL EIGENVALUES (ALPHA)  (1H = 27.2113834 eV)

       MO #        E(hartree)               E(eV)           FULLSYM    COMPSYM
       ----   --------------------   --------------------   -------   ---------
    1     1         -20.6631584623        -562.2731271736     SG+        A1 (1)
    2     2         -11.3410003050        -308.6043074396     SG+        A1 (1)
    3     3          -1.5512475500         -42.2115918321     SG+        A1 (1)
    4     4          -0.8084273323         -21.9984260900     SG+        A1 (1)
    5    87          -0.6593518667         -17.9418764408      PI        B1 (2)
    6   139          -0.6593518667         -17.9418764408      PI        B2 (3)
    7     5          -0.5494359871         -14.9509133000     SG+        A1 (1)
  +++++++++++++++++++++++++++++++++++++++++++++++++++++++++++++++++++++++++++++
    8     6           0.0588675528           1.6018675494     SG+        A1 (1)
    9   140           0.0642786694           1.7491115172      PI        B2 (3)
   10    88           0.0642786694           1.7491115172      PI        B1 (2)
   11     7           0.0764222261           2.0795544944     SG+        A1 (1)
   12   141           0.1492165468           4.0603886637      PI        B2 (3)
   13    89           0.1492165468           4.0603886638      PI        B1 (2)
   14     8           0.1558732031           4.2415254921     SG+        A1 (1)
   15   142           0.1702904249           4.6338380422      PI        B2 (3)
   16    90           0.1702904249           4.6338380422      PI        B1 (2)
   17     9           0.2275862451           6.1929365730     SG+        A1 (1)
   18   191           0.2281897247           6.2093580878      DE        A2 (4)
   19    10           0.2281897247           6.2093580878      DE        A1 (1)
   20    11           0.3019972117           8.2177619137     SG+        A1 (1)
   21   143           0.3259358046           8.8691641420      PI        B2 (3)
   22    91           0.3259358046           8.8691641421      PI        B1 (2)
   23    12           0.3937549307          10.7146163847     SG+        A1 (1)
   24   144           0.3968796201          10.7996435052      PI        B2 (3)
   25    92           0.3968796201          10.7996435052      PI        B1 (2)
   26    13           0.5079053072          13.8208060447     SG+        A1 (1)
   27    14           0.5315462386          14.4641084930      DE        A1 (1)
   28   192           0.5315462386          14.4641084930      DE        A2 (4)
   29   145           0.6214504400          16.9105261877      PI        B2 (3)
   30    93           0.6214504400          16.9105261877      PI        B1 (2)
   31    15           0.6543483574          17.8057240294     SG+        A1 (1)
   32    94           0.7497145166          20.4007691529      PH        B1 (2)
   33   146           0.7497145166          20.4007691529      PH        B2 (3)
   34    16           0.7701192449          20.9560100363      DE        A1 (1)
   35   193           0.7701192449          20.9560100363      DE        A2 (4)
   36    17           0.7815027944          21.2657721673     SG+        A1 (1)
   37   147           0.8291666017          22.5627703021      PI        B2 (3)
   38    95           0.8291666017          22.5627703021      PI        B1 (2)
   39    18           0.8743519458          23.7923260239     SG+        A1 (1)
   40   148           0.8780209017          23.8921633885      PI        B2 (3)
   41    96           0.8780209017          23.8921633885      PI        B1 (2)
   42   194           0.8942641594          24.3341649018      DE        A2 (4)
   43    19           0.8942641594          24.3341649018      DE        A1 (1)
   44    20           0.9297358446          25.2993985275     SG+        A1 (1)
   45   149           1.0873739360          29.5889490717      PI        B2 (3)
   46    97           1.0873739360          29.5889490717      PI        B1 (2)
   47    21           1.2319348731          33.5226521550     SG+        A1 (1)
   48   150           1.4504952395          39.4699820811      PH        B2 (3)
   49    98           1.4504952395          39.4699820811      PH        B1 (2)
   50    22           1.4939410972          40.6522039741     SG+        A1 (1)
   51   195           1.5112083571          41.1220700023      DE        A2 (4)
   52    23           1.5112083571          41.1220700023      DE        A1 (1)
   53   151           1.5466929714          42.0876554470      PI        B2 (3)
   54    99           1.5466929714          42.0876554470      PI        B1 (2)
   55    24           1.6641780522          45.2845870242     SG+        A1 (1)
   56    25           1.7595768930          47.8805214572     SG+        A1 (1)
   57   196           1.7732533480          48.2526767169      DE        A2 (4)
   58    26           1.7732533480          48.2526767169      DE        A1 (1)
   59   152           1.8376050086          50.0037744261      PI        B2 (3)
   60   100           1.8376050086          50.0037744261      PI        B1 (2)
   61   153           1.9531944963          53.1491242933      PI        B2 (3)
   62   101           1.9531944963          53.1491242933      PI        B1 (2)
   63   197           2.1085733789          57.3771986400      PI        A2 (4)
   64    27           2.1085733789          57.3771986400      PI        A1 (1)
   65    28           2.1618158690          58.8260004522     SG+        A1 (1)
   66    29           2.2053112846          60.0095708809      DE        A1 (1)
   67   198           2.2053112846          60.0095708809      DE        A2 (4)
   68   102           2.2555460581          61.3765285622      PH        B1 (2)
   69   154           2.2555460581          61.3765285622      PH        B2 (3)
   70    30           2.3205444140          63.1452237463     SG+        A1 (1)
   71   155           2.3337185180          63.5037093418      PI        B2 (3)
   72   103           2.3337185180          63.5037093419      PI        B1 (2)
   73   199           2.3711422781          64.5220616256      DE        A2 (4)
   74    31           2.3711422781          64.5220616256      DE        A1 (1)
   75   156           2.3791771543          64.7407017212      PH        B2 (3)
   76   104           2.3791771543          64.7407017212      PH        B1 (2)
   77    32           2.4996254047          68.0182652435     SG+        A1 (1)
   78   157           2.6049442554          70.8841368700      PI        B2 (3)
   79   105           2.6049442554          70.8841368700      PI        B1 (2)
   80   158           2.8747678869          78.2264111552      PI        B2 (3)
   81   106           2.8747678869          78.2264111552      PI        B1 (2)
   82    33           3.0005585943          81.6493503223     SG+        A1 (1)
   83   200           3.0444670918          82.8441612833      DE        A2 (4)
   84    34           3.0444670918          82.8441612835      DE        A1 (1)
   85    35           3.4582161873          94.1028465532     SG+        A1 (1)
   86    36           3.7322513322         101.5597219458      PI        A1 (1)
   87   201           3.7322513322         101.5597219458      PI        A2 (4)
   88   159           3.7601080274         102.3177411590      PI        B2 (3)
   89   107           3.7601080274         102.3177411590      PI        B1 (2)
   90    37           3.9617799041         107.8055119162     SG+        A1 (1)
   91   108           4.0785192209         110.9821502237      PH        B1 (2)
   92   160           4.0785192209         110.9821502237      PH        B2 (3)
   93   202           4.1752829217         113.6152243868      DE        A2 (4)
   94    38           4.1752829217         113.6152243869      DE        A1 (1)
   95   161           4.2108828810         114.5839485269      PI        B2 (3)
   96   109           4.2108828810         114.5839485269      PI        B1 (2)
   97    39           4.2854476414         116.6129588102     SG+        A1 (1)
   98   162           4.3314750982         117.8654295856      PH        B2 (3)
   99   110           4.3314750982         117.8654295856      PH        B1 (2)
  100   203           4.4003793665         119.7404100476      DE        A2 (4)
  101    40           4.4003793665         119.7404100476      DE        A1 (1)
  102    41           4.6037498198         125.2744014232     SG+        A1 (1)
  103   163           4.7686835675         129.7624768674      PI        B2 (3)
  104   111           4.7686835675         129.7624768674      PI        B1 (2)
  105    42           4.9734445489         135.3343064375     SG+        A1 (1)
  106    43           5.1742163258         140.7975842372      DE        A1 (1)
  107   204           5.1742163259         140.7975842373      DE        A2 (4)
  108   164           5.1922020895         141.2870017479      PI        B2 (3)
  109   112           5.1922020895         141.2870017479      PI        B1 (2)
  110   165           5.8644110731         159.5787381267      PI        B2 (3)
  111   113           5.8644110732         159.5787381268      PI        B1 (2)
  112   205           5.9076191761         160.7544903830      PI        A2 (4)
  113    44           5.9076191761         160.7544903830      PI        A1 (1)
  114    45           6.0026476426         163.3403464180     SG+        A1 (1)
  115   166           6.1800661930         168.1681506142      PH        B2 (3)
  116   114           6.1800661930         168.1681506142      PH        B1 (2)
  117    46           6.2235928304         169.3525706328     SG+        A1 (1)
  118   206           6.3173544953         171.9039552452      DE        A2 (4)
  119    47           6.3173544953         171.9039552452      DE        A1 (1)
  120   167           6.3412934418         172.5553670964      PI        B2 (3)
  121   115           6.3412934418         172.5553670964      PI        B1 (2)
  122   116           6.4528793606         175.5917743141      PH        B1 (2)
  123   168           6.4528793606         175.5917743141      PH        B2 (3)
  124   207           6.6176767712         180.0761398394      DE        A2 (4)
  125    48           6.6176767712         180.0761398396      DE        A1 (1)
  126    49           7.1158072426         193.6309590776     SG+        A1 (1)
  127    50           7.5200596810         204.6312271703      DE        A1 (1)
  128   208           7.5200596810         204.6312271704      DE        A2 (4)
  129   169           7.5998260736         206.8017810614      PI        B2 (3)
  130   117           7.5998260736         206.8017810614      PI        B1 (2)
  131    51           7.8966824950         214.8796549606     SG+        A1 (1)
  132    52           8.3997339652         228.5683813846     SG+        A1 (1)
  133   170           8.6206395149         234.5795269936      PI        B2 (3)
  134   118           8.6206395149         234.5795269937      PI        B1 (2)
  135   119          10.1230087604         275.4610725421      PI        B1 (2)
  136   171          10.1230087605         275.4610725423      PI        B2 (3)
  137    53          10.3487211754         281.6030196026     SG+        A1 (1)
  138   209          10.6007113123         288.4600198304      PI        A2 (4)
  139    54          10.6007113123         288.4600198304      PI        A1 (1)
  140   172          10.9147503653         297.0054569059      PH        B2 (3)
  141   120          10.9147503653         297.0054569059      PH        B1 (2)
  142   210          11.1794841989         304.2092307499      DE        A2 (4)
  143    55          11.1794841989         304.2092307499      DE        A1 (1)
  144    56          11.2121161013         305.0971899589     SG+        A1 (1)
  145   173          11.3941316304         310.0500843038      PI        B2 (3)
  146   121          11.3941316304         310.0500843038      PI        B1 (2)
  147   174          11.8561561676         322.6224111259      PH        B2 (3)
  148   122          11.8561561676         322.6224111259      PH        B1 (2)
  149    57          11.8660540157         322.8917452664     SG+        A1 (1)
  150    58          12.3368388566         335.7024520717      DE        A1 (1)
  151   211          12.3368388566         335.7024520717      DE        A2 (4)
  152   123          12.7372918972         346.5993332921      PI        B1 (2)
  153   175          12.7372918972         346.5993332921      PI        B2 (3)
  154   212          12.9148586365         351.4311699156      DE        A2 (4)
  155    59          12.9148586365         351.4311699156      DE        A1 (1)
  156    60          13.5028972072         367.4325129152     SG+        A1 (1)
  157   176          14.4257245699         392.5439220943      PI        B2 (3)
  158   124          14.4257245699         392.5439220943      PI        B1 (2)
  159    61          15.7790297683         429.3692287048     SG+        A1 (1)
  160    62          18.1250584283         493.2079140399     SG+        A1 (1)
  161   125          19.4946408693         530.4761469391      PI        B1 (2)
  162   177          19.4946408693         530.4761469392      PI        B2 (3)
  163    63          20.8442395085         567.2005929462     SG+        A1 (1)
  164    64          26.5861182493         723.4450568004      DE        A1 (1)
  165   213          26.5861182493         723.4450568004      DE        A2 (4)
  166   126          27.1480832078         738.7369007433      PI        B1 (2)
  167   178          27.1480832078         738.7369007433      PI        B2 (3)
  168    65          28.4243730284         773.4665123796     SG+        A1 (1)
  169   127          33.8214173869         920.3275556451      PI        B1 (2)
  170   179          33.8214173869         920.3275556460      PI        B2 (3)
  171    66          35.1680100325         956.9702044094     SG+        A1 (1)
  172    67          37.0555157118        1008.3318451196     SG+        A1 (1)
  173   214          47.1378030580        1282.6848316457      DE        A2 (4)
  174    68          47.1378030580        1282.6848316457      DE        A1 (1)
  175   128          47.8487339460        1302.0302446083      PI        B1 (2)
  176   180          47.8487339460        1302.0302446083      PI        B2 (3)
  177    69          48.6816552100        1324.6951844672     SG+        A1 (1)
  178    70          64.3335480665        1750.6048419209     SG+        A1 (1)
  179   129          66.9288674722        1821.2270733148      PI        B1 (2)
  180   181          66.9288674722        1821.2270733150      PI        B2 (3)
  181    71          67.9473533382        1848.9414827013     SG+        A1 (1)
  182   182          98.6984310041        2685.7208470305      PH        B2 (3)
  183   130          98.6984310041        2685.7208470305      PH        B1 (2)
  184   215          98.7257313138        2686.4637262249      DE        A2 (4)
  185    72          98.7257313138        2686.4637262249      DE        A1 (1)
  186   183          98.8004340472        2688.4964909453      PI        B2 (3)
  187   131          98.8004340472        2688.4964909453      PI        B1 (2)
  188    73          98.8133024818        2688.8466588527     SG+        A1 (1)
  189   132         103.2867511573        2810.5753858821      PH        B1 (2)
  190   184         103.2867511573        2810.5753858821      PH        B2 (3)
  191   216         103.3434269613        2812.1176129147      DE        A2 (4)
  192    74         103.3434269614        2812.1176129175      DE        A1 (1)
  193   133         103.3739176835        2812.9473076451      PI        B1 (2)
  194   185         103.3739176835        2812.9473076451      PI        B2 (3)
  195    75         103.4484771799        2814.9761746884     SG+        A1 (1)
  196    76         115.2270188195        3135.4865871372      DE        A1 (1)
  197   217         115.2270188195        3135.4865871373      DE        A2 (4)
  198   134         115.5001363174        3142.9184920862      PI        B1 (2)
  199   186         115.5001363174        3142.9184920863      PI        B2 (3)
  200    77         116.1230656708        3159.8692615527     SG+        A1 (1)
  201   135         117.0663179653        3185.5364613801      PI        B1 (2)
  202   187         117.0663179653        3185.5364613811      PI        B2 (3)
  203    78         118.2929370337        3218.9144631357     SG+        A1 (1)
  204    79         123.0478190428        3348.3013805066     SG+        A1 (1)
  205   218         198.5905731456        5403.9242254902      DE        A2 (4)
  206    80         198.5905731456        5403.9242254902      DE        A1 (1)
  207   188         198.9780773083        5414.4687498306      PI        B2 (3)
  208   136         198.9780773083        5414.4687498306      PI        B1 (2)
  209    81         199.4038846904        5426.0555577586     SG+        A1 (1)
  210    82         216.8035731110        5899.5251504121     SG+        A1 (1)
  211   137         225.3342437028        6131.6564985451      PI        B1 (2)
  212   189         225.3342437028        6131.6564985454      PI        B2 (3)
  213    83         226.1619794697        6154.1803338538     SG+        A1 (1)
  214   138         395.5220548346       10762.7022772613      PI        B1 (2)
  215   190         395.5220548347       10762.7022772628      PI        B2 (3)
  216    84         396.4999339244       10789.3117200912     SG+        A1 (1)
  217    85         509.5439886399       13865.3968340459     SG+        A1 (1)
  218    86         895.6400521046       24371.6048462153     SG+        A1 (1)


  VSCF finished.

 @CHECKOUT-I, Total execution time (CPU/WALL):       57.17/      12.01 seconds.
--executable xvscf finished with status     0 in       12.03 seconds (walltime).
 --invoking executable--
/nfs/workspaces/public/cfour_mpi/bin/xvtran
 @GETMEM-I,  Allocated    3814 MB of main memory.
  Full RHF integral transformation
  Transformation of IIII integrals :
  1 pass through the AO integral file was required.
     4616501 AO integrals were read.
     8842660 MO integrals were written to HF2.
  Transformation of IIJJ integrals :
  1 pass through the AO integral file was required.
    10434826 AO integrals were read.
    14655574 MO integrals were written to HF2.
  Transformation of IJIJ integrals :
  1 pass through the AO integral file was required.
    19798951 AO integrals were read.
    27609457 MO integrals were written to HF2.
  Transformation of IJKL integrals :
  1 pass through the AO integral file was required.
    14642789 AO integrals were read.
    18657132 MO integrals were written to HF2.
  Summary of active molecular orbitals: 
------------------------------------------------------------------------
 
  Index      Eigenvalue    Symmetry    Index      Eigenvalue    Symmetry
------------------------------------------------------------------------
     1       -20.6631585        1       110         4.2108829        2
     2       -11.3410003        1       111         4.3314751        2
     3        -1.5512476        1       112         4.7686836        2
     4        -0.8084273        1       113         5.1922021        2
     5        -0.5494360        1       114         5.8644111        2
     6        -0.6593519        2       115         6.1800662        2
     7        -0.6593519        3       116         6.3412934        2
     8         0.0588676        1       117         6.4528794        2
     9         0.0764222        1       118         7.5998261        2
    10         0.1558732        1       119         8.6206395        2
    11         0.2275862        1       120        10.1230088        2
    12         0.2281897        1       121        10.9147504        2
    13         0.3019972        1       122        11.3941316        2
    14         0.3937549        1       123        11.8561562        2
    15         0.5079053        1       124        12.7372919        2
    16         0.5315462        1       125        14.4257246        2
    17         0.6543484        1       126        19.4946409        2
    18         0.7701192        1       127        27.1480832        2
    19         0.7815028        1       128        33.8214174        2
    20         0.8743519        1       129        47.8487339        2
    21         0.8942642        1       130        66.9288675        2
    22         0.9297358        1       131        98.6984310        2
    23         1.2319349        1       132        98.8004340        2
    24         1.4939411        1       133       103.2867512        2
    25         1.5112084        1       134       103.3739177        2
    26         1.6641781        1       135       115.5001363        2
    27         1.7595769        1       136       117.0663180        2
    28         1.7732533        1       137       198.9780773        2
    29         2.1085734        1       138       225.3342437        2
    30         2.1618159        1       139       395.5220548        2
    31         2.2053113        1       140         0.0642787        3
    32         2.3205444        1       141         0.1492165        3
    33         2.3711423        1       142         0.1702904        3
    34         2.4996254        1       143         0.3259358        3
    35         3.0005586        1       144         0.3968796        3
    36         3.0444671        1       145         0.6214504        3
    37         3.4582162        1       146         0.7497145        3
    38         3.7322513        1       147         0.8291666        3
    39         3.9617799        1       148         0.8780209        3
    40         4.1752829        1       149         1.0873739        3
    41         4.2854476        1       150         1.4504952        3
    42         4.4003794        1       151         1.5466930        3
    43         4.6037498        1       152         1.8376050        3
    44         4.9734445        1       153         1.9531945        3
    45         5.1742163        1       154         2.2555461        3
    46         5.9076192        1       155         2.3337185        3
    47         6.0026476        1       156         2.3791772        3
    48         6.2235928        1       157         2.6049443        3
    49         6.3173545        1       158         2.8747679        3
    50         6.6176768        1       159         3.7601080        3
    51         7.1158072        1       160         4.0785192        3
    52         7.5200597        1       161         4.2108829        3
    53         7.8966825        1       162         4.3314751        3
    54         8.3997340        1       163         4.7686836        3
    55        10.3487212        1       164         5.1922021        3
    56        10.6007113        1       165         5.8644111        3
    57        11.1794842        1       166         6.1800662        3
    58        11.2121161        1       167         6.3412934        3
    59        11.8660540        1       168         6.4528794        3
    60        12.3368389        1       169         7.5998261        3
    61        12.9148586        1       170         8.6206395        3
    62        13.5028972        1       171        10.1230088        3
    63        15.7790298        1       172        10.9147504        3
    64        18.1250584        1       173        11.3941316        3
    65        20.8442395        1       174        11.8561562        3
    66        26.5861182        1       175        12.7372919        3
    67        28.4243730        1       176        14.4257246        3
    68        35.1680100        1       177        19.4946409        3
    69        37.0555157        1       178        27.1480832        3
    70        47.1378031        1       179        33.8214174        3
    71        48.6816552        1       180        47.8487339        3
    72        64.3335481        1       181        66.9288675        3
    73        67.9473533        1       182        98.6984310        3
    74        98.7257313        1       183        98.8004340        3
    75        98.8133025        1       184       103.2867512        3
    76       103.3434270        1       185       103.3739177        3
    77       103.4484772        1       186       115.5001363        3
    78       115.2270188        1       187       117.0663180        3
    79       116.1230657        1       188       198.9780773        3
    80       118.2929370        1       189       225.3342437        3
    81       123.0478190        1       190       395.5220548        3
    82       198.5905731        1       191         0.2281897        4
    83       199.4038847        1       192         0.5315462        4
    84       216.8035731        1       193         0.7701192        4
    85       226.1619795        1       194         0.8942642        4
    86       396.4999339        1       195         1.5112084        4
    87       509.5439886        1       196         1.7732533        4
    88       895.6400521        1       197         2.1085734        4
    89         0.0642787        2       198         2.2053113        4
    90         0.1492165        2       199         2.3711423        4
    91         0.1702904        2       200         3.0444671        4
    92         0.3259358        2       201         3.7322513        4
    93         0.3968796        2       202         4.1752829        4
    94         0.6214504        2       203         4.4003794        4
    95         0.7497145        2       204         5.1742163        4
    96         0.8291666        2       205         5.9076192        4
    97         0.8780209        2       206         6.3173545        4
    98         1.0873739        2       207         6.6176768        4
    99         1.4504952        2       208         7.5200597        4
   100         1.5466930        2       209        10.6007113        4
   101         1.8376050        2       210        11.1794842        4
   102         1.9531945        2       211        12.3368389        4
   103         2.2555461        2       212        12.9148586        4
   104         2.3337185        2       213        26.5861182        4
   105         2.3791772        2       214        47.1378031        4
   106         2.6049443        2       215        98.7257313        4
   107         2.8747679        2       216       103.3434270        4
   108         3.7601080        2       217       115.2270188        4
   109         4.0785192        2       218       198.5905731        4
------------------------------------------------------------------------
  -20.6631584623381       -11.3410003050269       -1.55124755002657     
 -0.808427332292444      -0.549435987145794      -0.659351866717807     
 -0.659351866717790       5.886755281147563E-002  7.642222608883406E-002
  0.155873203128439       0.227586245135841       0.228189724737370     
  0.301997211715838       0.393754930692594       0.507905307185066     
  0.531546238585953       0.654348357364807       0.770119244884115     
  0.781502794424311       0.874351945806060       0.894264159382221     
  0.929735844576135        1.23193487307090        1.49394109724297     
   1.51120835709777        1.66417805219562        1.75957689300151     
   1.77325334796919        2.10857337888866        2.16181586902260     
   2.20531128457480        2.32054441400617        2.37114227811035     
   2.49962540469289        3.00055859425111        3.04446709179503     
   3.45821618731940        3.73225133220444        3.96177990407528     
   4.17528292173772        4.28544764137814        4.40037936651091     
[...]
 Convergence information after     8 iterations: 
 Largest element of residual vector : -0.18992649E-04.
 Largest element of DIIS residual   :  0.15502716E-04.
 Convergence information after     9 iterations: 
 Largest element of residual vector :  0.66954295E-05.
 Largest element of DIIS residual   :  0.43271587E-05.
 Convergence information after    10 iterations: 
 Largest element of residual vector :  0.32399013E-05.
 Largest element of DIIS residual   :  0.21436634E-05.
 Convergence information after    11 iterations: 
 Largest element of residual vector :  0.11374908E-05.
 Largest element of DIIS residual   :  0.58544443E-06.
 Convergence information after    12 iterations: 
 Largest element of residual vector :  0.46618142E-06.
 Largest element of DIIS residual   :  0.27489215E-06.
 Convergence information after    13 iterations: 
 Largest element of residual vector :  0.19895087E-06.
 Largest element of DIIS residual   :  0.16547152E-06.
 Convergence information after    14 iterations: 
 Largest element of residual vector :  0.12000160E-06.
 Largest element of DIIS residual   :  0.75377106E-07.
 Perturbed amplitude equations converged in    14 iterations.
  Dominant contributions to perturbed wavefunction:
    7    7  142   37   0.2125245829 ABAB
    7    7   37  142   0.2125245829 ABAB
    7    7  142   27   0.2092290063 ABAB
    7    7   27  142   0.2092290063 ABAB
    7    7  142   55   0.1639746862 ABAB
    7    7   55  142   0.1639746862 ABAB
    7    7  141   37   0.1524214837 ABAB
    7    7   37  141   0.1524214837 ABAB
    7    7  141   27   0.1491103886 ABAB
    7    7   27  141   0.1491103886 ABAB
    7    7  142   63   0.1458161210 ABAB
    7    7   63  142   0.1458161210 ABAB
    7    6   37   91   0.1434908088 ABAB
    6    7   91   37   0.1434908088 ABAB
    7    7  141   55   0.1414866201 ABAB
    7    7   55  141   0.1414866201 ABAB
    7    6   27   91   0.1407807910 ABAB
    6    7   91   27   0.1407807910 ABAB
    7    7  142   47   0.1306128825 ABAB
    7    7   47  142   0.1306128825 ABAB
  norm of converged amps    2.56739972152325     
 Starting iterative solution of the perturbed Lambda equations.
 The DIIS procedure is used to accelerate convergence.
 Convergence criterion is 10**(-7).
 Maximum number of iterations is 100.
 Convergence information after     1 iterations: 
 Largest element of residual vector : -0.67137621E-01.
 Largest element of DIIS residual   : -0.67137621E-01.
 Convergence information after     2 iterations: 
 Largest element of residual vector :  0.70234763E-02.
 Largest element of DIIS residual   :  0.53918448E-02.
 Convergence information after     3 iterations: 
 Largest element of residual vector : -0.33559686E-02.
 Largest element of DIIS residual   : -0.28996206E-02.
 Convergence information after     4 iterations: 
 Largest element of residual vector : -0.20472729E-02.
 Largest element of DIIS residual   : -0.15940491E-02.
 Convergence information after     5 iterations: 
 Largest element of residual vector : -0.11644151E-02.
 Largest element of DIIS residual   : -0.54215802E-03.
 Convergence information after     6 iterations: 
 Largest element of residual vector : -0.37547493E-03.
 Largest element of DIIS residual   :  0.97400265E-04.
 Convergence information after     7 iterations: 
 Largest element of residual vector : -0.65825846E-04.
 Largest element of DIIS residual   : -0.39503332E-04.
 Convergence information after     8 iterations: 
 Largest element of residual vector : -0.15436650E-04.
 Largest element of DIIS residual   :  0.12962609E-04.
 Convergence information after     9 iterations: 
 Largest element of residual vector :  0.56497178E-05.
 Largest element of DIIS residual   :  0.36756818E-05.
 Convergence information after    10 iterations: 
 Largest element of residual vector :  0.26880658E-05.
 Largest element of DIIS residual   :  0.18240642E-05.
 Convergence information after    11 iterations: 
 Largest element of residual vector :  0.93301003E-06.
 Largest element of DIIS residual   :  0.49478958E-06.
 Convergence information after    12 iterations: 
 Largest element of residual vector :  0.41870322E-06.
 Largest element of DIIS residual   :  0.27646880E-06.
 Convergence information after    13 iterations: 
 Largest element of residual vector :  0.19953231E-06.
 Largest element of DIIS residual   :  0.16950534E-06.
 Convergence information after    14 iterations: 
 Largest element of residual vector :  0.12306021E-06.
 Largest element of DIIS residual   :  0.77044502E-07.
 Perturbed Lambda equations converged in    14 iterations.
  Dominant contributions to perturbed wavefunction:
    7    7  142   37   0.2033921765 ABAB
    7    7   37  142   0.2033921765 ABAB
    7    7  142   27   0.1994586629 ABAB
    7    7   27  142   0.1994586629 ABAB
    7    7  142   55   0.1549237983 ABAB
    7    7   55  142   0.1549237983 ABAB
    7    7  141   37   0.1446172445 ABAB
    7    7   37  141   0.1446172445 ABAB
    7    7  141   27   0.1408142246 ABAB
    7    7   27  141   0.1408142246 ABAB
    7    7  142   63   0.1391908826 ABAB
    7    7   63  142   0.1391908826 ABAB
    7    6   37   91   0.1357794008 ABAB
    6    7   91   37   0.1357794008 ABAB
    7    7  141   55   0.1330110295 ABAB
    7    7   55  141   0.1330110295 ABAB
    7    6   27   91   0.1325141916 ABAB
    6    7   91   27   0.1325141916 ABAB
    7    7  142   47   0.1246237207 ABAB
    7    7   47  142   0.1246237207 ABAB
        The DBOC first-order density matrix is being calculated 
             (Symmetry block 3, perturbation   2)
 term   7.77261701510333     
 final tnorm  0.892609642065290     
  norm contr. I: |<0|L dT/dx|0>|^2   0.000000000000000E+000
  norm contr. II: <0|[nabla(1+L)e-T][nabla e^T]|0>   7.77261701510333     
  total norm contribution   7.77261701510333     
 oo  1.266497573966890E-002
 vv  -58.3638080731792     
 vo  3.876887270710994E-002
  Correlated perturbed 1-el contribution to DBOC  -58.3123742247324       cm**-1
  SUM_I |dc_I/dx|^2 contribution to DBOC   29.2616459515089       cm**-1
 
 
  The total diagonal Born-Oppenheimer correction (DBOC) is:      0.0041458730 a.u.
  The total diagonal Born-Oppenheimer correction (DBOC) is:        909.913942 cm-1
 
 Total CC energy including DBOC  -113.278448921602     
 First-order density matrix is being calculated  (Symmetry block 3, perturbation   2)
 Calculation of the contributions of <pq||rs> to dI(i,j)/dx required   1.9 seconds.
 Calculation of the contributions of <pq||rs> to dI(a,b)/dx required  16.3 seconds.
 Calculation of the contributions of <pq||rs> to dI(i,a)/dx required   9.1 seconds.
 First-order Z-vector equations are solved for 1 perturbation.
 Convergence reached after  18 iterations.
        U*G(pq,rs) contribution is being calculated
             (Symmetry block 3, perturbation   2)

 CCSD contribution to force constants 

        0.0000000000        0.0000000000        0.0000000000
        0.0000000000        0.0000000000        0.0000000000
        0.0000000000        0.0000000000        0.0000000000
        0.0000000000        0.0000000000        0.0000000000
        0.0000000000        0.0000000000        0.0000000000
        0.0000000000        0.0000000000        0.0000000000
        0.0000000000        0.0000000000        0.0000000000
        0.0000000000        0.0000000000        0.0000000000
        0.0000000000        0.0000000000        0.0000000000
        0.0000000000        0.0000000000        0.0000000000
        0.0000000000        0.0000000000        0.0000000000
        0.0000000000       -4.4401791509        4.4401791509

 CCSD contribution to dipole derivatives 

        0.0000000000        0.0000000000        0.0000000000
        0.0000000000        0.0000000000        0.0000000000
        0.0000000000        0.0000000000        0.0000000000
        0.0000000000        0.0000000000       -0.0426167903
        0.0000000000        0.0000000000        0.0000000000
        0.0000000000        0.0000000000        0.0000000000
 @CHECKOUT-I, Total execution time (CPU/WALL):      984.53/     257.28 seconds.
--executable xsdcc finished with status     0 in      257.30 seconds (walltime).
 --invoking executable--
/nfs/workspaces/public/cfour_mpi/bin/xanti
 @GETMEM-I,  Allocated    3814 MB of main memory.
 CCSD MO derivative gammas will be sorted to Mulliken order.
 @CHECKOUT-I, Total execution time (CPU/WALL):        9.12/      13.46 seconds.
--executable xanti finished with status     0 in       13.48 seconds (walltime).
 --invoking executable--
/nfs/workspaces/public/cfour_mpi/bin/xbcktrn
 @GETMEM-I,  Allocated    3814 MB of main memory.
 CCSD MO derivative gammas will be transformed to the AO basis.
 @CHECKOUT-I, Total execution time (CPU/WALL):       20.94/       3.44 seconds.
--executable xbcktrn finished with status     0 in        3.46 seconds (walltime).
 --invoking executable--
/nfs/workspaces/public/cfour_mpi/bin/xvdint
 @GETMEM-I,  Allocated    3814 MB of main memory.
 One- and two-electron integral derivatives are calculated
 for RHF-CC/MBPT hessians and dipole derivatives.
 Spherical gaussians are used.
  magnet F F
                    8722  records have been written to the Sort file.
  Total length of Sort file :             178609116  words.
 Evaluation of 2el integral derivatives

                      Two-electron integral gradient
                      ------------------------------

                         C #1 z     0.0000000000
                         O #2 z     0.0000000000


 C #1       0.0000000000           -0.8370394863            0.0000000000
 O #2       0.0000000000            0.8370394863            0.0000000000


 Evaluation of 2e integral derivatives required  332.44 seconds.
  contribution to Hessian
        0.0000000000        0.0000000000        0.0000000000
        0.0000000000       -0.8370394863        0.8370394863
 @CHECKOUT-I, Total execution time (CPU/WALL):      332.43/      66.96 seconds.
--executable xvdint finished with status     0 in       66.99 seconds (walltime).
 --invoking executable--
/nfs/workspaces/public/cfour_mpi/bin/xanti
 @GETMEM-I,  Allocated    3814 MB of main memory.
 CCSD MO gammas will be sorted to Mulliken order.
 @CHECKOUT-I, Total execution time (CPU/WALL):       10.49/       9.10 seconds.
--executable xanti finished with status     0 in        9.12 seconds (walltime).
 --invoking executable--
/nfs/workspaces/public/cfour_mpi/bin/xbcktrn
 @GETMEM-I,  Allocated    3814 MB of main memory.
 CCSD MO gammas will be transformed to the AO basis.
 @CHECKOUT-I, Total execution time (CPU/WALL):       27.39/       4.16 seconds.
--executable xbcktrn finished with status     0 in        4.18 seconds (walltime).
 --invoking executable--
/nfs/workspaces/public/cfour_mpi/bin/xvdint
 @GETMEM-I,  Allocated    3814 MB of main memory.
 One- and two-electron integral derivatives are calculated
 for RHF-CC/MBPT hessians and dipole derivatives.
 Spherical gaussians are used.
  magnet F F

                     Kinetic energy integral gradient
                     --------------------------------

                         C #1 z    -1.6364004825
                         O #2 z     1.6364004825


 C #1       0.0000000000            0.0000000000           -1.6364004825
 O #2       0.0000000000            0.0000000000            1.6364004825



                   Nuclear attraction integral gradient
                   ------------------------------------

                         C #1 z    24.8171113997
                         O #2 z   -24.8171113997


 C #1       0.0000000000            0.0000000000           24.8171113997
 O #2       0.0000000000            0.0000000000          -24.8171113997



                      Reorthonormalization gradient
                      -----------------------------

                         C #1 z     0.0000000000
                         O #2 z     0.0000000000


 C #1       0.0000000000            0.0000000000            0.0000000000
 O #2       0.0000000000            0.0000000000            0.0000000000



                     Kinetic energy integral Hessian
                     -------------------------------


           Symmetry 1

           C #1 z      O #2 z

 C #1 z    1.052317
 O #2 z   -1.052317    1.052317


           Symmetry 2

           C #1 x      O #2 x

 C #1 x   -2.335441
 O #2 x    2.335441   -2.335441


           Symmetry 3

           C #1 y      O #2 y

 C #1 y   -2.335441
 O #2 y    2.335441   -2.335441




           C #1 x      C #1 y      C #1 z      O #2 x      O #2 y      O #2 z

 C #1 x   -2.335441
 C #1 y    0.000000   -2.335441
 C #1 z    0.000000    0.000000    1.052317

 O #2 x    2.335441    0.000000    0.000000   -2.335441
 O #2 y    0.000000    2.335441    0.000000    0.000000   -2.335441
 O #2 z    0.000000    0.000000   -1.052317    0.000000    0.000000    1.052317




                   Nuclear attraction integral Hessian
                   -----------------------------------


           Symmetry 1

           C #1 z      O #2 z

 C #1 z  -13.410373
 O #2 z   13.410373  -13.410373


           Symmetry 2

           C #1 x      O #2 x

 C #1 x   23.609949
 O #2 x  -23.609949   23.609949


           Symmetry 3

           C #1 y      O #2 y

 C #1 y   23.609949
 O #2 y  -23.609949   23.609949




           C #1 x      C #1 y      C #1 z      O #2 x      O #2 y      O #2 z

 C #1 x   23.609949
 C #1 y    0.000000   23.609949
 C #1 z    0.000000    0.000000  -13.410373

 O #2 x  -23.609949    0.000000    0.000000   23.609949
 O #2 y    0.000000  -23.609949    0.000000    0.000000   23.609949
 O #2 z    0.000000    0.000000   13.410373    0.000000    0.000000  -13.410373




                Highest order reorthonormalization Hessian
                ------------------------------------------


           Symmetry 1

           C #1 z      O #2 z

 C #1 z    0.000000
 O #2 z    0.000000    0.000000


           Symmetry 2

           C #1 x      O #2 x

 C #1 x    0.000000
 O #2 x    0.000000    0.000000


           Symmetry 3

           C #1 y      O #2 y

 C #1 y    0.000000
 O #2 y    0.000000    0.000000




           C #1 x      C #1 y      C #1 z      O #2 x      O #2 y      O #2 z




                Electronic contributions to dipole moment
                -----------------------------------------

                               au             Debye

                    z     -0.09882661     -0.25119222

  Conversion factor used: 1 a.u. =   2.54174691 Debye 



   Electronic contributions to static part of dipole moment derivatives
   --------------------------------------------------------------------


                     Total dipole moment derivatives
                     -------------------------------


           Symmetry 1
                              Ez

               C #1 z    -5.75740594
               O #2 z    -8.24259406

           Symmetry 2
                              Ex

               C #1 x    -5.82452465
               O #2 x    -8.17547535

           Symmetry 3
                              Ey

               C #1 y    -5.82452465
               O #2 y    -8.17547535



                       Ex          Ey          Ez

      C #1    x   -5.824525    0.000000    0.000000
      C #1    y    0.000000   -5.824525    0.000000
      C #1    z    0.000000    0.000000   -5.757406

      O #2    x   -8.175475    0.000000    0.000000
      O #2    y    0.000000   -8.175475    0.000000
      O #2    z    0.000000    0.000000   -8.242594

 Evaluation of 1e integral derivatives required    1.85 seconds.
                    8815  records have been written to the Sort file.
  Total length of Sort file :             180513570  words.
 Evaluation of 2el integral derivatives

                      Two-electron integral gradient
                      ------------------------------

                         C #1 z   -11.4775038436
                         O #2 z    11.4775038436


 C #1       0.0000000000            0.0000000000          -11.4775038436
 O #2       0.0000000000            0.0000000000           11.4775038436


 Evaluation of 2e integral derivatives required  698.49 seconds.

                            Molecular gradient
                            ------------------

                         C #1 z     0.3107287879
                         O #2 z    -0.3107287879


 C #1       0.0000000000            0.0000000000            0.3107287879
 O #2       0.0000000000            0.0000000000           -0.3107287879


  Molecular gradient norm 0.439E+00

                            Molecular hessian
                            -----------------


           Symmetry 1

           C #1 z      O #2 z

 C #1 z   73.680659
 O #2 z  -73.680659   73.680659


           Symmetry 2

           C #1 x      O #2 x

 C #1 x    5.230410
 O #2 x   -5.230410    5.230410


           Symmetry 3

           C #1 y      O #2 y

 C #1 y    5.230410
 O #2 y   -5.230410    5.230410




           C #1 x      C #1 y      C #1 z      O #2 x      O #2 y      O #2 z

 C #1 x    5.230410
 C #1 y    0.000000    5.230410
 C #1 z    0.000000    0.000000   73.680659

 O #2 x   -5.230410    0.000000    0.000000    5.230410
 O #2 y    0.000000   -5.230410    0.000000    0.000000    5.230410
 O #2 z    0.000000    0.000000  -73.680659    0.000000    0.000000   73.680659




                           Total dipole moment
                           -------------------

                               au             Debye

                    z     -0.10106381     -0.25687863

  Conversion factor used: 1 a.u. =   2.54174691 Debye 



                     Total dipole moment derivatives
                     -------------------------------


           Symmetry 1
                              Ez

               C #1 z     0.70763077
               O #2 z    -0.70763077

           Symmetry 2
                              Ex

               C #1 x    -0.05249166
               O #2 x     0.05249166

           Symmetry 3
                              Ey

               C #1 y    -0.05249166
               O #2 y     0.05249166



                       Ex          Ey          Ez

      C #1    x   -0.052492    0.000000    0.000000
      C #1    y    0.000000   -0.052492    0.000000
      C #1    z    0.000000    0.000000    0.707631

      O #2    x    0.052492    0.000000    0.000000
      O #2    y    0.000000    0.052492    0.000000
      O #2    z    0.000000    0.000000   -0.707631

 @CHECKOUT-I, Total execution time (CPU/WALL):      700.34/     117.94 seconds.
--executable xvdint finished with status     0 in      117.96 seconds (walltime).
 --invoking executable--
/nfs/workspaces/public/cfour_mpi/bin/xjoda
  @GTFLGS-I, Hessian will be transformed to curvilinear coordinates.
  @GTFLGS-I, Hessian will be transformed to curvilinear coordinates.
  igrd and ihes are                      0                     1
  gradient from JOBARC 
   0.000000000000000   0.000000000000000   0.310728787931176
   0.000000000000000   0.000000000000000  -0.310728787931176
 
  @PROJFCM-I, Projecting force constant matrix onto totally symmetric subspace.
  Largest difference between matrix elements of symmetrized
  and unsymmetrized FCM :     0.9668710277E-11.
  read isotopes from ZMAT file 
 
  Summary of diagonal Born-Oppenheimer correction at the correlated level
  The total diagonal Born-Oppenheimer correction (DBOC) is:      0.0041458730 a.u.
  The total diagonal Born-Oppenheimer correction (DBOC) is:        909.913942 cm-1
  The total diagonal Born-Oppenheimer correction (DBOC) is:            10.885 kJ/mole
  hellooooooo 
  readis is  F
 
 @CHECKOUT-I, Total execution time (CPU/WALL):        0.01/       0.04 seconds.
--executable xjoda finished with status     0 in        0.06 seconds (walltime).
  The final electronic energy is      -113.278448921602404 a.u. 
  This computation required                         2609.47 seconds (walltime).
