 --invoking executable--
/nfs/workspaces/public/cfour_mpi/bin/xjoda


   *************************************************************************
         <<<     CCCCCC     CCCCCC   |||     CCCCCC     CCCCCC   >>>
       <<<      CCC        CCC       |||    CCC        CCC         >>>
      <<<      CCC        CCC        |||   CCC        CCC            >>>
    <<<        CCC        CCC        |||   CCC        CCC              >>>
      <<<      CCC        CCC        |||   CCC        CCC            >>>
       <<<      CCC        CCC       |||    CCC        CCC         >>>
         <<<     CCCCCC     CCCCCC   |||     CCCCCC     CCCCCC   >>>
   *************************************************************************

     ****************************************************************
     * CFOUR Coupled-Cluster techniques for Computational Chemistry *
     ****************************************************************
 

   Department of Chemistry                Institut fuer Physikalische Chemie
   University of Florida                  Universitaet Mainz
   Gainesville, FL 32611, USA             D-55099 Mainz, Germany

   Department of Chemistry                Fakultaet fuer Chemie und Biowiss.
   Johns Hopkins University               Karlsruher Institut fuer Technologie
   Baltimore, MD 21218, USA               D-76131 Karlsruhe, Germany

   Department of Chemistry                Department of Physical Chemistry
   Southern Methodist University          Eotvos Lorand University
   Dallas, TX 75275, USA                  H-1053 Budapest, Hungary

 
                       Version 2.1
 
                     vincent.theory.phys.ucl.ac.uk                     
                     Mon 24 Feb 17:05:44 GMT 2025                      
                     integer*8 version is running
 
********************************************************************************
*                          Input from ZMAT file                                *
********************************************************************************
Carbon Monoxide DBOC calculation                                                
C                                                                               
O 1 r                                                                           
                                                                                
r=0.993103448275862                                                             
                                                                                
                                                                                
*CFOUR(CALC=CCSD,BASIS=AUG-PCVQZ,SCF_CONV=10                                    
CC_CONV=14,DBOC=ON,MEMORY=500000000                                             
ZFIELD=-200)                                                                    
                                                                                
%isotopes                                                                       
12                                                                              
16                                                                              
********************************************************************************
  @GTFLGS-I, Hessian will be transformed to curvilinear coordinates.
    -------------------------------------------------------------------
                    CFOUR Control Parameters 
    -------------------------------------------------------------------
        External           Internal           Value            Units
          Name               Name
    -------------------------------------------------------------------
       ABCDTYPE             IABCDT         STANDARD    [  0]    ***   
       ANHARMONIC           IANHAR         OFF         [  0]    ***   
       ANH_ALGORIT          IANALG         STANDARD    [  0]    ***   
       ANH_DERIVAT          IANDER         SECOND      [  1]    ***   
       ANH_MODE             ANHMOD         VIBRATION   [  0]    ***   
       ANH_STEPSIZ          ICUBST             50000          x 10-6  
       ANH_SYMMETR          IANHSM         ABELIAN     [  0]    ***   
       AO_LADDERS           IAOLAD         SINGLEPASS  [  1]    ***   
       AV_SCF               IAVSCF         OFF         [  0]    ***   
       BASIS                IBASIS         AUG-PCVQZ   [ 52]    ***   
       BOTHVECTORS          BOTHVC         OFF         [  0]    ***   
       BOX_POTENT           IPIAB          OFF         [  0]    ***   
       BREIT                IBREIT         OFF         [  0]    ***   
       BRUCK_CONV           IBRTOL          10D-  4             ***   
       BRUECKNER            IBRKNR         OFF         [  0]    ***   
       BUFFERSIZE           IBUFFS              4096            ***   
       CACHE_RECS           ICHREC             10               ***   
       CALCLEVEL            ICLLVL         CCSD        [ 10]    ***   
       CCORBOPT             ICCORB         OFF         [  0]  x 0.01  
       CC_CONV              ICCCNV          10D- 14             ***   
       CC_EXPORDER          ICCEOR              5               ***   
       CC_EXTRAPOL          ICCEXT         DIIS        [  1]    ***   
       CC_GUESS             ICCGES         MP2         [  0]    ***   
       CC_MAXCYC            ICCCYC            100              cycles 
       CC_PROGRAM           ICCPRO         VCC         [  0]    ***   
       CHARGE               ICHRGE              0               ***   
       CHOLESKY             ICHOLE         OFF         [  0]    ***   
       CIS_CONV             ICISTL              5               ***   
       COMM_SIZE            IPSIZE            ***               ***   
       CONSTANT             ICONST         OLD         [  1]    ***   
       CONTINUUM            ICONTU         NONE        [  0]    ***   
       CONTRACTION          ICNTYP         GENERAL     [  1]    ***   
       COORDINATES          ICOORD         INTERNAL    [  0]    ***   
       CPHF_CONVER          ICPHFT          10D- 16             ***   
       CPHF_MAXCYC          ICPHFC             64              cycles 
       CUBIC                ICUBIC         OFF         [  0]    ***   
       CURVILINEAR          ICURVY         ON          [  1]    ***   
       DBOC                 IDBOC          ON          [  1]    ***   
       DCT                  IDCT           OFF         [  0]    ***   
       DERIV_LEV            IDRLVL         SECOND      [  2]    ***   
       DEVMEM_SIZE          IDVMEM          50000000           MByte  
       DIAG_MRCC            IEOMST          10D-  0             ***   
       DIFF_TYPE            IDIFTY         RELAXED     [  0]    ***   
       DIRECT               IDIRCT         OFF         [  0]    ***   
       DROPMO               IDRPMO      NONE         
       ECP                  IECP           OFF         [  0]    ***   
       EIGENVECTOR          IVEC                1               ***   
       EL_ANHARM            IELANH         OFF         [  0]    ***   
       EOMFOLLOW            IEOMSR         ENERGY      [  0]    ***   
       EOMIP                IEOMIP         OFF         [  0]    ***   
       EOMLEVEL             HBARFM         SAME        [  0]    ***   
       EOM_MRCC             IMRCCE         NEW         [  1]    ***   
       EOM_NONIT            EOMNON         OFF         [  0]    ***   
       EOM_NSING            IEOMSI          10D-  0             ***   
       EOM_NSTATES          IMRCCD         DAVIDSON    [  0]    ***   
       EOM_NTRIP            IEOMTR          10D-  0             ***   
       EOM_ORDER            IEXORD         ENERGY      [  0]    ***   
       EOM_PROPSTA          IEOMST              0               ***   
       ESTATE_CONV          IEXTOL          10D-  5             ***   
       ESTATE_DIAG          IEXDIG         ITERATIVE   [  0]    ***   
       ESTATE_LOCK          IESLOC         ON          [  1]    ***   
       ESTATE_MAXC          IEXMXC             40               ***   
       ESTATE_PROP          IEXPRP         OFF         [  0]    ***   
       EVAL_HESS            IRECAL              0            # of cyc.
       EXCITATION           IEXCIT              0               ***   
       EXCITE               IEXCIT         NONE        [  0]    ***   
       EXTERN_POT           IEXPOT         OFF         [  0]    ***   
       FCGRADNEW            IFCGNW         OFF         [  0]    ***   
       FC_FIELD             IFINFC              0             x 10-6  
       FD_CALTYPE           IFDCAL         GRADONLY    [  0]    ***   
       FD_PROJECT           IFDPRJ         OFF         [  1]    ***   
       FD_STEPSIZE          IDISFD              0            10-4 bohr
       FD_USEGROUP          IFDGRP         FULL        [  0]    ***   
       FILE_RECSIZ          IFLREC              4096           words  
       FINITE_PERT          IFIPER              0             x 10-6  
       FIXGEOM              IFIXGM         OFF         [  0]    ***   
       FOCK                 IFOCK          AO          [  1]    ***   
       FREQ_ALGORI          IVIALG         STANDARD    [  0]    ***   
       FROZEN_CORE          IFROCO         OFF         [  0]    ***   
       GAMMA_ABCD           IGABCD         STORE       [  0]    ***   
       GAMMA_ABCI           IGABCI         STORE       [  0]    ***   
       GENBAS_1             IGNBS1              0               ***   
       GENBAS_2             IGNBS2              0               ***   
       GENBAS_3             IGNBS3              0               ***   
       GENBAS_4             IGNBS4              0               ***   
       GEO_CONV             ICONTL              5              H/bohr 
       GEO_MAXCYC           IOPTCY             50               ***   
       GEO_MAXSTEP          IMXSTP            300            millibohr
       GEO_METHOD           INR            SINGLE_POINT[  5]    ***   
       GIAO                 IGIAO          OFF         [  1]    ***   
       GIMIC                IGIMIC         OFF         [  0]    ***   
       GRID                 IGRID          OFF         [  0]    ***   
       GRID_ALGO            IGALGO         SERIAL      [  0]    ***   
       GUESS                IGUESS         MOREAD      [  0]    ***   
       HBAR                 IHBAR          OFF         [  0]    ***   
       HESS_TYPE            IHESTP         SCF         [  0]    ***   
       HF2_FILE             IHF2Fl         USE         [  1]    ***   
       HFSTABILITY          ISTABL         OFF         [  0]    ***   
       INCORE               INCORE         OFF         [  0]    ***   
       INPUT_MRCC           IMRCC          ON          [  1]    ***   
       INTEGRALS            INTTYP         VMOL        [  1]    ***   
       JODA_PRINT           IJPRNT              0               ***   
       KEYWORD_OUT          IDMPKW         NO          [  0]    ***   
       LINDEP_TOL           ILINDP              8               ***   
       LINEQ_CONV           IZTACN          10D-  7           cycles  
       LINEQ_EXPOR          ILMAXD              5               ***   
       LINEQ_MAXCY          ILMAXC            100               ***   
       LINEQ_TYPE           ILTYPE         DIIS        [  1]    ***   
       LOCK_ORBOCC          ILOCOC         OFF         [  0]    ***   
       MEMORY_SIZE          IMEMSZ         500000000           words  
       MEM_UNIT             IMEMU          INTEGERWORDS[  0]    ***   
       MRCC                 IMRCCC         OFF         [  0]    ***   
       MULTIPLICTY          IMULTP              1               ***   
       NACOUPLING           IVCOUP         OFF         [  0]    ***   
       NEGEVAL              IDIE           ABORT       [  0]    ***   
       NEWNORM              INEWNO         OFF         [  0]    ***   
       NON-HF               INONHF         OFF         [  0]    ***   
       NTOP_TAMP            ITOPT2             15               ***   
       NUC_MODEL            INUCMO         POINT       [  0]    ***   
       OCCUPATION           IOCCU   ESTIMATED BY SCF 
       OPEN-SHELL           IOPEN          SPIN-ORBITAL[  0]    ***   
       OPTVIB               IOPTVB         OFF         [  0]    ***   
       ORBITALS             IORBTP         STANDARD    [  0]    ***   
       PARALLEL             IPARAL         ON          [  1]    ***   
       PARA_INT             IPINTS         ON          [  1]    ***   
       PARA_PRINT           IPPRIN              0               ***   
       PERT_ORB             IPTORB         STANDARD    [  0]    ***   
       POINTS               IGRDFD              0               ***   
       PRINT                IPRNT               0               ***   
       PROPS                IPROPS         OFF         [  0]    ***   
       PROP_INTEGR          IINTYP         INTERNAL    [  0]    ***   
       PSI                  IPSI           OFF         [  0]    ***   
       QC_ALG               IQCALG         FLM         [  0]    ***   
       QC_LINALG            IQCLIN         TRIDIAG     [  2]    ***   
       QC_MAXCYC            IQCMAX          10D-100           cycles  
       QC_MAXSCFCY          IQCMSC          10D- 15           cycles  
       QC_RTRUST            IQCRTR          10D-  0           x 10-3  
       QC_SKIPSCF           IQCSKI         OFF         [  0]    ***   
       QC_START             IQCSTA          10D-  1             ***   
       QRHFGUESS            IQGUES         OFF         [  0]    ***   
       QUARTIC              IQUART         OFF         [  0]    ***   
       RAMAN_INT            IRAMIN         OFF         [  0]    ***   
       RAMAN_ORB            IRAMRE         UNRELAXED   [  0]    ***   
       RDO                  IRDOFM         ON          [  1]    ***   
       REDUCE_REPR          REDREP         Ir          [  0]    ***   
       REFERENCE            IREFNC         RHF         [  0]    ***   
       RELATIVIST           IRELAT         OFF         [  0]    ***   
       RELAX_DENS           IRDENS         ON          [  1]    ***   
       RESET_FLAGS          IRESET         OFF         [  0]    ***   
       RESTART_CC           ICCRES         OFF         [  0]    ***   
       ROT_EVEC             ROTVEC              0               ***   
       SAVE_INTS            ISVINT         OFF         [  0]    ***   
       SCALE_ON             ISTCRT              0               ***   
       SCF_CONV             ISCFCV          10D- 10             ***   
       SCF_DAMPING          IDAMP               0             x 10-3  
       SCF_EXPORDE          IRPPOR              6               ***   
       SCF_EXPSTAR          IRPPLS              8               ***   
       SCF_EXTRAPO          IRPP           ON          [  1]    ***   
       SCF_MAXCYC           ISCFCY            150              cycles 
       SCF_NOSTOP           ISCFST         OFF         [  0]    ***   
       SCF_PRINT            ISCFPR              0               ***   
       SCF_PROG             ISCFPR         SCF         [  0]    ***   
       SD_FIELD             IFINSD              0             x 10-6  
       SOPERT               IPERSO         OFF         [  0]    ***   
       SPHERICAL            IDFGHI         ON          [  1]    ***   
       SPINORBIT            ISOCAL         OFF         [  0]    ***   
       SPINROTATIO          ISRCON         OFF         [  0]    ***   
       SPIN_FLIP            ISPFLP         OFF         [  0]    ***   
       SPIN_ORBIT           ISPORB         OFF         [  0]    ***   
       SPIN_SCAL            ISCSMP         OFF         [  0]    ***   
       STEEPSCALE           ISTPSC              1000          x 10-3  
       SUBGROUP             ISUBGP         DEFAULT     [  0]    ***   
       SUBGRPAXIS           ISBXYZ         X           [  0]    ***   
       SYMMETRY             ISYM           ON          [  0]    ***   
       SYM_CHECK            ISYMCK         OVERRIDE    [  1]    ***   
       T3_EXTRAPOL          IT3EXT         OFF         [  0]    ***   
       T4_EXTRAPOL          IT4EXP         OFF         [  0]    ***   
       TAMP_SUM             IEVERY              5               ***   
       TESTSUITE            ITESTS         OFF         [  0]    ***   
       THERMOCH             ITHERM         OFF         [  0]    ***   
       TOL_CHOLESK          ITOLCH          10D-  4             ***   
       TRANGRAD             IRESRM         OFF         [  0]    ***   
       TRANS_INV            ITRAIN         IGNORE      [  1]    ***   
       TREAT_PERT           ITREAT         SIMULTANEOUS[  0]    ***   
       TRIP_ALGORI          ITRALG         NORMAL      [  0]    ***   
       UIJ_THRESHO          IUIJTH              1               ***   
       UNITS                IUNITS         ANGSTROM    [  0]    ***   
       UNOS                 IUNOS          OFF         [  0]    ***   
       UPDATE_HESS          IHUPDT         ON          [  1]    ***   
       VIBPHASE             ISETPH         STANDARD    [  0]    ***   
       VIBRATION            IVIB           ANALYTIC    [  1]    ***   
       VIB_ALGORIT          IGEALG         STANDARD    [  0]    ***   
       VNATORB              IVNORB         OFF         [  0]    ***   
       VTRAN                IVTRAN         FULL/PARTIAL[  0]    ***   
       XFIELD               IXEFLD              0             x 10-6  
       XFORM_TOL            IXFTOL          10D- 11             ***   
       YFIELD               IYEFLD              0             x 10-6  
       ZFIELD               IZEFLD            ***             x 10-6  
       ZSCALE_EXP           IZEXPS         OFF         [  0]    ***   
    -------------------------------------------------------------------
   2 entries found in Z-matrix 
   Job Title : Carbon Monoxide DBOC calculation                                                
   There are  1 unique internal coordinates.
   Of these,  0 will be optimized.
   User supplied Z-matrix: 
--------------------------------------------------------------------------------
       SYMBOL    BOND      LENGTH    ANGLE     ANGLE     DIHED     ANGLE
                  TO      (ANGST)    WRT      (DEG)      WRT      (DEG)
--------------------------------------------------------------------------------
        C    
        O          1         r    
                  *Initial values for internal coordinates* 
                      Name             Value
                        r               0.9931034483
--------------------------------------------------------------------------------
  read isotopes from ZMAT file 
   Rotational constants (in cm-1): 
          2.4930073011             2.4930073011
   Rotational constants (in MHz): 
      74738.4891321802         74738.4891321802
********************************************************************************
   The full molecular point group is CXv .
   The largest Abelian subgroup of the full molecular point group is C2v .
   The computational point group is C2v .
********************************************************************************
--------------------------------------------------------------------------------
   Analysis of internal coordinates specified by Z-matrix 
--------------------------------------------------------------------------------
   *The nuclear repulsion energy is   25.576893166666665 a.u.
   *There is   1 degree of freedom within the tot. symm. molecular subspace.
   *Z-matrix requests optimization of   0 coordinates.
   *The optimization is constrained.
   *The following   1 parameters can have non-zero 
    derivatives within the totally symmetric subspace:
             r    [ 1]
   *The following   0 parameters are to be optimized:

   *The following coordinates must be varied in an  unconstrained optimization.
             r    [ 1]
--------------------------------------------------------------------------------


 ----------------------------------------------------------------
         Coordinates used in calculation (QCOMP) 
 ----------------------------------------------------------------
 Z-matrix   Atomic            Coordinates (in bohr)
  Symbol    Number           X              Y              Z
 ----------------------------------------------------------------
     C         6        -0.00000000     0.00000000     1.07225042
     O         8         0.00000000     0.00000000    -0.80444350
 ----------------------------------------------------------------
 
   Interatomic distance matrix (Angstroms) 
 
                 C             O    
                [ 1]        [ 2]
  C    [ 1]     0.00000
  O    [ 2]     0.99310     0.00000
 rotcon2
   Rotational constants (in cm-1): 
          2.4930073011             0.0000000000
   Rotational constants (in MHz): 
      74738.4891321802             0.0000000000
  ECPDATA file not present.   Using default ECPDATA. 
  @GTFLGS-I, Hessian will be transformed to curvilinear coordinates.
  There are  218 basis functions.
 @CHECKOUT-I, Total execution time (CPU/WALL):        0.11/       0.16 seconds.
--executable xjoda finished with status     0 in        0.17 seconds (walltime).
 --invoking executable--
/nfs/workspaces/public/cfour_mpi/bin/xvmol
 SERIAL VERSION OF MOLECULE STARTED
********************************************************************************
                    INPUT FROM MOL FILE
********************************************************************************
INTGRL        1    0    1    0    0    0    0    0    0                         
         *** CFOUR Program System (Release V0.1) ***                            
Carbon Monoxide DBOC calculation                                                
    2    2 X  Y       0.10E-08              0    0                              
   9999.00      3.00                                                            
          6.00000000    1    5    1    1    1    1    1                         
C #1  -0.000000000000000   0.000000000000000   1.072250424669153                
   16    9                                                                      
   33980.0000000000       9.100000000000000E-005 -1.900000000000000E-005        
  0.000000000000000E+000  0.000000000000000E+000  0.000000000000000E+000        
  0.000000000000000E+000  0.000000000000000E+000  0.000000000000000E+000        
  0.000000000000000E+000                                                        
   5089.00000000000       7.040000000000000E-004 -1.510000000000000E-004        
  0.000000000000000E+000  0.000000000000000E+000  0.000000000000000E+000        
  0.000000000000000E+000  0.000000000000000E+000  0.000000000000000E+000        
  0.000000000000000E+000                                                        
   1157.00000000000       3.693000000000000E-003 -7.850000000000000E-004        
  0.000000000000000E+000  0.000000000000000E+000  0.000000000000000E+000        
  0.000000000000000E+000  0.000000000000000E+000  0.000000000000000E+000        
  0.000000000000000E+000                                                        
   326.600000000000       1.536000000000000E-002 -3.324000000000000E-003        
  0.000000000000000E+000  0.000000000000000E+000  0.000000000000000E+000        
  0.000000000000000E+000  0.000000000000000E+000  0.000000000000000E+000        
  0.000000000000000E+000                                                        
   106.100000000000       5.292900000000000E-002 -1.151200000000000E-002        
  0.000000000000000E+000  0.000000000000000E+000  0.000000000000000E+000        
  0.000000000000000E+000  0.000000000000000E+000  0.000000000000000E+000        
  0.000000000000000E+000                                                        
   38.1100000000000       0.147043000000000      -3.416000000000000E-002        
  0.000000000000000E+000  0.000000000000000E+000  0.000000000000000E+000        
  0.000000000000000E+000  0.000000000000000E+000  0.000000000000000E+000        
  0.000000000000000E+000                                                        
   14.7500000000000       0.305631000000000      -7.717300000000001E-002        
  0.000000000000000E+000  0.000000000000000E+000  0.000000000000000E+000        
  0.000000000000000E+000  0.000000000000000E+000  0.000000000000000E+000        
  0.000000000000000E+000                                                        
   6.03500000000000       0.399345000000000      -0.141493000000000             
  0.000000000000000E+000  0.000000000000000E+000  0.000000000000000E+000        
  0.000000000000000E+000  0.000000000000000E+000  0.000000000000000E+000        
  0.000000000000000E+000                                                        
   2.53000000000000       0.217051000000000      -0.118019000000000             
  0.000000000000000E+000  0.000000000000000E+000  0.000000000000000E+000        
  0.000000000000000E+000  0.000000000000000E+000  0.000000000000000E+000        
  0.000000000000000E+000                                                        
  0.735500000000000       1.589400000000000E-002  0.273806000000000             
   1.00000000000000       0.000000000000000E+000  0.000000000000000E+000        
  0.000000000000000E+000  0.000000000000000E+000  0.000000000000000E+000        
  0.000000000000000E+000                                                        
  0.290500000000000      -3.084000000000000E-003  0.586510000000000             
  0.000000000000000E+000   1.00000000000000       0.000000000000000E+000        
  0.000000000000000E+000  0.000000000000000E+000  0.000000000000000E+000        
  0.000000000000000E+000                                                        
  0.111100000000000       9.779999999999999E-004  0.285430000000000             
  0.000000000000000E+000  0.000000000000000E+000   1.00000000000000             
  0.000000000000000E+000  0.000000000000000E+000  0.000000000000000E+000        
  0.000000000000000E+000                                                        
   7.21600000000000       0.000000000000000E+000  0.000000000000000E+000        
  0.000000000000000E+000  0.000000000000000E+000  0.000000000000000E+000        
   1.00000000000000       0.000000000000000E+000  0.000000000000000E+000        
  0.000000000000000E+000                                                        
   19.5700000000000       0.000000000000000E+000  0.000000000000000E+000        
  0.000000000000000E+000  0.000000000000000E+000  0.000000000000000E+000        
  0.000000000000000E+000   1.00000000000000       0.000000000000000E+000        
  0.000000000000000E+000                                                        
   53.0730000000000       0.000000000000000E+000  0.000000000000000E+000        
  0.000000000000000E+000  0.000000000000000E+000  0.000000000000000E+000        
  0.000000000000000E+000  0.000000000000000E+000   1.00000000000000             
  0.000000000000000E+000                                                        
  4.145000000000000E-002  0.000000000000000E+000  0.000000000000000E+000        
  0.000000000000000E+000  0.000000000000000E+000  0.000000000000000E+000        
  0.000000000000000E+000  0.000000000000000E+000  0.000000000000000E+000        
   1.00000000000000                                                             
   10    8                                                                      
   34.5100000000000       5.378000000000000E-003  0.000000000000000E+000        
  0.000000000000000E+000  0.000000000000000E+000  0.000000000000000E+000        
  0.000000000000000E+000  0.000000000000000E+000  0.000000000000000E+000        
   7.91500000000000       3.613200000000000E-002  0.000000000000000E+000        
  0.000000000000000E+000  0.000000000000000E+000  0.000000000000000E+000        
  0.000000000000000E+000  0.000000000000000E+000  0.000000000000000E+000        
   2.36800000000000       0.142493000000000       0.000000000000000E+000        
  0.000000000000000E+000  0.000000000000000E+000  0.000000000000000E+000        
  0.000000000000000E+000  0.000000000000000E+000  0.000000000000000E+000        
  0.813200000000000       0.342150000000000        1.00000000000000             
  0.000000000000000E+000  0.000000000000000E+000  0.000000000000000E+000        
  0.000000000000000E+000  0.000000000000000E+000  0.000000000000000E+000        
  0.289000000000000       0.463864000000000       0.000000000000000E+000        
   1.00000000000000       0.000000000000000E+000  0.000000000000000E+000        
  0.000000000000000E+000  0.000000000000000E+000  0.000000000000000E+000        
  0.100700000000000       0.250028000000000       0.000000000000000E+000        
  0.000000000000000E+000   1.00000000000000       0.000000000000000E+000        
  0.000000000000000E+000  0.000000000000000E+000  0.000000000000000E+000        
   8.18200000000000       0.000000000000000E+000  0.000000000000000E+000        
  0.000000000000000E+000  0.000000000000000E+000   1.00000000000000             
  0.000000000000000E+000  0.000000000000000E+000  0.000000000000000E+000        
   24.1860000000000       0.000000000000000E+000  0.000000000000000E+000        
  0.000000000000000E+000  0.000000000000000E+000  0.000000000000000E+000        
   1.00000000000000       0.000000000000000E+000  0.000000000000000E+000        
   71.4940000000000       0.000000000000000E+000  0.000000000000000E+000        
  0.000000000000000E+000  0.000000000000000E+000  0.000000000000000E+000        
  0.000000000000000E+000   1.00000000000000       0.000000000000000E+000        
  3.218000000000000E-002  0.000000000000000E+000  0.000000000000000E+000        
  0.000000000000000E+000  0.000000000000000E+000  0.000000000000000E+000        
  0.000000000000000E+000  0.000000000000000E+000   1.00000000000000             
    6    6                                                                      
   1.84800000000000        1.00000000000000       0.000000000000000E+000        
  0.000000000000000E+000  0.000000000000000E+000  0.000000000000000E+000        
  0.000000000000000E+000                                                        
  0.649000000000000       0.000000000000000E+000   1.00000000000000             
  0.000000000000000E+000  0.000000000000000E+000  0.000000000000000E+000        
  0.000000000000000E+000                                                        
  0.228000000000000       0.000000000000000E+000  0.000000000000000E+000        
   1.00000000000000       0.000000000000000E+000  0.000000000000000E+000        
  0.000000000000000E+000                                                        
   8.65600000000000       0.000000000000000E+000  0.000000000000000E+000        
  0.000000000000000E+000   1.00000000000000       0.000000000000000E+000        
  0.000000000000000E+000                                                        
   33.2130000000000       0.000000000000000E+000  0.000000000000000E+000        
  0.000000000000000E+000  0.000000000000000E+000   1.00000000000000             
  0.000000000000000E+000                                                        
  7.660000000000000E-002  0.000000000000000E+000  0.000000000000000E+000        
  0.000000000000000E+000  0.000000000000000E+000  0.000000000000000E+000        
   1.00000000000000                                                             
    4    4                                                                      
   1.41900000000000        1.00000000000000       0.000000000000000E+000        
  0.000000000000000E+000  0.000000000000000E+000                                
  0.485000000000000       0.000000000000000E+000   1.00000000000000             
  0.000000000000000E+000  0.000000000000000E+000                                
   24.6940000000000       0.000000000000000E+000  0.000000000000000E+000        
   1.00000000000000       0.000000000000000E+000                                
  0.187000000000000       0.000000000000000E+000  0.000000000000000E+000        
  0.000000000000000E+000   1.00000000000000                                     
    2    2                                                                      
   1.01100000000000        1.00000000000000       0.000000000000000E+000        
  0.424000000000000       0.000000000000000E+000   1.00000000000000             
          8.00000000    1    5    1    1    1    1    1                         
O #2   0.000000000000000   0.000000000000000  -0.804443499304243                
   16    9                                                                      
   61420.0000000000       9.000000000000001E-005 -2.000000000000000E-005        
  0.000000000000000E+000  0.000000000000000E+000  0.000000000000000E+000        
  0.000000000000000E+000  0.000000000000000E+000  0.000000000000000E+000        
  0.000000000000000E+000                                                        
   9199.00000000000       6.980000000000001E-004 -1.590000000000000E-004        
  0.000000000000000E+000  0.000000000000000E+000  0.000000000000000E+000        
  0.000000000000000E+000  0.000000000000000E+000  0.000000000000000E+000        
  0.000000000000000E+000                                                        
   2091.00000000000       3.664000000000000E-003 -8.290000000000000E-004        
  0.000000000000000E+000  0.000000000000000E+000  0.000000000000000E+000        
  0.000000000000000E+000  0.000000000000000E+000  0.000000000000000E+000        
  0.000000000000000E+000                                                        
   590.900000000000       1.521800000000000E-002 -3.508000000000000E-003        
  0.000000000000000E+000  0.000000000000000E+000  0.000000000000000E+000        
  0.000000000000000E+000  0.000000000000000E+000  0.000000000000000E+000        
  0.000000000000000E+000                                                        
   192.300000000000       5.242300000000000E-002 -1.215600000000000E-002        
  0.000000000000000E+000  0.000000000000000E+000  0.000000000000000E+000        
  0.000000000000000E+000  0.000000000000000E+000  0.000000000000000E+000        
  0.000000000000000E+000                                                        
   69.3200000000000       0.145921000000000      -3.626100000000000E-002        
  0.000000000000000E+000  0.000000000000000E+000  0.000000000000000E+000        
  0.000000000000000E+000  0.000000000000000E+000  0.000000000000000E+000        
  0.000000000000000E+000                                                        
   26.9700000000000       0.305258000000000      -8.299200000000000E-002        
  0.000000000000000E+000  0.000000000000000E+000  0.000000000000000E+000        
  0.000000000000000E+000  0.000000000000000E+000  0.000000000000000E+000        
  0.000000000000000E+000                                                        
   11.1000000000000       0.398508000000000      -0.152090000000000             
  0.000000000000000E+000  0.000000000000000E+000  0.000000000000000E+000        
  0.000000000000000E+000  0.000000000000000E+000  0.000000000000000E+000        
  0.000000000000000E+000                                                        
   4.68200000000000       0.216980000000000      -0.115331000000000             
  0.000000000000000E+000  0.000000000000000E+000  0.000000000000000E+000        
  0.000000000000000E+000  0.000000000000000E+000  0.000000000000000E+000        
  0.000000000000000E+000                                                        
   1.42800000000000       1.759400000000000E-002  0.288979000000000             
   1.00000000000000       0.000000000000000E+000  0.000000000000000E+000        
  0.000000000000000E+000  0.000000000000000E+000  0.000000000000000E+000        
  0.000000000000000E+000                                                        
  0.554700000000000      -2.502000000000000E-003  0.586128000000000             
  0.000000000000000E+000   1.00000000000000       0.000000000000000E+000        
  0.000000000000000E+000  0.000000000000000E+000  0.000000000000000E+000        
  0.000000000000000E+000                                                        
  0.206700000000000       9.540000000000000E-004  0.277624000000000             
  0.000000000000000E+000  0.000000000000000E+000   1.00000000000000             
  0.000000000000000E+000  0.000000000000000E+000  0.000000000000000E+000        
  0.000000000000000E+000                                                        
   12.9740000000000       0.000000000000000E+000  0.000000000000000E+000        
  0.000000000000000E+000  0.000000000000000E+000  0.000000000000000E+000        
   1.00000000000000       0.000000000000000E+000  0.000000000000000E+000        
  0.000000000000000E+000                                                        
   34.9000000000000       0.000000000000000E+000  0.000000000000000E+000        
  0.000000000000000E+000  0.000000000000000E+000  0.000000000000000E+000        
  0.000000000000000E+000   1.00000000000000       0.000000000000000E+000        
  0.000000000000000E+000                                                        
   93.8810000000000       0.000000000000000E+000  0.000000000000000E+000        
  0.000000000000000E+000  0.000000000000000E+000  0.000000000000000E+000        
  0.000000000000000E+000  0.000000000000000E+000   1.00000000000000             
  0.000000000000000E+000                                                        
  6.959000000000000E-002  0.000000000000000E+000  0.000000000000000E+000        
  0.000000000000000E+000  0.000000000000000E+000  0.000000000000000E+000        
  0.000000000000000E+000  0.000000000000000E+000  0.000000000000000E+000        
   1.00000000000000                                                             
   10    8                                                                      
   63.4200000000000       6.044000000000000E-003  0.000000000000000E+000        
  0.000000000000000E+000  0.000000000000000E+000  0.000000000000000E+000        
  0.000000000000000E+000  0.000000000000000E+000  0.000000000000000E+000        
   14.6600000000000       4.179900000000000E-002  0.000000000000000E+000        
  0.000000000000000E+000  0.000000000000000E+000  0.000000000000000E+000        
  0.000000000000000E+000  0.000000000000000E+000  0.000000000000000E+000        
   4.45900000000000       0.161143000000000       0.000000000000000E+000        
  0.000000000000000E+000  0.000000000000000E+000  0.000000000000000E+000        
  0.000000000000000E+000  0.000000000000000E+000  0.000000000000000E+000        
   1.53100000000000       0.356731000000000        1.00000000000000             
  0.000000000000000E+000  0.000000000000000E+000  0.000000000000000E+000        
  0.000000000000000E+000  0.000000000000000E+000  0.000000000000000E+000        
  0.530200000000000       0.448309000000000       0.000000000000000E+000        
   1.00000000000000       0.000000000000000E+000  0.000000000000000E+000        
  0.000000000000000E+000  0.000000000000000E+000  0.000000000000000E+000        
  0.175000000000000       0.244940000000000       0.000000000000000E+000        
  0.000000000000000E+000   1.00000000000000       0.000000000000000E+000        
  0.000000000000000E+000  0.000000000000000E+000  0.000000000000000E+000        
   14.4750000000000       0.000000000000000E+000  0.000000000000000E+000        
  0.000000000000000E+000  0.000000000000000E+000   1.00000000000000             
  0.000000000000000E+000  0.000000000000000E+000  0.000000000000000E+000        
   42.7300000000000       0.000000000000000E+000  0.000000000000000E+000        
  0.000000000000000E+000  0.000000000000000E+000  0.000000000000000E+000        
   1.00000000000000       0.000000000000000E+000  0.000000000000000E+000        
   126.140000000000       0.000000000000000E+000  0.000000000000000E+000        
  0.000000000000000E+000  0.000000000000000E+000  0.000000000000000E+000        
  0.000000000000000E+000   1.00000000000000       0.000000000000000E+000        
  5.348000000000000E-002  0.000000000000000E+000  0.000000000000000E+000        
  0.000000000000000E+000  0.000000000000000E+000  0.000000000000000E+000        
  0.000000000000000E+000  0.000000000000000E+000   1.00000000000000             
    6    6                                                                      
   3.77500000000000        1.00000000000000       0.000000000000000E+000        
  0.000000000000000E+000  0.000000000000000E+000  0.000000000000000E+000        
  0.000000000000000E+000                                                        
   1.30000000000000       0.000000000000000E+000   1.00000000000000             
  0.000000000000000E+000  0.000000000000000E+000  0.000000000000000E+000        
  0.000000000000000E+000                                                        
  0.444000000000000       0.000000000000000E+000  0.000000000000000E+000        
   1.00000000000000       0.000000000000000E+000  0.000000000000000E+000        
  0.000000000000000E+000                                                        
   14.9270000000000       0.000000000000000E+000  0.000000000000000E+000        
  0.000000000000000E+000   1.00000000000000       0.000000000000000E+000        
  0.000000000000000E+000                                                        
   57.5440000000000       0.000000000000000E+000  0.000000000000000E+000        
  0.000000000000000E+000  0.000000000000000E+000   1.00000000000000             
  0.000000000000000E+000                                                        
  0.154000000000000       0.000000000000000E+000  0.000000000000000E+000        
  0.000000000000000E+000  0.000000000000000E+000  0.000000000000000E+000        
   1.00000000000000                                                             
    4    4                                                                      
   2.66600000000000        1.00000000000000       0.000000000000000E+000        
  0.000000000000000E+000  0.000000000000000E+000                                
  0.859000000000000       0.000000000000000E+000   1.00000000000000             
  0.000000000000000E+000  0.000000000000000E+000                                
   26.4830000000000       0.000000000000000E+000  0.000000000000000E+000        
   1.00000000000000       0.000000000000000E+000                                
  0.324000000000000       0.000000000000000E+000  0.000000000000000E+000        
  0.000000000000000E+000   1.00000000000000                                     
    2    2                                                                      
   1.84600000000000        1.00000000000000       0.000000000000000E+000        
  0.714000000000000       0.000000000000000E+000   1.00000000000000             
FINISH                                                                          
 
********************************************************************************
 ONE- AND TWO-ELECTRON INTEGRALS OVER SYMMETRY-ADAPTED AOS ARE CALCULATED.

  SPHERICAL HARMONICS ARE USED.
  
  INTEGRALS LESS THAN  0.10E-13 ARE NEGLECTED.

  NUCLEAR REPULSION ENERGY :   25.5768931667 A.U.
  @MOLECU-I, ONE ELECTRON INTEGRALS (CPU/WALL):        0.06/       0.07 SECONDS.
  @TWOEL-I,    4668243 INTEGRALS OF SYMMETRY TYPE  I I I I
  @TWOEL-I,   19975160 INTEGRALS OF SYMMETRY TYPE  I J I J
  @TWOEL-I,   10534449 INTEGRALS OF SYMMETRY TYPE  I I J J
  @TWOEL-I,   14758018 INTEGRALS OF SYMMETRY TYPE  I J K L
  @TWOEL-I, TOTAL NUMBER OF 2-E INTEGRALS   49935870.
  @MOLECU-I, TWO ELECTRON INTEGRALS (CPU/WALL):      198.19/      28.26 SECONDS.
 @CHECKOUT-I, Total execution time (CPU/WALL):      198.27/      28.35 seconds.

Running with 14 threads/proc

--executable xvmol finished with status     0 in       28.36 seconds (walltime).
 --invoking executable--
/nfs/workspaces/public/cfour_mpi/bin/xvmol2ja
 @GETMEM-I,  Allocated    3814 MB of main memory.
 @CHECKOUT-I, Total execution time (CPU/WALL):        0.08/       0.05 seconds.
--executable xvmol2ja finished with status     0 in        0.07 seconds (walltime).
 --invoking executable--
/nfs/workspaces/public/cfour_mpi/bin/xvprop
 @GETMEM-I,  Allocated    3814 MB of main memory.
   Property integrals will be calculated.
    --------------------------------------------------------------
                                   Property evaluated at 
    Property type                X             Y             Z
    --------------------------------------------------------------
    Dipole moment               ----          ----          ----  
    Quadrupole moment           ----          ----          ----  
    Octopole moment             ----          ----          ----  
    Relativisitic corr.         ----          ----          ----  
    Second moment            0.0000000     0.0000000     0.0000000
    Electron density         0.0000000     0.0000000     1.0722504
    Electron density         0.0000000     0.0000000    -0.8044435
    Field gradient           0.0000000     0.0000000     1.0722504
    Field gradient           0.0000000     0.0000000    -0.8044435
    Potential                0.0000000     0.0000000     1.0722504
    Potential                0.0000000     0.0000000    -0.8044435
    --------------------------------------------------------------
 @CHECKOUT-I, Total execution time (CPU/WALL):        1.34/       1.38 seconds.
--executable xvprop finished with status     0 in        1.39 seconds (walltime).
 --invoking executable--
/nfs/workspaces/public/cfour_mpi/bin/xvscf
  There are  218 functions in the AO basis.

  There are 4 irreducible representations.

       Irrep        # of functions
         1                 86
         2                 52
         3                 52
         4                 28


  Parameters for SCF calculation: 
        SCF reference function:  RHF  
  Maximum number of iterations:  150
     Full symmetry point group: CXv 
     Computational point group: C2v 
        Initial density matrix: MOREAD                 
     SCF convergence tolerance: 10**(-10)
  DIIS convergence acceleration:  ON
          Latest start for DIIS:   8
                     DIIS order:   6

  Memory information:    2523578 words required.
  Fock matrices are constructed from AO integral file.
 @GETMEM-I,  Allocated      19 MB of main memory.
  Initialization and symmetry analysis required      0.001 seconds.

  Adding electric field perturbation to one-electron Hamiltonian.
  Field direction     : Z
  Field strength      : -0.0002000 a.u.

  @INITGES-I, Occupancies from core Hamiltonian:

          Alpha population by irrep:   5    1    1    0
           Beta population by irrep:   5    1    1    0


 total no. of electrons in initial guess :  0.000000000000000E+000
  --------------------------------------------------------------------
  Iteration         Total Energy            Largest Density Difference
  --------------------------------------------------------------------
       0            25.576892757577383              0.0000000000D+00
   current occupation vector 
     5  1  1  0
     5  1  1  0
       1           -90.495052781135115              0.1986135304D+02
   current occupation vector 
     5  1  1  0
     5  1  1  0
       2           -93.019803075537965              0.9741604548D+02
   current occupation vector 
     5  1  1  0
     5  1  1  0
       3          -103.453534515684282              0.9740322807D+02
   current occupation vector 
     5  1  1  0
     5  1  1  0
       4          -100.869903699831639              0.1402725914D+02
   current occupation vector 
     5  1  1  0
     5  1  1  0
       5          -105.760541399017370              0.1404934737D+02
   current occupation vector 
     5  1  1  0
     5  1  1  0
       6          -103.132306991702592              0.9276037048D+01
   current occupation vector 
     5  1  1  0
     5  1  1  0
       7          -104.724634253171615              0.9045482069D+01
   current occupation vector 
     5  1  1  0
     5  1  1  0
       8          -102.102881383259287              0.5139349812D+01
   current occupation vector 
     5  1  1  0
     5  1  1  0
       9          -111.708074257425295              0.3367858243D+01
   current occupation vector 
     5  1  1  0
     5  1  1  0
      10          -112.611277313530934              0.8411396551D+00
   current occupation vector 
     5  1  1  0
     5  1  1  0
      11          -112.747900876294068              0.3190015688D+00
   current occupation vector 
     5  1  1  0
     5  1  1  0
      12          -112.749339335367353              0.3183305645D-01
   current occupation vector 
     5  1  1  0
     5  1  1  0
      13          -112.749400999432879              0.1195809288D-01
   current occupation vector 
     5  1  1  0
     5  1  1  0
      14          -112.749404815134596              0.2824461594D-02
   current occupation vector 
     5  1  1  0
     5  1  1  0
      15          -112.749404933494503              0.3723817196D-03
   current occupation vector 
     5  1  1  0
     5  1  1  0
      16          -112.749404936297537              0.4332824081D-04
   current occupation vector 
     5  1  1  0
     5  1  1  0
      17          -112.749404936440982              0.1722438175D-04
   current occupation vector 
     5  1  1  0
     5  1  1  0
      18          -112.749404936452606              0.2408441702D-05
   current occupation vector 
     5  1  1  0
     5  1  1  0
      19          -112.749404936454511              0.5601629562D-06
   current occupation vector 
     5  1  1  0
     5  1  1  0
      20          -112.749404936451953              0.6260418817D-07
   current occupation vector 
     5  1  1  0
     5  1  1  0
      21          -112.749404936454113              0.2264344467D-07
   current occupation vector 
     5  1  1  0
     5  1  1  0
      22          -112.749404936452663              0.4666527609D-08
   current occupation vector 
     5  1  1  0
     5  1  1  0
      23          -112.749404936453146              0.7767236854D-09
   current occupation vector 
     5  1  1  0
     5  1  1  0
      24          -112.749404936452635              0.2329495347D-09
   current occupation vector 
     5  1  1  0
     5  1  1  0
      25          -112.749404936451697              0.1601889177D-09
   current occupation vector 
     5  1  1  0
     5  1  1  0

  SCF has converged.

 Density matrix saved to file den.dat
 total electron number:   14.0000000000000     
     E(SCF)=      -112.749404936453772              0.9061854045D-10

  Eigenvector printing suppressed.

 @PUTMOS-I, Writing converged MOs to NEWMOS. 
 @PUTMOS-I, Symmetry   1 Full Blocks 21 Partial Blocksize   2
 @PUTMOS-I, Symmetry   2 Full Blocks 13 Partial Blocksize   0
 @PUTMOS-I, Symmetry   3 Full Blocks 13 Partial Blocksize   0
 @PUTMOS-I, Symmetry   4 Full Blocks  7 Partial Blocksize   0
 @PUTFOCK-I, Writing converged Fock matrix to NEWFOCK. 
 @PUTFOCK-I, Symmetry   1 Full Blocks 21 Partial Blocksize   2
 @PUTFOCK-I, Symmetry   2 Full Blocks 13 Partial Blocksize   0
 @PUTFOCK-I, Symmetry   3 Full Blocks 13 Partial Blocksize   0
 @PUTFOCK-I, Symmetry   4 Full Blocks  7 Partial Blocksize   0


 
  ORBITAL EIGENVALUES (ALPHA)  (1H = 27.2113834 eV)

       MO #        E(hartree)               E(eV)           FULLSYM    COMPSYM
       ----   --------------------   --------------------   -------   ---------
    1     1         -20.6558516391        -562.0742984049     SG+        A1 (1)
    2     2         -11.2983755999        -307.4444302450     SG+        A1 (1)
    3     3          -1.6179033354         -44.0253879637     SG+        A1 (1)
    4     4          -0.8164268649         -22.2161044397     SG+        A1 (1)
    5   139          -0.7065011569         -19.2248738525      PI        B2 (3)
    6    87          -0.7065011569         -19.2248738525      PI        B1 (2)
    7     5          -0.5360050705         -14.5854394779     SG+        A1 (1)
  +++++++++++++++++++++++++++++++++++++++++++++++++++++++++++++++++++++++++++++
    8     6           0.0581266533           1.5817066482     SG+        A1 (1)
    9   140           0.0644464306           1.7536765321      PI        B2 (3)
   10    88           0.0644464306           1.7536765321      PI        B1 (2)
   11     7           0.0756221721           2.0577839188     SG+        A1 (1)
   12   141           0.1550168755           4.2182236330      PI        B2 (3)
   13    89           0.1550168755           4.2182236330      PI        B1 (2)
   14     8           0.1565379361           4.2596137965     SG+        A1 (1)
   15   142           0.1905188837           5.1842823884      PI        B2 (3)
   16    90           0.1905188837           5.1842823884      PI        B1 (2)
   17     9           0.2271299099           6.1805190602     SG+        A1 (1)
   18   191           0.2273529138           6.1865873040      DE        A2 (4)
   19    10           0.2273529138           6.1865873040      DE        A1 (1)
   20    11           0.3019332579           8.2160216425     SG+        A1 (1)
   21    91           0.3372688712           9.1775525619      PI        B1 (2)
   22   143           0.3372688712           9.1775525619      PI        B2 (3)
   23    12           0.3965036216          10.7894120682     SG+        A1 (1)
   24   144           0.4021878747          10.9440884584      PI        B2 (3)
   25    92           0.4021878747          10.9440884584      PI        B1 (2)
   26    13           0.5081267019          13.8268305019     SG+        A1 (1)
   27   192           0.5244380779          14.2706856072      DE        A2 (4)
   28    14           0.5244380779          14.2706856073      DE        A1 (1)
   29   145           0.6188942216          16.8409679486      PI        B2 (3)
   30    93           0.6188942216          16.8409679486      PI        B1 (2)
   31    15           0.6620824977          18.0161806876     SG+        A1 (1)
   32   146           0.7500530744          20.4099817780      PH        B2 (3)
   33    94           0.7500530744          20.4099817780      PH        B1 (2)
   34   193           0.7703895839          20.9633663345      DE        A2 (4)
   35    16           0.7703895839          20.9633663345      DE        A1 (1)
   36    17           0.7891410802          21.4736204903     SG+        A1 (1)
   37    95           0.8407123526          22.8769461551      PI        B1 (2)
   38   147           0.8407123526          22.8769461551      PI        B2 (3)
   39   148           0.8723560561          23.7380151045      PI        B2 (3)
   40    96           0.8723560561          23.7380151045      PI        B1 (2)
   41    18           0.8772035799          23.8699229321     SG+        A1 (1)
   42   194           0.9022576377          24.5516785054      DE        A2 (4)
   43    19           0.9022576377          24.5516785055      DE        A1 (1)
   44    20           0.9555246837          26.0011485151     SG+        A1 (1)
   45    97           1.1124746713          30.2719748028      PI        B1 (2)
   46   149           1.1124746713          30.2719748028      PI        B2 (3)
   47    21           1.3184049215          35.8756217954     SG+        A1 (1)
   48   150           1.4567394456          39.6398955672      PH        B2 (3)
   49    98           1.4567394456          39.6398955672      PH        B1 (2)
   50   195           1.5004130048          40.8283135308      DE        A2 (4)
   51    22           1.5004130048          40.8283135308      DE        A1 (1)
   52   151           1.5321406646          41.6916670470      PI        B2 (3)
   53    99           1.5321406646          41.6916670470      PI        B1 (2)
   54    23           1.5469171634          42.0937560217     SG+        A1 (1)
   55    24           1.6547543285          45.0281544652     SG+        A1 (1)
   56    25           1.7552243094          47.7620816352     SG+        A1 (1)
   57   196           1.7764475879          48.3395964041      DE        A2 (4)
   58    26           1.7764475879          48.3395964043      DE        A1 (1)
   59   152           1.8702125067          50.8910695580      PI        B2 (3)
   60   100           1.8702125067          50.8910695580      PI        B1 (2)
   61   153           1.9678050699          53.5466982142      PI        B2 (3)
   62   101           1.9678050699          53.5466982142      PI        B1 (2)
   63   197           2.1134579208          57.5101137830      PI        A2 (4)
   64    27           2.1134579208          57.5101137830      PI        A1 (1)
   65    28           2.2131628972          60.2232241220     SG+        A1 (1)
   66   198           2.2273488669          60.6092439835      DE        A2 (4)
   67    29           2.2273488669          60.6092439835      DE        A1 (1)
   68   154           2.2615135670          61.5389127354      PH        B2 (3)
   69   102           2.2615135670          61.5389127354      PH        B1 (2)
   70    30           2.3369891985          63.5927090810     SG+        A1 (1)
   71   103           2.3495858397          63.9354811164      PI        B1 (2)
   72   155           2.3495858397          63.9354811164      PI        B2 (3)
   73   199           2.3840448937          64.8731596466      DE        A2 (4)
   74    31           2.3840448937          64.8731596466      DE        A1 (1)
   75   156           2.4150752450          65.7175384325      PH        B2 (3)
   76   104           2.4150752450          65.7175384325      PH        B1 (2)
   77    32           2.5660636974          69.8261430996     SG+        A1 (1)
   78   105           2.6110346940          71.0498661304      PI        B1 (2)
   79   157           2.6110346940          71.0498661304      PI        B2 (3)
   80   106           2.9835150311          81.1855713899      PI        B1 (2)
   81   158           2.9835150311          81.1855713899      PI        B2 (3)
   82   200           3.1170164614          84.8183299949      DE        A2 (4)
   83    33           3.1170164614          84.8183299952      DE        A1 (1)
   84    34           3.1195315624          84.8867693731     SG+        A1 (1)
   85    35           3.3983145498          92.4728401283     SG+        A1 (1)
   86   159           3.7570544582         102.2346493156      PI        B2 (3)
   87   107           3.7570544582         102.2346493156      PI        B1 (2)
   88    36           3.7575077578         102.2469842267      PI        A1 (1)
   89   201           3.7575077578         102.2469842267      PI        A2 (4)
   90    37           3.9902288984         108.5796484093     SG+        A1 (1)
   91   160           4.0676742266         110.6870429254      PH        B2 (3)
   92   108           4.0676742266         110.6870429254      PH        B1 (2)
   93   202           4.1796488244         113.7340266388      DE        A2 (4)
   94    38           4.1796488244         113.7340266388      DE        A1 (1)
   95   109           4.2114702511         114.5999316811      PI        B1 (2)
   96   161           4.2114702511         114.5999316811      PI        B2 (3)
   97    39           4.3241025290         117.6648117773     SG+        A1 (1)
   98   203           4.4422472071         120.8796919086      DE        A2 (4)
   99    40           4.4422472071         120.8796919087      DE        A1 (1)
  100   110           4.4456013751         120.9709634615      PH        B1 (2)
  101   162           4.4456013751         120.9709634615      PH        B2 (3)
  102    41           4.6865515881         127.5275520882     SG+        A1 (1)
  103   111           4.8487458050         131.9410811097      PI        B1 (2)
  104   163           4.8487458050         131.9410811097      PI        B2 (3)
  105    42           5.0343185771         136.9907729596     SG+        A1 (1)
  106   204           5.1996011335         141.4883399706      DE        A2 (4)
  107    43           5.1996011335         141.4883399707      DE        A1 (1)
  108   112           5.3016596319         144.2654928998      PI        B1 (2)
  109   164           5.3016596319         144.2654928998      PI        B2 (3)
  110   205           5.9217588886         161.1392515208      PI        A2 (4)
  111    44           5.9217588886         161.1392515208      PI        A1 (1)
  112   113           5.9639214461         162.2865530363      PI        B1 (2)
  113   165           5.9639214461         162.2865530363      PI        B2 (3)
  114    45           6.1707197574         167.9138211735     SG+        A1 (1)
  115   114           6.2769104542         170.8034169381      PH        B1 (2)
  116   166           6.2769104542         170.8034169381      PH        B2 (3)
  117    46           6.2866528159         171.0685200751     SG+        A1 (1)
  118   206           6.3343716224         172.3670148160      DE        A2 (4)
  119    47           6.3343716224         172.3670148160      DE        A1 (1)
  120   115           6.3811522862         173.6399813945      PI        B1 (2)
  121   167           6.3811522862         173.6399813945      PI        B2 (3)
  122   168           6.4929353229         176.6817524641      PH        B2 (3)
  123   116           6.4929353229         176.6817524641      PH        B1 (2)
  124   207           6.7080226893         182.5345772535      DE        A2 (4)
  125    48           6.7080226893         182.5345772535      DE        A1 (1)
  126    49           7.1373626111         194.2175104752     SG+        A1 (1)
  127   169           7.8459804441         213.4999820124      PI        B2 (3)
  128   117           7.8459804441         213.4999820124      PI        B1 (2)
  129   208           7.9270597536         215.7062621888      DE        A2 (4)
  130    50           7.9270597536         215.7062621889      DE        A1 (1)
  131    51           8.3160286585         226.2906441922     SG+        A1 (1)
  132    52           8.7622647884         238.4333466085     SG+        A1 (1)
  133   118           8.8792404985         241.6164175048      PI        B1 (2)
  134   170           8.8792404985         241.6164175049      PI        B2 (3)
  135    53           9.9164479412         269.8402668944     SG+        A1 (1)
  136   171          10.1530229951         276.2778013896      PI        B2 (3)
  137   119          10.1530229951         276.2778013898      PI        B1 (2)
  138    54          10.6029227928         288.5201972742      PI        A1 (1)
  139   209          10.6029227928         288.5201972742      PI        A2 (4)
  140   172          11.0046139654         299.4507697802      PH        B2 (3)
  141   120          11.0046139654         299.4507697802      PH        B1 (2)
  142   210          11.2989679985         307.4605502318      DE        A2 (4)
  143    55          11.2989679985         307.4605502318      DE        A1 (1)
  144    56          11.3382028288         308.5281842417     SG+        A1 (1)
  145   121          11.4379451192         311.2423099475      PI        B1 (2)
  146   173          11.4379451192         311.2423099475      PI        B2 (3)
  147   174          11.8656651389         322.8811633895      PH        B2 (3)
  148   122          11.8656651389         322.8811633895      PH        B1 (2)
  149   211          12.4298009546         338.2320793605      DE        A2 (4)
  150    57          12.4298009546         338.2320793609      DE        A1 (1)
  151    58          12.5495631478         341.4909743185     SG+        A1 (1)
  152   175          13.0493119579         355.0898307933      PI        B2 (3)
  153   123          13.0493119579         355.0898307933      PI        B1 (2)
  154   212          13.0513481256         355.1452377336      DE        A2 (4)
  155    59          13.0513481256         355.1452377337      DE        A1 (1)
  156    60          13.9763092164         380.3147086031     SG+        A1 (1)
  157   124          14.9591962385         407.0604242029      PI        B1 (2)
  158   176          14.9591962385         407.0604242029      PI        B2 (3)
  159    61          15.7264230693         427.9377276502     SG+        A1 (1)
  160    62          18.6371175954         507.1417523605     SG+        A1 (1)
  161   125          19.6345004473         534.2819195378      PI        B1 (2)
  162   177          19.6345004473         534.2819195380      PI        B2 (3)
  163    63          21.3406402077         580.7083426944     SG+        A1 (1)
  164    64          26.7046390053         726.6701705318      DE        A1 (1)
  165   213          26.7046390053         726.6701705318      DE        A2 (4)
  166   126          27.5676182189         750.1530287785      PI        B1 (2)
  167   178          27.5676182189         750.1530287785      PI        B2 (3)
  168    65          28.8250798250         784.3702986545     SG+        A1 (1)
  169   179          33.9263699322         923.1834595951      PI        B2 (3)
  170   127          33.9263699322         923.1834595956      PI        B1 (2)
  171    66          35.7824139326         973.6889844981     SG+        A1 (1)
  172    67          37.4095907390        1017.9667164355     SG+        A1 (1)
  173    68          47.1877358140        1284.0435710130      DE        A1 (1)
  174   214          47.1877358140        1284.0435710130      DE        A2 (4)
  175   180          48.1019432130        1308.9204190528      PI        B2 (3)
  176   128          48.1019432130        1308.9204190529      PI        B1 (2)
  177    69          48.7769519704        1327.2883411508     SG+        A1 (1)
  178    70          64.7199575312        1761.1195780144     SG+        A1 (1)
  179   129          67.0654968520        1824.9449477504      PI        B1 (2)
  180   181          67.0654968520        1824.9449477506      PI        B2 (3)
  181    71          68.3406968042        1859.6449025618     SG+        A1 (1)
  182   182          98.7479261831        2687.0676793235      PH        B2 (3)
  183   130          98.7479261831        2687.0676793235      PH        B1 (2)
  184    72          98.7896053298        2688.2018265627      DE        A1 (1)
  185   215          98.7896053298        2688.2018265627      DE        A2 (4)
  186   183          98.8589014871        2690.0874708691      PI        B2 (3)
  187   131          98.8589014871        2690.0874708691      PI        B1 (2)
  188    73          98.8954743724        2691.0826696713     SG+        A1 (1)
  189   184         103.2960938949        2810.8296146952      PH        B2 (3)
  190   132         103.2960938949        2810.8296146953      PH        B1 (2)
  191   216         103.3632802093        2812.6578472559      DE        A2 (4)
  192    74         103.3632802093        2812.6578472570      DE        A1 (1)
  193   133         103.4231133008        2814.2859884494      PI        B1 (2)
  194   185         103.4231133008        2814.2859884494      PI        B2 (3)
  195    75         103.5203928070        2816.9330983901     SG+        A1 (1)
  196   217         115.3149278925        3137.8787146267      DE        A2 (4)
  197    76         115.3149278925        3137.8787146267      DE        A1 (1)
  198   134         115.7354474121        3149.3216325018      PI        B1 (2)
  199   186         115.7354474121        3149.3216325018      PI        B2 (3)
  200    77         116.2509972006        3163.3504554566     SG+        A1 (1)
  201   187         117.1584492711        3188.0434816647      PI        B2 (3)
  202   135         117.1584492711        3188.0434816653      PI        B1 (2)
  203    78         118.9141699970        3235.8190714801     SG+        A1 (1)
  204    79         123.2944763864        3355.0132680521     SG+        A1 (1)
  205    80         198.6265214785        5404.9024293605      DE        A1 (1)
  206   218         198.6265214785        5404.9024293605      DE        A2 (4)
  207   188         199.1301317042        5418.6063602951      PI        B2 (3)
  208   136         199.1301317042        5418.6063602952      PI        B1 (2)
  209    81         199.5011212203        5428.7014982553     SG+        A1 (1)
  210    82         217.1415359336        5908.7215863536     SG+        A1 (1)
  211   137         225.4606132393        6135.0951884540      PI        B1 (2)
  212   189         225.4606132393        6135.0951884541      PI        B2 (3)
  213    83         226.4922618557        6163.1677744881     SG+        A1 (1)
  214   190         395.5935605100       10764.6480456087      PI        B2 (3)
  215   138         395.5935605100       10764.6480456096      PI        B1 (2)
  216    84         396.8736338275       10799.4806114316     SG+        A1 (1)
  217    85         509.7301933073       13870.4637206408     SG+        A1 (1)
  218    86         895.9956236136       24381.2804388704     SG+        A1 (1)


  VSCF finished.

 @CHECKOUT-I, Total execution time (CPU/WALL):       47.70/       9.54 seconds.
--executable xvscf finished with status     0 in        9.56 seconds (walltime).
 --invoking executable--
/nfs/workspaces/public/cfour_mpi/bin/xvtran
 @GETMEM-I,  Allocated    3814 MB of main memory.
  Full RHF integral transformation
  Transformation of IIII integrals :
  1 pass through the AO integral file was required.
     4668243 AO integrals were read.
     8883720 MO integrals were written to HF2.
  Transformation of IIJJ integrals :
  1 pass through the AO integral file was required.
    10534449 AO integrals were read.
    14698334 MO integrals were written to HF2.
  Transformation of IJIJ integrals :
  1 pass through the AO integral file was required.
    19975160 AO integrals were read.
    27774868 MO integrals were written to HF2.
  Transformation of IJKL integrals :
  1 pass through the AO integral file was required.
    14758018 AO integrals were read.
    18755746 MO integrals were written to HF2.
  Summary of active molecular orbitals: 
------------------------------------------------------------------------
 
  Index      Eigenvalue    Symmetry    Index      Eigenvalue    Symmetry
------------------------------------------------------------------------
     1       -20.6558516        1       110         4.2114703        2
     2       -11.2983756        1       111         4.4456014        2
     3        -1.6179033        1       112         4.8487458        2
     4        -0.8164269        1       113         5.3016596        2
     5        -0.5360051        1       114         5.9639214        2
     6        -0.7065012        2       115         6.2769105        2
     7        -0.7065012        3       116         6.3811523        2
     8         0.0581267        1       117         6.4929353        2
     9         0.0756222        1       118         7.8459804        2
    10         0.1565379        1       119         8.8792405        2
    11         0.2271299        1       120        10.1530230        2
    12         0.2273529        1       121        11.0046140        2
    13         0.3019333        1       122        11.4379451        2
    14         0.3965036        1       123        11.8656651        2
    15         0.5081267        1       124        13.0493120        2
    16         0.5244381        1       125        14.9591962        2
    17         0.6620825        1       126        19.6345004        2
    18         0.7703896        1       127        27.5676182        2
    19         0.7891411        1       128        33.9263699        2
    20         0.8772036        1       129        48.1019432        2
    21         0.9022576        1       130        67.0654969        2
    22         0.9555247        1       131        98.7479262        2
    23         1.3184049        1       132        98.8589015        2
    24         1.5004130        1       133       103.2960939        2
    25         1.5469172        1       134       103.4231133        2
    26         1.6547543        1       135       115.7354474        2
    27         1.7552243        1       136       117.1584493        2
    28         1.7764476        1       137       199.1301317        2
    29         2.1134579        1       138       225.4606132        2
    30         2.2131629        1       139       395.5935605        2
    31         2.2273489        1       140         0.0644464        3
    32         2.3369892        1       141         0.1550169        3
    33         2.3840449        1       142         0.1905189        3
    34         2.5660637        1       143         0.3372689        3
    35         3.1170165        1       144         0.4021879        3
    36         3.1195316        1       145         0.6188942        3
    37         3.3983145        1       146         0.7500531        3
    38         3.7575078        1       147         0.8407124        3
    39         3.9902289        1       148         0.8723561        3
    40         4.1796488        1       149         1.1124747        3
    41         4.3241025        1       150         1.4567394        3
    42         4.4422472        1       151         1.5321407        3
    43         4.6865516        1       152         1.8702125        3
    44         5.0343186        1       153         1.9678051        3
    45         5.1996011        1       154         2.2615136        3
    46         5.9217589        1       155         2.3495858        3
    47         6.1707198        1       156         2.4150752        3
    48         6.2866528        1       157         2.6110347        3
    49         6.3343716        1       158         2.9835150        3
    50         6.7080227        1       159         3.7570545        3
    51         7.1373626        1       160         4.0676742        3
    52         7.9270598        1       161         4.2114703        3
    53         8.3160287        1       162         4.4456014        3
    54         8.7622648        1       163         4.8487458        3
    55         9.9164479        1       164         5.3016596        3
    56        10.6029228        1       165         5.9639214        3
    57        11.2989680        1       166         6.2769105        3
    58        11.3382028        1       167         6.3811523        3
    59        12.4298010        1       168         6.4929353        3
    60        12.5495631        1       169         7.8459804        3
    61        13.0513481        1       170         8.8792405        3
    62        13.9763092        1       171        10.1530230        3
    63        15.7264231        1       172        11.0046140        3
    64        18.6371176        1       173        11.4379451        3
    65        21.3406402        1       174        11.8656651        3
    66        26.7046390        1       175        13.0493120        3
    67        28.8250798        1       176        14.9591962        3
    68        35.7824139        1       177        19.6345004        3
    69        37.4095907        1       178        27.5676182        3
    70        47.1877358        1       179        33.9263699        3
    71        48.7769520        1       180        48.1019432        3
    72        64.7199575        1       181        67.0654969        3
    73        68.3406968        1       182        98.7479262        3
    74        98.7896053        1       183        98.8589015        3
    75        98.8954744        1       184       103.2960939        3
    76       103.3632802        1       185       103.4231133        3
    77       103.5203928        1       186       115.7354474        3
    78       115.3149279        1       187       117.1584493        3
    79       116.2509972        1       188       199.1301317        3
    80       118.9141700        1       189       225.4606132        3
    81       123.2944764        1       190       395.5935605        3
    82       198.6265215        1       191         0.2273529        4
    83       199.5011212        1       192         0.5244381        4
    84       217.1415359        1       193         0.7703896        4
    85       226.4922619        1       194         0.9022576        4
    86       396.8736338        1       195         1.5004130        4
    87       509.7301933        1       196         1.7764476        4
    88       895.9956236        1       197         2.1134579        4
    89         0.0644464        2       198         2.2273489        4
    90         0.1550169        2       199         2.3840449        4
    91         0.1905189        2       200         3.1170165        4
    92         0.3372689        2       201         3.7575078        4
    93         0.4021879        2       202         4.1796488        4
    94         0.6188942        2       203         4.4422472        4
    95         0.7500531        2       204         5.1996011        4
    96         0.8407124        2       205         5.9217589        4
    97         0.8723561        2       206         6.3343716        4
    98         1.1124747        2       207         6.7080227        4
    99         1.4567394        2       208         7.9270598        4
   100         1.5321407        2       209        10.6029228        4
   101         1.8702125        2       210        11.2989680        4
   102         1.9678051        2       211        12.4298010        4
   103         2.2615136        2       212        13.0513481        4
   104         2.3495858        2       213        26.7046390        4
   105         2.4150752        2       214        47.1877358        4
   106         2.6110347        2       215        98.7896053        4
   107         2.9835150        2       216       103.3632802        4
   108         3.7570545        2       217       115.3149279        4
   109         4.0676742        2       218       198.6265215        4
------------------------------------------------------------------------
  -20.6558516390943       -11.2983755998594       -1.61790333540047     
 -0.816426864930596      -0.536005070507714      -0.706501156884901     
 -0.706501156884927       5.812665328011871E-002  7.562217210820744E-002
  0.156537936122647       0.227129909912531       0.227352913782665     
  0.301933257919429       0.396503621649178       0.508126701927800     
  0.524438077898531       0.662082497708794       0.770389583885721     
  0.789141080211117       0.877203579885343       0.902257637716996     
  0.955524683655494        1.31840492149892        1.50041300475779     
   1.54691716341347        1.65475432848437        1.75522430936914     
   1.77644758789708        2.11345792081370        2.21316289718513     
   2.22734886692820        2.33698919846123        2.38404489374878     
   2.56606369743079        3.11701646139831        3.11953156240774     
   3.39831454979731        3.75750775782664        3.99022889844497     
   4.17964882442563        4.32410252899091        4.44224720705240     
   4.68655158811787        5.03431857711351        5.19960113349954     
   5.92175888862859        6.17071975743266        6.28665281586074     
   6.33437162242956        6.70802268926666        7.13736261109018     
   7.92705975356263        8.31602865851351        8.76226478836375     
   9.91644794120954        10.6029227927542        11.2989679985123     
   11.3382028288093        12.4298009545839        12.5495631478439     
   13.0513481256408        13.9763092163528        15.7264230693323     
   18.6371175954418        21.3406402077464        26.7046390053011     
   28.8250798250308        35.7824139326211        37.4095907389819     
   47.1877358140116        48.7769519704321        64.7199575312439     
   68.3406968041852        98.7896053297564        98.8954743723656     
[...]
 Convergence information after     7 iterations: 
 Largest element of residual vector : -0.72250141E-04.
 Largest element of DIIS residual   : -0.31524719E-04.
 Convergence information after     8 iterations: 
 Largest element of residual vector : -0.19162596E-04.
 Largest element of DIIS residual   :  0.13179479E-04.
 Convergence information after     9 iterations: 
 Largest element of residual vector :  0.64452870E-05.
 Largest element of DIIS residual   :  0.31198120E-05.
 Convergence information after    10 iterations: 
 Largest element of residual vector :  0.25115717E-05.
 Largest element of DIIS residual   :  0.14661160E-05.
 Convergence information after    11 iterations: 
 Largest element of residual vector :  0.74510550E-06.
 Largest element of DIIS residual   :  0.39990543E-06.
 Convergence information after    12 iterations: 
 Largest element of residual vector :  0.30976031E-06.
 Largest element of DIIS residual   :  0.20187781E-06.
 Convergence information after    13 iterations: 
 Largest element of residual vector :  0.12943659E-06.
 Largest element of DIIS residual   :  0.10899349E-06.
 Convergence information after    14 iterations: 
 Largest element of residual vector :  0.76902186E-07.
 Largest element of DIIS residual   :  0.55984803E-07.
 Perturbed amplitude equations converged in    14 iterations.
  Dominant contributions to perturbed wavefunction:
    7    7  142   37   0.2618927860 ABAB
    7    7   37  142   0.2618927860 ABAB
    7    7  142   63   0.2121229897 ABAB
    7    7   63  142   0.2121229897 ABAB
    7    7  142   27   0.2021368759 ABAB
    7    7   27  142   0.2021368759 ABAB
    7    6   37   91   0.1789505608 ABAB
    6    7   91   37   0.1789505608 ABAB
    7    7  142   55   0.1711608420 ABAB
    7    7   55  142   0.1711608420 ABAB
    5    5  142   43   0.1695086718 ABAB
    5    5   43  142   0.1695086718 ABAB
    7    7  142   48   0.1605327056 ABAB
    7    7   48  142   0.1605327056 ABAB
    7    7  142   43   0.1570363729 ABAB
    7    7   43  142   0.1570363729 ABAB
    7    7  143   37   0.1539144570 ABAB
    7    7   37  143   0.1539144570 ABAB
    7    6   63   91   0.1438340877 ABAB
    6    7   91   63   0.1438340877 ABAB
  norm of converged amps    2.83702253504828     
 Starting iterative solution of the perturbed Lambda equations.
 The DIIS procedure is used to accelerate convergence.
 Convergence criterion is 10**(-7).
 Maximum number of iterations is 100.
 Convergence information after     1 iterations: 
 Largest element of residual vector : -0.61749522E-01.
 Largest element of DIIS residual   : -0.61749522E-01.
 Convergence information after     2 iterations: 
 Largest element of residual vector :  0.59070321E-02.
 Largest element of DIIS residual   :  0.60674905E-02.
 Convergence information after     3 iterations: 
 Largest element of residual vector : -0.37318027E-02.
 Largest element of DIIS residual   : -0.33269086E-02.
 Convergence information after     4 iterations: 
 Largest element of residual vector : -0.23252463E-02.
 Largest element of DIIS residual   : -0.17523471E-02.
 Convergence information after     5 iterations: 
 Largest element of residual vector : -0.12363036E-02.
 Largest element of DIIS residual   : -0.55286754E-03.
 Convergence information after     6 iterations: 
 Largest element of residual vector : -0.38212088E-03.
 Largest element of DIIS residual   : -0.92070912E-04.
 Convergence information after     7 iterations: 
 Largest element of residual vector : -0.63723155E-04.
 Largest element of DIIS residual   : -0.27563390E-04.
 Convergence information after     8 iterations: 
 Largest element of residual vector : -0.15268537E-04.
 Largest element of DIIS residual   :  0.11356594E-04.
 Convergence information after     9 iterations: 
 Largest element of residual vector :  0.56485335E-05.
 Largest element of DIIS residual   :  0.27166785E-05.
 Convergence information after    10 iterations: 
 Largest element of residual vector :  0.21650209E-05.
 Largest element of DIIS residual   :  0.12875489E-05.
 Convergence information after    11 iterations: 
 Largest element of residual vector :  0.66821000E-06.
 Largest element of DIIS residual   :  0.37837604E-06.
 Convergence information after    12 iterations: 
 Largest element of residual vector :  0.28484118E-06.
 Largest element of DIIS residual   :  0.18674848E-06.
 Convergence information after    13 iterations: 
 Largest element of residual vector :  0.12038118E-06.
 Largest element of DIIS residual   :  0.98957089E-07.
 Perturbed Lambda equations converged in    13 iterations.
  Dominant contributions to perturbed wavefunction:
    7    7  142   37   0.2516738579 ABAB
    7    7   37  142   0.2516738579 ABAB
    7    7  142   63   0.2035872411 ABAB
    7    7   63  142   0.2035872411 ABAB
    7    7  142   27   0.1935428979 ABAB
    7    7   27  142   0.1935428979 ABAB
    7    6   37   91   0.1702064317 ABAB
    6    7   91   37   0.1702064317 ABAB
    7    7  142   55   0.1635176576 ABAB
    7    7   55  142   0.1635176576 ABAB
    5    5  142   43   0.1626402898 ABAB
    5    5   43  142   0.1626402898 ABAB
    7    7  142   48   0.1541826447 ABAB
    7    7   48  142   0.1541826447 ABAB
    7    7  142   43   0.1492561980 ABAB
    7    7   43  142   0.1492561980 ABAB
    7    7  143   37   0.1485910056 ABAB
    7    7   37  143   0.1485910056 ABAB
    5    5  142   54   0.1379811756 ABAB
    5    5   54  142   0.1379811756 ABAB
        The DBOC first-order density matrix is being calculated 
             (Symmetry block 3, perturbation   2)
 term   9.60223427742154     
 final tnorm  0.903102595025481     
  norm contr. I: |<0|L dT/dx|0>|^2   0.000000000000000E+000
  norm contr. II: <0|[nabla(1+L)e-T][nabla e^T]|0>   9.60223427742154     
  total norm contribution   9.60223427742154     
 oo  1.364466232854953E-002
 vv  -72.1367661457857     
 vo  1.875933888703732E-002
  Correlated perturbed 1-el contribution to DBOC  -72.1043621445701       cm**-1
  SUM_I |dc_I/dx|^2 contribution to DBOC   36.1496236368488       cm**-1
 
 
  The total diagonal Born-Oppenheimer correction (DBOC) is:      0.0041560807 a.u.
  The total diagonal Born-Oppenheimer correction (DBOC) is:        912.154278 cm-1
 
 Total CC energy including DBOC  -113.228841893295     
 First-order density matrix is being calculated  (Symmetry block 3, perturbation   2)
 Calculation of the contributions of <pq||rs> to dI(i,j)/dx required   1.9 seconds.
 Calculation of the contributions of <pq||rs> to dI(a,b)/dx required  16.8 seconds.
 Calculation of the contributions of <pq||rs> to dI(i,a)/dx required   9.7 seconds.
 First-order Z-vector equations are solved for 1 perturbation.
 Convergence reached after  17 iterations.
        U*G(pq,rs) contribution is being calculated
             (Symmetry block 3, perturbation   2)

 CCSD contribution to force constants 

        0.0000000000        0.0000000000        0.0000000000
        0.0000000000        0.0000000000        0.0000000000
        0.0000000000        0.0000000000        0.0000000000
        0.0000000000        0.0000000000        0.0000000000
        0.0000000000        0.0000000000        0.0000000000
        0.0000000000        0.0000000000        0.0000000000
        0.0000000000        0.0000000000        0.0000000000
        0.0000000000        0.0000000000        0.0000000000
        0.0000000000        0.0000000000        0.0000000000
        0.0000000000        0.0000000000        0.0000000000
        0.0000000000        0.0000000000        0.0000000000
        0.0000000000      -11.2852481238       11.2852481238

 CCSD contribution to dipole derivatives 

        0.0000000000        0.0000000000        0.0000000000
        0.0000000000        0.0000000000        0.0000000000
        0.0000000000        0.0000000000        0.0000000000
        0.0000000000        0.0000000000       -0.0386088066
        0.0000000000        0.0000000000        0.0000000000
        0.0000000000        0.0000000000        0.0000000000
 @CHECKOUT-I, Total execution time (CPU/WALL):      970.84/     257.89 seconds.
--executable xsdcc finished with status     0 in      257.93 seconds (walltime).
 --invoking executable--
/nfs/workspaces/public/cfour_mpi/bin/xanti
 @GETMEM-I,  Allocated    3814 MB of main memory.
 CCSD MO derivative gammas will be sorted to Mulliken order.
 @CHECKOUT-I, Total execution time (CPU/WALL):       10.20/      15.84 seconds.
--executable xanti finished with status     0 in       15.86 seconds (walltime).
 --invoking executable--
/nfs/workspaces/public/cfour_mpi/bin/xbcktrn
 @GETMEM-I,  Allocated    3814 MB of main memory.
 CCSD MO derivative gammas will be transformed to the AO basis.
 @CHECKOUT-I, Total execution time (CPU/WALL):       23.55/       3.77 seconds.
--executable xbcktrn finished with status     0 in        3.79 seconds (walltime).
 --invoking executable--
/nfs/workspaces/public/cfour_mpi/bin/xvdint
 @GETMEM-I,  Allocated    3814 MB of main memory.
 One- and two-electron integral derivatives are calculated
 for RHF-CC/MBPT hessians and dipole derivatives.
 Spherical gaussians are used.
  magnet F F
                    8722  records have been written to the Sort file.
  Total length of Sort file :             178609116  words.
 Evaluation of 2el integral derivatives

                      Two-electron integral gradient
                      ------------------------------

                         C #1 z     0.0000000000
                         O #2 z     0.0000000000


 C #1       0.0000000000           -1.4554411954            0.0000000000
 O #2       0.0000000000            1.4554411954            0.0000000000


 Evaluation of 2e integral derivatives required  345.49 seconds.
  contribution to Hessian
        0.0000000000        0.0000000000        0.0000000000
        0.0000000000       -1.4554411954        1.4554411954
 @CHECKOUT-I, Total execution time (CPU/WALL):      345.48/      70.66 seconds.
--executable xvdint finished with status     0 in       70.69 seconds (walltime).
 --invoking executable--
/nfs/workspaces/public/cfour_mpi/bin/xanti
 @GETMEM-I,  Allocated    3814 MB of main memory.
 CCSD MO gammas will be sorted to Mulliken order.
 @CHECKOUT-I, Total execution time (CPU/WALL):       10.77/       9.33 seconds.
--executable xanti finished with status     0 in        9.36 seconds (walltime).
 --invoking executable--
/nfs/workspaces/public/cfour_mpi/bin/xbcktrn
 @GETMEM-I,  Allocated    3814 MB of main memory.
 CCSD MO gammas will be transformed to the AO basis.
 @CHECKOUT-I, Total execution time (CPU/WALL):       26.66/       4.06 seconds.
--executable xbcktrn finished with status     0 in        4.07 seconds (walltime).
 --invoking executable--
/nfs/workspaces/public/cfour_mpi/bin/xvdint
 @GETMEM-I,  Allocated    3814 MB of main memory.
 One- and two-electron integral derivatives are calculated
 for RHF-CC/MBPT hessians and dipole derivatives.
 Spherical gaussians are used.
  magnet F F

                     Kinetic energy integral gradient
                     --------------------------------

                         C #1 z    -1.9014848954
                         O #2 z     1.9014848954


 C #1       0.0000000000            0.0000000000           -1.9014848954
 O #2       0.0000000000            0.0000000000            1.9014848954



                   Nuclear attraction integral gradient
                   ------------------------------------

                         C #1 z    27.1793559221
                         O #2 z   -27.1793559221


 C #1       0.0000000000            0.0000000000           27.1793559221
 O #2       0.0000000000            0.0000000000          -27.1793559221



                      Reorthonormalization gradient
                      -----------------------------

                         C #1 z     0.0000000000
                         O #2 z     0.0000000000


 C #1       0.0000000000            0.0000000000            0.0000000000
 O #2       0.0000000000            0.0000000000            0.0000000000



                     Kinetic energy integral Hessian
                     -------------------------------


           Symmetry 1

           C #1 z      O #2 z

 C #1 z    0.730208
 O #2 z   -0.730208    0.730208


           Symmetry 2

           C #1 x      O #2 x

 C #1 x   -3.246591
 O #2 x    3.246591   -3.246591


           Symmetry 3

           C #1 y      O #2 y

 C #1 y   -3.246591
 O #2 y    3.246591   -3.246591




           C #1 x      C #1 y      C #1 z      O #2 x      O #2 y      O #2 z

 C #1 x   -3.246591
 C #1 y    0.000000   -3.246591
 C #1 z    0.000000    0.000000    0.730208

 O #2 x    3.246591    0.000000    0.000000   -3.246591
 O #2 y    0.000000    3.246591    0.000000    0.000000   -3.246591
 O #2 z    0.000000    0.000000   -0.730208    0.000000    0.000000    0.730208




                   Nuclear attraction integral Hessian
                   -----------------------------------


           Symmetry 1

           C #1 z      O #2 z

 C #1 z  -12.871935
 O #2 z   12.871935  -12.871935


           Symmetry 2

           C #1 x      O #2 x

 C #1 x   29.819976
 O #2 x  -29.819976   29.819976


           Symmetry 3

           C #1 y      O #2 y

 C #1 y   29.819976
 O #2 y  -29.819976   29.819976




           C #1 x      C #1 y      C #1 z      O #2 x      O #2 y      O #2 z

 C #1 x   29.819976
 C #1 y    0.000000   29.819976
 C #1 z    0.000000    0.000000  -12.871935

 O #2 x  -29.819976    0.000000    0.000000   29.819976
 O #2 y    0.000000  -29.819976    0.000000    0.000000   29.819976
 O #2 z    0.000000    0.000000   12.871935    0.000000    0.000000  -12.871935




                Highest order reorthonormalization Hessian
                ------------------------------------------


           Symmetry 1

           C #1 z      O #2 z

 C #1 z    0.000000
 O #2 z    0.000000    0.000000


           Symmetry 2

           C #1 x      O #2 x

 C #1 x    0.000000
 O #2 x    0.000000    0.000000


           Symmetry 3

           C #1 y      O #2 y

 C #1 y    0.000000
 O #2 y    0.000000    0.000000




           C #1 x      C #1 y      C #1 z      O #2 x      O #2 y      O #2 z




                Electronic contributions to dipole moment
                -----------------------------------------

                               au             Debye

                    z     -0.22130109     -0.56249136

  Conversion factor used: 1 a.u. =   2.54174691 Debye 



   Electronic contributions to static part of dipole moment derivatives
   --------------------------------------------------------------------


                     Total dipole moment derivatives
                     -------------------------------


           Symmetry 1
                              Ez

               C #1 z    -5.81412662
               O #2 z    -8.18587338

           Symmetry 2
                              Ex

               C #1 x    -5.88101124
               O #2 x    -8.11898876

           Symmetry 3
                              Ey

               C #1 y    -5.88101124
               O #2 y    -8.11898876



                       Ex          Ey          Ez

      C #1    x   -5.881011    0.000000    0.000000
      C #1    y    0.000000   -5.881011    0.000000
      C #1    z    0.000000    0.000000   -5.814127

      O #2    x   -8.118989    0.000000    0.000000
      O #2    y    0.000000   -8.118989    0.000000
      O #2    z    0.000000    0.000000   -8.185873

 Evaluation of 1e integral derivatives required    1.77 seconds.
                    8815  records have been written to the Sort file.
  Total length of Sort file :             180513570  words.
 Evaluation of 2el integral derivatives

                      Two-electron integral gradient
                      ------------------------------

                         C #1 z   -11.8536278130
                         O #2 z    11.8536278130


 C #1       0.0000000000            0.0000000000          -11.8536278130
 O #2       0.0000000000            0.0000000000           11.8536278130


 Evaluation of 2e integral derivatives required  695.62 seconds.

                            Molecular gradient
                            ------------------

                         C #1 z    -0.2044539542
                         O #2 z     0.2044539542


 C #1       0.0000000000            0.0000000000           -0.2044539542
 O #2       0.0000000000            0.0000000000            0.2044539542


  Molecular gradient norm 0.289E+00

                            Molecular hessian
                            -----------------


           Symmetry 1

           C #1 z      O #2 z

 C #1 z   94.377349
 O #2 z  -94.377349   94.377349


           Symmetry 2

           C #1 x      O #2 x

 C #1 x   12.108790
 O #2 x  -12.108790   12.108790


           Symmetry 3

           C #1 y      O #2 y

 C #1 y   12.108790
 O #2 y  -12.108790   12.108790




           C #1 x      C #1 y      C #1 z      O #2 x      O #2 y      O #2 z

 C #1 x   12.108790
 C #1 y    0.000000   12.108790
 C #1 z    0.000000    0.000000   94.377349

 O #2 x  -12.108790    0.000000    0.000000   12.108790
 O #2 y    0.000000  -12.108790    0.000000    0.000000   12.108790
 O #2 z    0.000000    0.000000  -94.377349    0.000000    0.000000   94.377349




                           Total dipole moment
                           -------------------

                               au             Debye

                    z     -0.22334653     -0.56769036

  Conversion factor used: 1 a.u. =   2.54174691 Debye 



                     Total dipole moment derivatives
                     -------------------------------


           Symmetry 1
                              Ez

               C #1 z     0.66934021
               O #2 z    -0.66934021

           Symmetry 2
                              Ex

               C #1 x    -0.12003679
               O #2 x     0.12003679

           Symmetry 3
                              Ey

               C #1 y    -0.12003679
               O #2 y     0.12003679



                       Ex          Ey          Ez

      C #1    x   -0.120037    0.000000    0.000000
      C #1    y    0.000000   -0.120037    0.000000
      C #1    z    0.000000    0.000000    0.669340

      O #2    x    0.120037    0.000000    0.000000
      O #2    y    0.000000    0.120037    0.000000
      O #2    z    0.000000    0.000000   -0.669340

 @CHECKOUT-I, Total execution time (CPU/WALL):      697.38/     118.74 seconds.
--executable xvdint finished with status     0 in      118.77 seconds (walltime).
 --invoking executable--
/nfs/workspaces/public/cfour_mpi/bin/xjoda
  @GTFLGS-I, Hessian will be transformed to curvilinear coordinates.
  @GTFLGS-I, Hessian will be transformed to curvilinear coordinates.
  igrd and ihes are                      0                     1
  gradient from JOBARC 
   0.000000000000000   0.000000000000000  -0.204453954150780
   0.000000000000000   0.000000000000000   0.204453954150780
 
  @PROJFCM-I, Projecting force constant matrix onto totally symmetric subspace.
  Largest difference between matrix elements of symmetrized
  and unsymmetrized FCM :     0.1199538247E-09.
  read isotopes from ZMAT file 
 
  Summary of diagonal Born-Oppenheimer correction at the correlated level
  The total diagonal Born-Oppenheimer correction (DBOC) is:      0.0041560807 a.u.
  The total diagonal Born-Oppenheimer correction (DBOC) is:        912.154278 cm-1
  The total diagonal Born-Oppenheimer correction (DBOC) is:            10.912 kJ/mole
  hellooooooo 
  readis is  F
 
 @CHECKOUT-I, Total execution time (CPU/WALL):        0.01/       0.05 seconds.
--executable xjoda finished with status     0 in        0.07 seconds (walltime).
  The final electronic energy is      -113.228841893294970 a.u. 
  This computation required                         2555.35 seconds (walltime).
