 --invoking executable--
/nfs/workspaces/public/cfour_mpi/bin/xjoda


   *************************************************************************
         <<<     CCCCCC     CCCCCC   |||     CCCCCC     CCCCCC   >>>
       <<<      CCC        CCC       |||    CCC        CCC         >>>
      <<<      CCC        CCC        |||   CCC        CCC            >>>
    <<<        CCC        CCC        |||   CCC        CCC              >>>
      <<<      CCC        CCC        |||   CCC        CCC            >>>
       <<<      CCC        CCC       |||    CCC        CCC         >>>
         <<<     CCCCCC     CCCCCC   |||     CCCCCC     CCCCCC   >>>
   *************************************************************************

     ****************************************************************
     * CFOUR Coupled-Cluster techniques for Computational Chemistry *
     ****************************************************************
 

   Department of Chemistry                Institut fuer Physikalische Chemie
   University of Florida                  Universitaet Mainz
   Gainesville, FL 32611, USA             D-55099 Mainz, Germany

   Department of Chemistry                Fakultaet fuer Chemie und Biowiss.
   Johns Hopkins University               Karlsruher Institut fuer Technologie
   Baltimore, MD 21218, USA               D-76131 Karlsruhe, Germany

   Department of Chemistry                Department of Physical Chemistry
   Southern Methodist University          Eotvos Lorand University
   Dallas, TX 75275, USA                  H-1053 Budapest, Hungary

 
                       Version 2.1
 
                     vincent.theory.phys.ucl.ac.uk                     
                     Wed 26 Feb 06:14:33 GMT 2025                      
                     integer*8 version is running
 
********************************************************************************
*                          Input from ZMAT file                                *
********************************************************************************
Carbon Monoxide DBOC calculation                                                
C                                                                               
O 1 r                                                                           
                                                                                
r=1.706896551724138                                                             
                                                                                
                                                                                
*CFOUR(CALC=CCSD,BASIS=AUG-PCVQZ,SCF_CONV=10                                    
CC_CONV=14,DBOC=ON,MEMORY=500000000                                             
ZFIELD=-200)                                                                    
                                                                                
%isotopes                                                                       
12                                                                              
16                                                                              
********************************************************************************
  @GTFLGS-I, Hessian will be transformed to curvilinear coordinates.
    -------------------------------------------------------------------
                    CFOUR Control Parameters 
    -------------------------------------------------------------------
        External           Internal           Value            Units
          Name               Name
    -------------------------------------------------------------------
       ABCDTYPE             IABCDT         STANDARD    [  0]    ***   
       ANHARMONIC           IANHAR         OFF         [  0]    ***   
       ANH_ALGORIT          IANALG         STANDARD    [  0]    ***   
       ANH_DERIVAT          IANDER         SECOND      [  1]    ***   
       ANH_MODE             ANHMOD         VIBRATION   [  0]    ***   
       ANH_STEPSIZ          ICUBST             50000          x 10-6  
       ANH_SYMMETR          IANHSM         ABELIAN     [  0]    ***   
       AO_LADDERS           IAOLAD         SINGLEPASS  [  1]    ***   
       AV_SCF               IAVSCF         OFF         [  0]    ***   
       BASIS                IBASIS         AUG-PCVQZ   [ 52]    ***   
       BOTHVECTORS          BOTHVC         OFF         [  0]    ***   
       BOX_POTENT           IPIAB          OFF         [  0]    ***   
       BREIT                IBREIT         OFF         [  0]    ***   
       BRUCK_CONV           IBRTOL          10D-  4             ***   
       BRUECKNER            IBRKNR         OFF         [  0]    ***   
       BUFFERSIZE           IBUFFS              4096            ***   
       CACHE_RECS           ICHREC             10               ***   
       CALCLEVEL            ICLLVL         CCSD        [ 10]    ***   
       CCORBOPT             ICCORB         OFF         [  0]  x 0.01  
       CC_CONV              ICCCNV          10D- 14             ***   
       CC_EXPORDER          ICCEOR              5               ***   
       CC_EXTRAPOL          ICCEXT         DIIS        [  1]    ***   
       CC_GUESS             ICCGES         MP2         [  0]    ***   
       CC_MAXCYC            ICCCYC            100              cycles 
       CC_PROGRAM           ICCPRO         VCC         [  0]    ***   
       CHARGE               ICHRGE              0               ***   
       CHOLESKY             ICHOLE         OFF         [  0]    ***   
       CIS_CONV             ICISTL              5               ***   
       COMM_SIZE            IPSIZE            ***               ***   
       CONSTANT             ICONST         OLD         [  1]    ***   
       CONTINUUM            ICONTU         NONE        [  0]    ***   
       CONTRACTION          ICNTYP         GENERAL     [  1]    ***   
       COORDINATES          ICOORD         INTERNAL    [  0]    ***   
       CPHF_CONVER          ICPHFT          10D- 16             ***   
       CPHF_MAXCYC          ICPHFC             64              cycles 
       CUBIC                ICUBIC         OFF         [  0]    ***   
       CURVILINEAR          ICURVY         ON          [  1]    ***   
       DBOC                 IDBOC          ON          [  1]    ***   
       DCT                  IDCT           OFF         [  0]    ***   
       DERIV_LEV            IDRLVL         SECOND      [  2]    ***   
       DEVMEM_SIZE          IDVMEM          50000000           MByte  
       DIAG_MRCC            IEOMST          10D-  0             ***   
       DIFF_TYPE            IDIFTY         RELAXED     [  0]    ***   
       DIRECT               IDIRCT         OFF         [  0]    ***   
       DROPMO               IDRPMO      NONE         
       ECP                  IECP           OFF         [  0]    ***   
       EIGENVECTOR          IVEC                1               ***   
       EL_ANHARM            IELANH         OFF         [  0]    ***   
       EOMFOLLOW            IEOMSR         ENERGY      [  0]    ***   
       EOMIP                IEOMIP         OFF         [  0]    ***   
       EOMLEVEL             HBARFM         SAME        [  0]    ***   
       EOM_MRCC             IMRCCE         NEW         [  1]    ***   
       EOM_NONIT            EOMNON         OFF         [  0]    ***   
       EOM_NSING            IEOMSI          10D-  0             ***   
       EOM_NSTATES          IMRCCD         DAVIDSON    [  0]    ***   
       EOM_NTRIP            IEOMTR          10D-  0             ***   
       EOM_ORDER            IEXORD         ENERGY      [  0]    ***   
       EOM_PROPSTA          IEOMST              0               ***   
       ESTATE_CONV          IEXTOL          10D-  5             ***   
       ESTATE_DIAG          IEXDIG         ITERATIVE   [  0]    ***   
       ESTATE_LOCK          IESLOC         ON          [  1]    ***   
       ESTATE_MAXC          IEXMXC             40               ***   
       ESTATE_PROP          IEXPRP         OFF         [  0]    ***   
       EVAL_HESS            IRECAL              0            # of cyc.
       EXCITATION           IEXCIT              0               ***   
       EXCITE               IEXCIT         NONE        [  0]    ***   
       EXTERN_POT           IEXPOT         OFF         [  0]    ***   
       FCGRADNEW            IFCGNW         OFF         [  0]    ***   
       FC_FIELD             IFINFC              0             x 10-6  
       FD_CALTYPE           IFDCAL         GRADONLY    [  0]    ***   
       FD_PROJECT           IFDPRJ         OFF         [  1]    ***   
       FD_STEPSIZE          IDISFD              0            10-4 bohr
       FD_USEGROUP          IFDGRP         FULL        [  0]    ***   
       FILE_RECSIZ          IFLREC              4096           words  
       FINITE_PERT          IFIPER              0             x 10-6  
       FIXGEOM              IFIXGM         OFF         [  0]    ***   
       FOCK                 IFOCK          AO          [  1]    ***   
       FREQ_ALGORI          IVIALG         STANDARD    [  0]    ***   
       FROZEN_CORE          IFROCO         OFF         [  0]    ***   
       GAMMA_ABCD           IGABCD         STORE       [  0]    ***   
       GAMMA_ABCI           IGABCI         STORE       [  0]    ***   
       GENBAS_1             IGNBS1              0               ***   
       GENBAS_2             IGNBS2              0               ***   
       GENBAS_3             IGNBS3              0               ***   
       GENBAS_4             IGNBS4              0               ***   
       GEO_CONV             ICONTL              5              H/bohr 
       GEO_MAXCYC           IOPTCY             50               ***   
       GEO_MAXSTEP          IMXSTP            300            millibohr
       GEO_METHOD           INR            SINGLE_POINT[  5]    ***   
       GIAO                 IGIAO          OFF         [  1]    ***   
       GIMIC                IGIMIC         OFF         [  0]    ***   
       GRID                 IGRID          OFF         [  0]    ***   
       GRID_ALGO            IGALGO         SERIAL      [  0]    ***   
       GUESS                IGUESS         MOREAD      [  0]    ***   
       HBAR                 IHBAR          OFF         [  0]    ***   
       HESS_TYPE            IHESTP         SCF         [  0]    ***   
       HF2_FILE             IHF2Fl         USE         [  1]    ***   
       HFSTABILITY          ISTABL         OFF         [  0]    ***   
       INCORE               INCORE         OFF         [  0]    ***   
       INPUT_MRCC           IMRCC          ON          [  1]    ***   
       INTEGRALS            INTTYP         VMOL        [  1]    ***   
       JODA_PRINT           IJPRNT              0               ***   
       KEYWORD_OUT          IDMPKW         NO          [  0]    ***   
       LINDEP_TOL           ILINDP              8               ***   
       LINEQ_CONV           IZTACN          10D-  7           cycles  
       LINEQ_EXPOR          ILMAXD              5               ***   
       LINEQ_MAXCY          ILMAXC            100               ***   
       LINEQ_TYPE           ILTYPE         DIIS        [  1]    ***   
       LOCK_ORBOCC          ILOCOC         OFF         [  0]    ***   
       MEMORY_SIZE          IMEMSZ         500000000           words  
       MEM_UNIT             IMEMU          INTEGERWORDS[  0]    ***   
       MRCC                 IMRCCC         OFF         [  0]    ***   
       MULTIPLICTY          IMULTP              1               ***   
       NACOUPLING           IVCOUP         OFF         [  0]    ***   
       NEGEVAL              IDIE           ABORT       [  0]    ***   
       NEWNORM              INEWNO         OFF         [  0]    ***   
       NON-HF               INONHF         OFF         [  0]    ***   
       NTOP_TAMP            ITOPT2             15               ***   
       NUC_MODEL            INUCMO         POINT       [  0]    ***   
       OCCUPATION           IOCCU   ESTIMATED BY SCF 
       OPEN-SHELL           IOPEN          SPIN-ORBITAL[  0]    ***   
       OPTVIB               IOPTVB         OFF         [  0]    ***   
       ORBITALS             IORBTP         STANDARD    [  0]    ***   
       PARALLEL             IPARAL         ON          [  1]    ***   
       PARA_INT             IPINTS         ON          [  1]    ***   
       PARA_PRINT           IPPRIN              0               ***   
       PERT_ORB             IPTORB         STANDARD    [  0]    ***   
       POINTS               IGRDFD              0               ***   
       PRINT                IPRNT               0               ***   
       PROPS                IPROPS         OFF         [  0]    ***   
       PROP_INTEGR          IINTYP         INTERNAL    [  0]    ***   
       PSI                  IPSI           OFF         [  0]    ***   
       QC_ALG               IQCALG         FLM         [  0]    ***   
       QC_LINALG            IQCLIN         TRIDIAG     [  2]    ***   
       QC_MAXCYC            IQCMAX          10D-100           cycles  
       QC_MAXSCFCY          IQCMSC          10D- 15           cycles  
       QC_RTRUST            IQCRTR          10D-  0           x 10-3  
       QC_SKIPSCF           IQCSKI         OFF         [  0]    ***   
       QC_START             IQCSTA          10D-  1             ***   
       QRHFGUESS            IQGUES         OFF         [  0]    ***   
       QUARTIC              IQUART         OFF         [  0]    ***   
       RAMAN_INT            IRAMIN         OFF         [  0]    ***   
       RAMAN_ORB            IRAMRE         UNRELAXED   [  0]    ***   
       RDO                  IRDOFM         ON          [  1]    ***   
       REDUCE_REPR          REDREP         Ir          [  0]    ***   
       REFERENCE            IREFNC         RHF         [  0]    ***   
       RELATIVIST           IRELAT         OFF         [  0]    ***   
       RELAX_DENS           IRDENS         ON          [  1]    ***   
       RESET_FLAGS          IRESET         OFF         [  0]    ***   
       RESTART_CC           ICCRES         OFF         [  0]    ***   
       ROT_EVEC             ROTVEC              0               ***   
       SAVE_INTS            ISVINT         OFF         [  0]    ***   
       SCALE_ON             ISTCRT              0               ***   
       SCF_CONV             ISCFCV          10D- 10             ***   
       SCF_DAMPING          IDAMP               0             x 10-3  
       SCF_EXPORDE          IRPPOR              6               ***   
       SCF_EXPSTAR          IRPPLS              8               ***   
       SCF_EXTRAPO          IRPP           ON          [  1]    ***   
       SCF_MAXCYC           ISCFCY            150              cycles 
       SCF_NOSTOP           ISCFST         OFF         [  0]    ***   
       SCF_PRINT            ISCFPR              0               ***   
       SCF_PROG             ISCFPR         SCF         [  0]    ***   
       SD_FIELD             IFINSD              0             x 10-6  
       SOPERT               IPERSO         OFF         [  0]    ***   
       SPHERICAL            IDFGHI         ON          [  1]    ***   
       SPINORBIT            ISOCAL         OFF         [  0]    ***   
       SPINROTATIO          ISRCON         OFF         [  0]    ***   
       SPIN_FLIP            ISPFLP         OFF         [  0]    ***   
       SPIN_ORBIT           ISPORB         OFF         [  0]    ***   
       SPIN_SCAL            ISCSMP         OFF         [  0]    ***   
       STEEPSCALE           ISTPSC              1000          x 10-3  
       SUBGROUP             ISUBGP         DEFAULT     [  0]    ***   
       SUBGRPAXIS           ISBXYZ         X           [  0]    ***   
       SYMMETRY             ISYM           ON          [  0]    ***   
       SYM_CHECK            ISYMCK         OVERRIDE    [  1]    ***   
       T3_EXTRAPOL          IT3EXT         OFF         [  0]    ***   
       T4_EXTRAPOL          IT4EXP         OFF         [  0]    ***   
       TAMP_SUM             IEVERY              5               ***   
       TESTSUITE            ITESTS         OFF         [  0]    ***   
       THERMOCH             ITHERM         OFF         [  0]    ***   
       TOL_CHOLESK          ITOLCH          10D-  4             ***   
       TRANGRAD             IRESRM         OFF         [  0]    ***   
       TRANS_INV            ITRAIN         IGNORE      [  1]    ***   
       TREAT_PERT           ITREAT         SIMULTANEOUS[  0]    ***   
       TRIP_ALGORI          ITRALG         NORMAL      [  0]    ***   
       UIJ_THRESHO          IUIJTH              1               ***   
       UNITS                IUNITS         ANGSTROM    [  0]    ***   
       UNOS                 IUNOS          OFF         [  0]    ***   
       UPDATE_HESS          IHUPDT         ON          [  1]    ***   
       VIBPHASE             ISETPH         STANDARD    [  0]    ***   
       VIBRATION            IVIB           ANALYTIC    [  1]    ***   
       VIB_ALGORIT          IGEALG         STANDARD    [  0]    ***   
       VNATORB              IVNORB         OFF         [  0]    ***   
       VTRAN                IVTRAN         FULL/PARTIAL[  0]    ***   
       XFIELD               IXEFLD              0             x 10-6  
       XFORM_TOL            IXFTOL          10D- 11             ***   
       YFIELD               IYEFLD              0             x 10-6  
       ZFIELD               IZEFLD            ***             x 10-6  
       ZSCALE_EXP           IZEXPS         OFF         [  0]    ***   
    -------------------------------------------------------------------
   2 entries found in Z-matrix 
   Job Title : Carbon Monoxide DBOC calculation                                                
   There are  1 unique internal coordinates.
   Of these,  0 will be optimized.
   User supplied Z-matrix: 
--------------------------------------------------------------------------------
       SYMBOL    BOND      LENGTH    ANGLE     ANGLE     DIHED     ANGLE
                  TO      (ANGST)    WRT      (DEG)      WRT      (DEG)
--------------------------------------------------------------------------------
        C    
        O          1         r    
                  *Initial values for internal coordinates* 
                      Name             Value
                        r               1.7068965517
--------------------------------------------------------------------------------
  read isotopes from ZMAT file 
   Rotational constants (in cm-1): 
          0.8439138765             0.8439138765
   Rotational constants (in MHz): 
      25299.9050814389         25299.9050814389
********************************************************************************
   The full molecular point group is CXv .
   The largest Abelian subgroup of the full molecular point group is C2v .
   The computational point group is C2v .
********************************************************************************
--------------------------------------------------------------------------------
   Analysis of internal coordinates specified by Z-matrix 
--------------------------------------------------------------------------------
   *The nuclear repulsion energy is   14.881101478787878 a.u.
   *There is   1 degree of freedom within the tot. symm. molecular subspace.
   *Z-matrix requests optimization of   0 coordinates.
   *The optimization is constrained.
   *The following   1 parameters can have non-zero 
    derivatives within the totally symmetric subspace:
             r    [ 1]
   *The following   0 parameters are to be optimized:

   *The following coordinates must be varied in an  unconstrained optimization.
             r    [ 1]
--------------------------------------------------------------------------------


 ----------------------------------------------------------------
         Coordinates used in calculation (QCOMP) 
 ----------------------------------------------------------------
 Z-matrix   Atomic            Coordinates (in bohr)
  Symbol    Number           X              Y              Z
 ----------------------------------------------------------------
     C         6        -0.00000000     0.00000000     1.84293042
     O         8         0.00000000     0.00000000    -1.38263726
 ----------------------------------------------------------------
 
   Interatomic distance matrix (Angstroms) 
 
                 C             O    
                [ 1]        [ 2]
  C    [ 1]     0.00000
  O    [ 2]     1.70690     0.00000
 rotcon2
   Rotational constants (in cm-1): 
          0.8439138765             0.0000000000
   Rotational constants (in MHz): 
      25299.9050814389             0.0000000000
  ECPDATA file not present.   Using default ECPDATA. 
  @GTFLGS-I, Hessian will be transformed to curvilinear coordinates.
  There are  218 basis functions.
 @CHECKOUT-I, Total execution time (CPU/WALL):        0.12/       0.15 seconds.
--executable xjoda finished with status     0 in        0.17 seconds (walltime).
 --invoking executable--
/nfs/workspaces/public/cfour_mpi/bin/xvmol
 SERIAL VERSION OF MOLECULE STARTED
********************************************************************************
                    INPUT FROM MOL FILE
********************************************************************************
INTGRL        1    0    1    0    0    0    0    0    0                         
         *** CFOUR Program System (Release V0.1) ***                            
Carbon Monoxide DBOC calculation                                                
    2    2 X  Y       0.10E-08              0    0                              
   9999.00      3.00                                                            
          6.00000000    1    5    1    1    1    1    1                         
C #1  -0.000000000000000   0.000000000000000   1.842930417400106                
   16    9                                                                      
   33980.0000000000       9.100000000000000E-005 -1.900000000000000E-005        
  0.000000000000000E+000  0.000000000000000E+000  0.000000000000000E+000        
  0.000000000000000E+000  0.000000000000000E+000  0.000000000000000E+000        
  0.000000000000000E+000                                                        
   5089.00000000000       7.040000000000000E-004 -1.510000000000000E-004        
  0.000000000000000E+000  0.000000000000000E+000  0.000000000000000E+000        
  0.000000000000000E+000  0.000000000000000E+000  0.000000000000000E+000        
  0.000000000000000E+000                                                        
   1157.00000000000       3.693000000000000E-003 -7.850000000000000E-004        
  0.000000000000000E+000  0.000000000000000E+000  0.000000000000000E+000        
  0.000000000000000E+000  0.000000000000000E+000  0.000000000000000E+000        
  0.000000000000000E+000                                                        
   326.600000000000       1.536000000000000E-002 -3.324000000000000E-003        
  0.000000000000000E+000  0.000000000000000E+000  0.000000000000000E+000        
  0.000000000000000E+000  0.000000000000000E+000  0.000000000000000E+000        
  0.000000000000000E+000                                                        
   106.100000000000       5.292900000000000E-002 -1.151200000000000E-002        
  0.000000000000000E+000  0.000000000000000E+000  0.000000000000000E+000        
  0.000000000000000E+000  0.000000000000000E+000  0.000000000000000E+000        
  0.000000000000000E+000                                                        
   38.1100000000000       0.147043000000000      -3.416000000000000E-002        
  0.000000000000000E+000  0.000000000000000E+000  0.000000000000000E+000        
  0.000000000000000E+000  0.000000000000000E+000  0.000000000000000E+000        
  0.000000000000000E+000                                                        
   14.7500000000000       0.305631000000000      -7.717300000000001E-002        
  0.000000000000000E+000  0.000000000000000E+000  0.000000000000000E+000        
  0.000000000000000E+000  0.000000000000000E+000  0.000000000000000E+000        
  0.000000000000000E+000                                                        
   6.03500000000000       0.399345000000000      -0.141493000000000             
  0.000000000000000E+000  0.000000000000000E+000  0.000000000000000E+000        
  0.000000000000000E+000  0.000000000000000E+000  0.000000000000000E+000        
  0.000000000000000E+000                                                        
   2.53000000000000       0.217051000000000      -0.118019000000000             
  0.000000000000000E+000  0.000000000000000E+000  0.000000000000000E+000        
  0.000000000000000E+000  0.000000000000000E+000  0.000000000000000E+000        
  0.000000000000000E+000                                                        
  0.735500000000000       1.589400000000000E-002  0.273806000000000             
   1.00000000000000       0.000000000000000E+000  0.000000000000000E+000        
  0.000000000000000E+000  0.000000000000000E+000  0.000000000000000E+000        
  0.000000000000000E+000                                                        
  0.290500000000000      -3.084000000000000E-003  0.586510000000000             
  0.000000000000000E+000   1.00000000000000       0.000000000000000E+000        
  0.000000000000000E+000  0.000000000000000E+000  0.000000000000000E+000        
  0.000000000000000E+000                                                        
  0.111100000000000       9.779999999999999E-004  0.285430000000000             
  0.000000000000000E+000  0.000000000000000E+000   1.00000000000000             
  0.000000000000000E+000  0.000000000000000E+000  0.000000000000000E+000        
  0.000000000000000E+000                                                        
   7.21600000000000       0.000000000000000E+000  0.000000000000000E+000        
  0.000000000000000E+000  0.000000000000000E+000  0.000000000000000E+000        
   1.00000000000000       0.000000000000000E+000  0.000000000000000E+000        
  0.000000000000000E+000                                                        
   19.5700000000000       0.000000000000000E+000  0.000000000000000E+000        
  0.000000000000000E+000  0.000000000000000E+000  0.000000000000000E+000        
  0.000000000000000E+000   1.00000000000000       0.000000000000000E+000        
  0.000000000000000E+000                                                        
   53.0730000000000       0.000000000000000E+000  0.000000000000000E+000        
  0.000000000000000E+000  0.000000000000000E+000  0.000000000000000E+000        
  0.000000000000000E+000  0.000000000000000E+000   1.00000000000000             
  0.000000000000000E+000                                                        
  4.145000000000000E-002  0.000000000000000E+000  0.000000000000000E+000        
  0.000000000000000E+000  0.000000000000000E+000  0.000000000000000E+000        
  0.000000000000000E+000  0.000000000000000E+000  0.000000000000000E+000        
   1.00000000000000                                                             
   10    8                                                                      
   34.5100000000000       5.378000000000000E-003  0.000000000000000E+000        
  0.000000000000000E+000  0.000000000000000E+000  0.000000000000000E+000        
  0.000000000000000E+000  0.000000000000000E+000  0.000000000000000E+000        
   7.91500000000000       3.613200000000000E-002  0.000000000000000E+000        
  0.000000000000000E+000  0.000000000000000E+000  0.000000000000000E+000        
  0.000000000000000E+000  0.000000000000000E+000  0.000000000000000E+000        
   2.36800000000000       0.142493000000000       0.000000000000000E+000        
  0.000000000000000E+000  0.000000000000000E+000  0.000000000000000E+000        
  0.000000000000000E+000  0.000000000000000E+000  0.000000000000000E+000        
  0.813200000000000       0.342150000000000        1.00000000000000             
  0.000000000000000E+000  0.000000000000000E+000  0.000000000000000E+000        
  0.000000000000000E+000  0.000000000000000E+000  0.000000000000000E+000        
  0.289000000000000       0.463864000000000       0.000000000000000E+000        
   1.00000000000000       0.000000000000000E+000  0.000000000000000E+000        
  0.000000000000000E+000  0.000000000000000E+000  0.000000000000000E+000        
  0.100700000000000       0.250028000000000       0.000000000000000E+000        
  0.000000000000000E+000   1.00000000000000       0.000000000000000E+000        
  0.000000000000000E+000  0.000000000000000E+000  0.000000000000000E+000        
   8.18200000000000       0.000000000000000E+000  0.000000000000000E+000        
  0.000000000000000E+000  0.000000000000000E+000   1.00000000000000             
  0.000000000000000E+000  0.000000000000000E+000  0.000000000000000E+000        
   24.1860000000000       0.000000000000000E+000  0.000000000000000E+000        
  0.000000000000000E+000  0.000000000000000E+000  0.000000000000000E+000        
   1.00000000000000       0.000000000000000E+000  0.000000000000000E+000        
   71.4940000000000       0.000000000000000E+000  0.000000000000000E+000        
  0.000000000000000E+000  0.000000000000000E+000  0.000000000000000E+000        
  0.000000000000000E+000   1.00000000000000       0.000000000000000E+000        
  3.218000000000000E-002  0.000000000000000E+000  0.000000000000000E+000        
  0.000000000000000E+000  0.000000000000000E+000  0.000000000000000E+000        
  0.000000000000000E+000  0.000000000000000E+000   1.00000000000000             
    6    6                                                                      
   1.84800000000000        1.00000000000000       0.000000000000000E+000        
  0.000000000000000E+000  0.000000000000000E+000  0.000000000000000E+000        
  0.000000000000000E+000                                                        
  0.649000000000000       0.000000000000000E+000   1.00000000000000             
  0.000000000000000E+000  0.000000000000000E+000  0.000000000000000E+000        
  0.000000000000000E+000                                                        
  0.228000000000000       0.000000000000000E+000  0.000000000000000E+000        
   1.00000000000000       0.000000000000000E+000  0.000000000000000E+000        
  0.000000000000000E+000                                                        
   8.65600000000000       0.000000000000000E+000  0.000000000000000E+000        
  0.000000000000000E+000   1.00000000000000       0.000000000000000E+000        
  0.000000000000000E+000                                                        
   33.2130000000000       0.000000000000000E+000  0.000000000000000E+000        
  0.000000000000000E+000  0.000000000000000E+000   1.00000000000000             
  0.000000000000000E+000                                                        
  7.660000000000000E-002  0.000000000000000E+000  0.000000000000000E+000        
  0.000000000000000E+000  0.000000000000000E+000  0.000000000000000E+000        
   1.00000000000000                                                             
    4    4                                                                      
   1.41900000000000        1.00000000000000       0.000000000000000E+000        
  0.000000000000000E+000  0.000000000000000E+000                                
  0.485000000000000       0.000000000000000E+000   1.00000000000000             
  0.000000000000000E+000  0.000000000000000E+000                                
   24.6940000000000       0.000000000000000E+000  0.000000000000000E+000        
   1.00000000000000       0.000000000000000E+000                                
  0.187000000000000       0.000000000000000E+000  0.000000000000000E+000        
  0.000000000000000E+000   1.00000000000000                                     
    2    2                                                                      
   1.01100000000000        1.00000000000000       0.000000000000000E+000        
  0.424000000000000       0.000000000000000E+000   1.00000000000000             
          8.00000000    1    5    1    1    1    1    1                         
O #2   0.000000000000000   0.000000000000000  -1.382637264429168                
   16    9                                                                      
   61420.0000000000       9.000000000000001E-005 -2.000000000000000E-005        
  0.000000000000000E+000  0.000000000000000E+000  0.000000000000000E+000        
  0.000000000000000E+000  0.000000000000000E+000  0.000000000000000E+000        
  0.000000000000000E+000                                                        
   9199.00000000000       6.980000000000001E-004 -1.590000000000000E-004        
  0.000000000000000E+000  0.000000000000000E+000  0.000000000000000E+000        
  0.000000000000000E+000  0.000000000000000E+000  0.000000000000000E+000        
  0.000000000000000E+000                                                        
   2091.00000000000       3.664000000000000E-003 -8.290000000000000E-004        
  0.000000000000000E+000  0.000000000000000E+000  0.000000000000000E+000        
  0.000000000000000E+000  0.000000000000000E+000  0.000000000000000E+000        
  0.000000000000000E+000                                                        
   590.900000000000       1.521800000000000E-002 -3.508000000000000E-003        
  0.000000000000000E+000  0.000000000000000E+000  0.000000000000000E+000        
  0.000000000000000E+000  0.000000000000000E+000  0.000000000000000E+000        
  0.000000000000000E+000                                                        
   192.300000000000       5.242300000000000E-002 -1.215600000000000E-002        
  0.000000000000000E+000  0.000000000000000E+000  0.000000000000000E+000        
  0.000000000000000E+000  0.000000000000000E+000  0.000000000000000E+000        
  0.000000000000000E+000                                                        
   69.3200000000000       0.145921000000000      -3.626100000000000E-002        
  0.000000000000000E+000  0.000000000000000E+000  0.000000000000000E+000        
  0.000000000000000E+000  0.000000000000000E+000  0.000000000000000E+000        
  0.000000000000000E+000                                                        
   26.9700000000000       0.305258000000000      -8.299200000000000E-002        
  0.000000000000000E+000  0.000000000000000E+000  0.000000000000000E+000        
  0.000000000000000E+000  0.000000000000000E+000  0.000000000000000E+000        
  0.000000000000000E+000                                                        
   11.1000000000000       0.398508000000000      -0.152090000000000             
  0.000000000000000E+000  0.000000000000000E+000  0.000000000000000E+000        
  0.000000000000000E+000  0.000000000000000E+000  0.000000000000000E+000        
  0.000000000000000E+000                                                        
   4.68200000000000       0.216980000000000      -0.115331000000000             
  0.000000000000000E+000  0.000000000000000E+000  0.000000000000000E+000        
  0.000000000000000E+000  0.000000000000000E+000  0.000000000000000E+000        
  0.000000000000000E+000                                                        
   1.42800000000000       1.759400000000000E-002  0.288979000000000             
   1.00000000000000       0.000000000000000E+000  0.000000000000000E+000        
  0.000000000000000E+000  0.000000000000000E+000  0.000000000000000E+000        
  0.000000000000000E+000                                                        
  0.554700000000000      -2.502000000000000E-003  0.586128000000000             
  0.000000000000000E+000   1.00000000000000       0.000000000000000E+000        
  0.000000000000000E+000  0.000000000000000E+000  0.000000000000000E+000        
  0.000000000000000E+000                                                        
  0.206700000000000       9.540000000000000E-004  0.277624000000000             
  0.000000000000000E+000  0.000000000000000E+000   1.00000000000000             
  0.000000000000000E+000  0.000000000000000E+000  0.000000000000000E+000        
  0.000000000000000E+000                                                        
   12.9740000000000       0.000000000000000E+000  0.000000000000000E+000        
  0.000000000000000E+000  0.000000000000000E+000  0.000000000000000E+000        
   1.00000000000000       0.000000000000000E+000  0.000000000000000E+000        
  0.000000000000000E+000                                                        
   34.9000000000000       0.000000000000000E+000  0.000000000000000E+000        
  0.000000000000000E+000  0.000000000000000E+000  0.000000000000000E+000        
  0.000000000000000E+000   1.00000000000000       0.000000000000000E+000        
  0.000000000000000E+000                                                        
   93.8810000000000       0.000000000000000E+000  0.000000000000000E+000        
  0.000000000000000E+000  0.000000000000000E+000  0.000000000000000E+000        
  0.000000000000000E+000  0.000000000000000E+000   1.00000000000000             
  0.000000000000000E+000                                                        
  6.959000000000000E-002  0.000000000000000E+000  0.000000000000000E+000        
  0.000000000000000E+000  0.000000000000000E+000  0.000000000000000E+000        
  0.000000000000000E+000  0.000000000000000E+000  0.000000000000000E+000        
   1.00000000000000                                                             
   10    8                                                                      
   63.4200000000000       6.044000000000000E-003  0.000000000000000E+000        
  0.000000000000000E+000  0.000000000000000E+000  0.000000000000000E+000        
  0.000000000000000E+000  0.000000000000000E+000  0.000000000000000E+000        
   14.6600000000000       4.179900000000000E-002  0.000000000000000E+000        
  0.000000000000000E+000  0.000000000000000E+000  0.000000000000000E+000        
  0.000000000000000E+000  0.000000000000000E+000  0.000000000000000E+000        
   4.45900000000000       0.161143000000000       0.000000000000000E+000        
  0.000000000000000E+000  0.000000000000000E+000  0.000000000000000E+000        
  0.000000000000000E+000  0.000000000000000E+000  0.000000000000000E+000        
   1.53100000000000       0.356731000000000        1.00000000000000             
  0.000000000000000E+000  0.000000000000000E+000  0.000000000000000E+000        
  0.000000000000000E+000  0.000000000000000E+000  0.000000000000000E+000        
  0.530200000000000       0.448309000000000       0.000000000000000E+000        
   1.00000000000000       0.000000000000000E+000  0.000000000000000E+000        
  0.000000000000000E+000  0.000000000000000E+000  0.000000000000000E+000        
  0.175000000000000       0.244940000000000       0.000000000000000E+000        
  0.000000000000000E+000   1.00000000000000       0.000000000000000E+000        
  0.000000000000000E+000  0.000000000000000E+000  0.000000000000000E+000        
   14.4750000000000       0.000000000000000E+000  0.000000000000000E+000        
  0.000000000000000E+000  0.000000000000000E+000   1.00000000000000             
  0.000000000000000E+000  0.000000000000000E+000  0.000000000000000E+000        
   42.7300000000000       0.000000000000000E+000  0.000000000000000E+000        
  0.000000000000000E+000  0.000000000000000E+000  0.000000000000000E+000        
   1.00000000000000       0.000000000000000E+000  0.000000000000000E+000        
   126.140000000000       0.000000000000000E+000  0.000000000000000E+000        
  0.000000000000000E+000  0.000000000000000E+000  0.000000000000000E+000        
  0.000000000000000E+000   1.00000000000000       0.000000000000000E+000        
  5.348000000000000E-002  0.000000000000000E+000  0.000000000000000E+000        
  0.000000000000000E+000  0.000000000000000E+000  0.000000000000000E+000        
  0.000000000000000E+000  0.000000000000000E+000   1.00000000000000             
    6    6                                                                      
   3.77500000000000        1.00000000000000       0.000000000000000E+000        
  0.000000000000000E+000  0.000000000000000E+000  0.000000000000000E+000        
  0.000000000000000E+000                                                        
   1.30000000000000       0.000000000000000E+000   1.00000000000000             
  0.000000000000000E+000  0.000000000000000E+000  0.000000000000000E+000        
  0.000000000000000E+000                                                        
  0.444000000000000       0.000000000000000E+000  0.000000000000000E+000        
   1.00000000000000       0.000000000000000E+000  0.000000000000000E+000        
  0.000000000000000E+000                                                        
   14.9270000000000       0.000000000000000E+000  0.000000000000000E+000        
  0.000000000000000E+000   1.00000000000000       0.000000000000000E+000        
  0.000000000000000E+000                                                        
   57.5440000000000       0.000000000000000E+000  0.000000000000000E+000        
  0.000000000000000E+000  0.000000000000000E+000   1.00000000000000             
  0.000000000000000E+000                                                        
  0.154000000000000       0.000000000000000E+000  0.000000000000000E+000        
  0.000000000000000E+000  0.000000000000000E+000  0.000000000000000E+000        
   1.00000000000000                                                             
    4    4                                                                      
   2.66600000000000        1.00000000000000       0.000000000000000E+000        
  0.000000000000000E+000  0.000000000000000E+000                                
  0.859000000000000       0.000000000000000E+000   1.00000000000000             
  0.000000000000000E+000  0.000000000000000E+000                                
   26.4830000000000       0.000000000000000E+000  0.000000000000000E+000        
   1.00000000000000       0.000000000000000E+000                                
  0.324000000000000       0.000000000000000E+000  0.000000000000000E+000        
  0.000000000000000E+000   1.00000000000000                                     
    2    2                                                                      
   1.84600000000000        1.00000000000000       0.000000000000000E+000        
  0.714000000000000       0.000000000000000E+000   1.00000000000000             
FINISH                                                                          
 
********************************************************************************
 ONE- AND TWO-ELECTRON INTEGRALS OVER SYMMETRY-ADAPTED AOS ARE CALCULATED.

  SPHERICAL HARMONICS ARE USED.
  
  INTEGRALS LESS THAN  0.10E-13 ARE NEGLECTED.

  NUCLEAR REPULSION ENERGY :   14.8811014788 A.U.
  @MOLECU-I, ONE ELECTRON INTEGRALS (CPU/WALL):        0.07/       0.07 SECONDS.
  @TWOEL-I,    4389576 INTEGRALS OF SYMMETRY TYPE  I I I I
  @TWOEL-I,   18944941 INTEGRALS OF SYMMETRY TYPE  I J I J
  @TWOEL-I,    9975629 INTEGRALS OF SYMMETRY TYPE  I I J J
  @TWOEL-I,   13988652 INTEGRALS OF SYMMETRY TYPE  I J K L
  @TWOEL-I, TOTAL NUMBER OF 2-E INTEGRALS   47298798.
  @MOLECU-I, TWO ELECTRON INTEGRALS (CPU/WALL):      146.58/      21.01 SECONDS.
 @CHECKOUT-I, Total execution time (CPU/WALL):      146.67/      21.10 seconds.

Running with 14 threads/proc

--executable xvmol finished with status     0 in       21.13 seconds (walltime).
 --invoking executable--
/nfs/workspaces/public/cfour_mpi/bin/xvmol2ja
 @GETMEM-I,  Allocated    3814 MB of main memory.
 @CHECKOUT-I, Total execution time (CPU/WALL):        0.15/       0.03 seconds.
--executable xvmol2ja finished with status     0 in        0.06 seconds (walltime).
 --invoking executable--
/nfs/workspaces/public/cfour_mpi/bin/xvprop
 @GETMEM-I,  Allocated    3814 MB of main memory.
   Property integrals will be calculated.
    --------------------------------------------------------------
                                   Property evaluated at 
    Property type                X             Y             Z
    --------------------------------------------------------------
    Dipole moment               ----          ----          ----  
    Quadrupole moment           ----          ----          ----  
    Octopole moment             ----          ----          ----  
    Relativisitic corr.         ----          ----          ----  
    Second moment            0.0000000     0.0000000     0.0000000
    Electron density         0.0000000     0.0000000     1.8429304
    Electron density         0.0000000     0.0000000    -1.3826373
    Field gradient           0.0000000     0.0000000     1.8429304
    Field gradient           0.0000000     0.0000000    -1.3826373
    Potential                0.0000000     0.0000000     1.8429304
    Potential                0.0000000     0.0000000    -1.3826373
    --------------------------------------------------------------
 @CHECKOUT-I, Total execution time (CPU/WALL):        1.30/       1.31 seconds.
--executable xvprop finished with status     0 in        1.32 seconds (walltime).
 --invoking executable--
/nfs/workspaces/public/cfour_mpi/bin/xvscf
  There are  218 functions in the AO basis.

  There are 4 irreducible representations.

       Irrep        # of functions
         1                 86
         2                 52
         3                 52
         4                 28


  Parameters for SCF calculation: 
        SCF reference function:  RHF  
  Maximum number of iterations:  150
     Full symmetry point group: CXv 
     Computational point group: C2v 
        Initial density matrix: MOREAD                 
     SCF convergence tolerance: 10**(-10)
  DIIS convergence acceleration:  ON
          Latest start for DIIS:   8
                     DIIS order:   6

  Memory information:    2523578 words required.
  Fock matrices are constructed from AO integral file.
 @GETMEM-I,  Allocated      19 MB of main memory.
  Initialization and symmetry analysis required      0.002 seconds.

  Adding electric field perturbation to one-electron Hamiltonian.
  Field direction     : Z
  Field strength      : -0.0002000 a.u.

  @INITGES-I, Occupancies from core Hamiltonian:

          Alpha population by irrep:   5    1    1    0
           Beta population by irrep:   5    1    1    0


 total no. of electrons in initial guess :  0.000000000000000E+000
  --------------------------------------------------------------------
  Iteration         Total Energy            Largest Density Difference
  --------------------------------------------------------------------
       0            14.881100775665676              0.0000000000D+00
   current occupation vector 
     5  1  1  0
     5  1  1  0
       1           -93.705805319455123              0.1756167973D+02
   current occupation vector 
     5  1  1  0
     5  1  1  0
       2           -97.740483693835515              0.1756167191D+02
   current occupation vector 
     5  1  1  0
     5  1  1  0
       3           -99.932494242054858              0.6931052410D+01
   current occupation vector 
     5  1  1  0
     5  1  1  0
       4           -94.519374231641549              0.6928961665D+01
   current occupation vector 
     5  1  1  0
     5  1  1  0
       5           -99.932406609386732              0.7051780482D+01
   current occupation vector 
     5  1  1  0
     5  1  1  0
       6           -94.406632719566375              0.7051889592D+01
   current occupation vector 
     5  1  1  0
     5  1  1  0
       7           -99.928736935100929              0.7057483744D+01
   current occupation vector 
     5  1  1  0
     5  1  1  0
       8           -94.403788667880235              0.7057489112D+01
   current occupation vector 
     5  1  1  0
     5  1  1  0
       9          -107.151736126781486              0.6043761302D+01
   current occupation vector 
     5  1  1  0
     5  1  1  0
      10          -110.566248523277196              0.1314793893D+01
   current occupation vector 
     5  1  1  0
     5  1  1  0
      11          -112.286646389238726              0.1018295013D+01
   current occupation vector 
     5  1  1  0
     5  1  1  0
      12          -112.417944473932479              0.5893462985D+00
   current occupation vector 
     5  1  1  0
     5  1  1  0
      13          -112.459878172949985              0.1391805532D+00
   current occupation vector 
     5  1  1  0
     5  1  1  0
      14          -112.471791707294329              0.1073803780D+00
   current occupation vector 
     5  1  1  0
     5  1  1  0
      15          -112.472815378959709              0.3932512063D-01
   current occupation vector 
     5  1  1  0
     5  1  1  0
      16          -112.473901758017007              0.6457986221D-01
   current occupation vector 
     5  1  1  0
     5  1  1  0
      17          -112.474503537404331              0.5764971987D-01
   current occupation vector 
     5  1  1  0
     5  1  1  0
      18          -112.474640501710411              0.3667226386D-01
   current occupation vector 
     5  1  1  0
     5  1  1  0
      19          -112.474641831390841              0.2616840298D-02
   current occupation vector 
     5  1  1  0
     5  1  1  0
      20          -112.474641866573265              0.6645851123D-03
   current occupation vector 
     5  1  1  0
     5  1  1  0
      21          -112.474641867506747              0.1277857103D-03
   current occupation vector 
     5  1  1  0
     5  1  1  0
      22          -112.474641867762372              0.5987285536D-04
   current occupation vector 
     5  1  1  0
     5  1  1  0
      23          -112.474641867763737              0.9484085789D-06
   current occupation vector 
     5  1  1  0
     5  1  1  0
      24          -112.474641867763651              0.4308167433D-06
   current occupation vector 
     5  1  1  0
     5  1  1  0
      25          -112.474641867763111              0.4951531030D-07
   current occupation vector 
     5  1  1  0
     5  1  1  0
      26          -112.474641867763225              0.4316739144D-07
   current occupation vector 
     5  1  1  0
     5  1  1  0
      27          -112.474641867763751              0.2211125127D-07
   current occupation vector 
     5  1  1  0
     5  1  1  0
      28          -112.474641867763836              0.9931047540D-08
   current occupation vector 
     5  1  1  0
     5  1  1  0
      29          -112.474641867763424              0.3300887341D-09
   current occupation vector 
     5  1  1  0
     5  1  1  0
      30          -112.474641867762600              0.2868971727D-09
   current occupation vector 
     5  1  1  0
     5  1  1  0
      31          -112.474641867764205              0.1114424109D-09
   current occupation vector 
     5  1  1  0
     5  1  1  0

  SCF has converged.

 Density matrix saved to file den.dat
 total electron number:   14.0000000000000     
     E(SCF)=      -112.474641867763623              0.4025269007D-10

  Eigenvector printing suppressed.

 @PUTMOS-I, Writing converged MOs to NEWMOS. 
 @PUTMOS-I, Symmetry   1 Full Blocks 21 Partial Blocksize   2
 @PUTMOS-I, Symmetry   2 Full Blocks 13 Partial Blocksize   0
 @PUTMOS-I, Symmetry   3 Full Blocks 13 Partial Blocksize   0
 @PUTMOS-I, Symmetry   4 Full Blocks  7 Partial Blocksize   0
 @PUTFOCK-I, Writing converged Fock matrix to NEWFOCK. 
 @PUTFOCK-I, Symmetry   1 Full Blocks 21 Partial Blocksize   2
 @PUTFOCK-I, Symmetry   2 Full Blocks 13 Partial Blocksize   0
 @PUTFOCK-I, Symmetry   3 Full Blocks 13 Partial Blocksize   0
 @PUTFOCK-I, Symmetry   4 Full Blocks  7 Partial Blocksize   0


 
  ORBITAL EIGENVALUES (ALPHA)  (1H = 27.2113834 eV)

       MO #        E(hartree)               E(eV)           FULLSYM    COMPSYM
       ----   --------------------   --------------------   -------   ---------
    1     1         -20.6327885045        -561.4467186063     SG+        A1 (1)
    2     2         -11.5356321091        -313.9005080811     SG+        A1 (1)
    3     3          -1.2429065517         -33.8212067089     SG+        A1 (1)
    4     4          -0.8123134646         -22.1041731256     SG+        A1 (1)
    5     5          -0.5050425150         -13.7429055094     SG+        A1 (1)
    6    87          -0.4822457810         -13.1225748402      PI        B1 (2)
    7   139          -0.4822457810         -13.1225748402      PI        B2 (3)
  +++++++++++++++++++++++++++++++++++++++++++++++++++++++++++++++++++++++++++++
    8   140          -0.0224416998          -0.6106696981      PI        B2 (3)
    9    88          -0.0224416998          -0.6106696981      PI        B1 (2)
   10     6           0.0562686465           1.5311477132     SG+        A1 (1)
   11     7           0.0693565033           1.8872864027     SG+        A1 (1)
   12    89           0.0802303617           2.1831791322      PI        B1 (2)
   13   141           0.0802303617           2.1831791322      PI        B2 (3)
   14     8           0.1554100544           4.2289225758     SG+        A1 (1)
   15     9           0.1708543128           4.6491822099     SG+        A1 (1)
   16    90           0.1833184337           4.9883481848      PI        B1 (2)
   17   142           0.1833184337           4.9883481848      PI        B2 (3)
   18   191           0.2195601665           5.9745358702      DE        A2 (4)
   19    10           0.2195601665           5.9745358702      DE        A1 (1)
   20    91           0.2798729493           7.6157301279      PI        B1 (2)
   21   143           0.2798729493           7.6157301279      PI        B2 (3)
   22    11           0.2904140891           7.9025691230     SG+        A1 (1)
   23    12           0.3049048563           8.2968829452     SG+        A1 (1)
   24    92           0.4084727691          11.1151091276      PI        B1 (2)
   25   144           0.4084727691          11.1151091276      PI        B2 (3)
   26    13           0.4094038015          11.1404438073     SG+        A1 (1)
   27    14           0.5155783523          14.0296002163     SG+        A1 (1)
   28    15           0.5508426656          14.9891909661      DE        A1 (1)
   29   192           0.5508426656          14.9891909661      DE        A2 (4)
   30    93           0.6240211505          16.9804787750      PI        B1 (2)
   31   145           0.6240211505          16.9804787751      PI        B2 (3)
   32    16           0.6985004896          19.0071646277     SG+        A1 (1)
   33    94           0.7258003636          19.7500319659      PH        B1 (2)
   34   146           0.7258003636          19.7500319659      PH        B2 (3)
   35    17           0.7318837495          19.9155693108      DE        A1 (1)
   36   193           0.7318837495          19.9155693108      DE        A2 (4)
   37    95           0.7686948571          20.9172504737      PI        B1 (2)
   38   147           0.7686948571          20.9172504737      PI        B2 (3)
   39    18           0.8084912855          22.0001663462     SG+        A1 (1)
   40    19           0.8492142555          23.1082946954      DE        A1 (1)
   41   194           0.8492142555          23.1082946954      DE        A2 (4)
   42    96           0.8670267747          23.5929979846      PI        B1 (2)
   43   148           0.8670267747          23.5929979846      PI        B2 (3)
   44    20           0.9029837117          24.5714359837     SG+        A1 (1)
   45    97           1.0529837296          28.6531439790      PI        B1 (2)
   46   149           1.0529837296          28.6531439790      PI        B2 (3)
   47    21           1.1464911086          31.1976091211     SG+        A1 (1)
   48    22           1.3303714661          36.2012480287     SG+        A1 (1)
   49   150           1.4188875863          38.6098941132      PH        B2 (3)
   50    98           1.4188875863          38.6098941132      PH        B1 (2)
   51   151           1.4577675747          39.6678723826      PI        B2 (3)
   52    99           1.4577675747          39.6678723826      PI        B1 (2)
   53    23           1.5776772624          42.9307808677     SG+        A1 (1)
   54    24           1.5877512966          43.2049092747      DE        A1 (1)
   55   195           1.5877512966          43.2049092747      DE        A2 (4)
   56   100           1.6414465467          44.6660313119      PI        B1 (2)
   57   152           1.6414465467          44.6660313119      PI        B2 (3)
   58    25           1.6606067572          45.1874071459      DE        A1 (1)
   59   196           1.6606067572          45.1874071459      DE        A2 (4)
   60    26           1.8833837191          51.2494764708     SG+        A1 (1)
   61    27           1.9216527694          52.2908302709     SG+        A1 (1)
   62   101           2.0281518413          55.1888173481      PI        B1 (2)
   63   153           2.0281518413          55.1888173481      PI        B2 (3)
   64   197           2.0574038104          55.9848038923      PI        A2 (4)
   65    28           2.0574038104          55.9848038923      PI        A1 (1)
   66    29           2.1146486596          57.5425154316      DE        A1 (1)
   67   198           2.1146486596          57.5425154316      DE        A2 (4)
   68   154           2.1717304383          59.0957895989      PH        B2 (3)
   69   102           2.1717304383          59.0957895989      PH        B1 (2)
   70   155           2.1972421990          59.7899998990      PH        B2 (3)
   71   103           2.1972421990          59.7899998990      PH        B1 (2)
   72   104           2.2027284870          59.9392893866      PI        B1 (2)
   73   156           2.2027284870          59.9392893866      PI        B2 (3)
   74    30           2.2179385658          60.3531766717     SG+        A1 (1)
   75    31           2.2686063789          61.7319179612      DE        A1 (1)
   76   199           2.2686063789          61.7319179612      DE        A2 (4)
   77    32           2.3591337246          64.1952922721     SG+        A1 (1)
   78   105           2.4718128429          67.2614469625      PI        B1 (2)
   79   157           2.4718128429          67.2614469625      PI        B2 (3)
   80    33           2.5632514156          69.7496170201      DE        A1 (1)
   81   200           2.5632514156          69.7496170201      DE        A2 (4)
   82   106           2.6317508955          71.6135826299      PI        B1 (2)
   83   158           2.6317508955          71.6135826299      PI        B2 (3)
   84    34           2.6577817662          72.3219186326     SG+        A1 (1)
   85    35           2.8037031210          76.2926405666     SG+        A1 (1)
   86   107           3.2742907661          89.0979814007      PI        B1 (2)
   87   159           3.2742907661          89.0979814007      PI        B2 (3)
   88   201           3.7199118133         101.2239465672      PI        A2 (4)
   89    36           3.7199118133         101.2239465672      PI        A1 (1)
   90    37           3.8130045390         103.7571284159     SG+        A1 (1)
   91   160           3.8668602392         105.2226165222      PH        B2 (3)
   92   108           3.8668602392         105.2226165222      PH        B1 (2)
   93    38           4.0611245136         110.5088161736     SG+        A1 (1)
   94    39           4.1389028929         112.6252734746      DE        A1 (1)
   95   202           4.1389028929         112.6252734746      DE        A2 (4)
   96   161           4.1428776107         112.7334310433      PI        B2 (3)
   97   109           4.1428776107         112.7334310433      PI        B1 (2)
   98   162           4.1502250533         112.9333651222      PH        B2 (3)
   99   110           4.1502250533         112.9333651222      PH        B1 (2)
  100    40           4.3103448603         117.2904465805      DE        A1 (1)
  101   203           4.3103448603         117.2904465805      DE        A2 (4)
  102    41           4.3214166592         117.5917255459     SG+        A1 (1)
  103   111           4.4736572030         121.7344013516      PI        B1 (2)
  104   163           4.4736572030         121.7344013516      PI        B2 (3)
  105   204           4.5797726306         124.6219489356      DE        A2 (4)
  106    42           4.5797726306         124.6219489356      DE        A1 (1)
  107    43           4.8780734809         132.7391277415     SG+        A1 (1)
  108   164           5.0311190576         136.9037096066      PI        B2 (3)
  109   112           5.0311190576         136.9037096066      PI        B1 (2)
  110    44           5.0710341363         137.9898541183     SG+        A1 (1)
  111   165           5.3556694369         145.7351744122      PI        B2 (3)
  112   113           5.3556694369         145.7351744123      PI        B1 (2)
  113   205           5.8091367623         158.0746476616      PI        A2 (4)
  114    45           5.8091367623         158.0746476616      PI        A1 (1)
  115   166           5.8799605562         160.0018610717      PH        B2 (3)
  116   114           5.8799605562         160.0018610717      PH        B1 (2)
  117    46           5.9514423759         161.9469802736     SG+        A1 (1)
  118   206           6.0383580274         164.3120753888      DE        A2 (4)
  119    47           6.0383580274         164.3120753888      DE        A1 (1)
  120   167           6.1001300851         165.9929785349      PI        B2 (3)
  121   115           6.1001300851         165.9929785349      PI        B1 (2)
  122    48           6.1395830411         167.0665480471     SG+        A1 (1)
  123    49           6.2461862066         169.9673676567      DE        A1 (1)
  124   207           6.2461862066         169.9673676567      DE        A2 (4)
  125   116           6.3333563733         172.3393884831      PH        B1 (2)
  126   168           6.3333563733         172.3393884831      PH        B2 (3)
  127    50           6.4628952722         175.8643211254      DE        A1 (1)
  128   208           6.4628952722         175.8643211254      DE        A2 (4)
  129   169           6.6953500637         182.1897375804      PI        B2 (3)
  130   117           6.6953500637         182.1897375804      PI        B1 (2)
  131   170           7.0025976184         190.5503685911      PI        B2 (3)
  132   118           7.0025976184         190.5503685911      PI        B1 (2)
  133    51           7.0528434995         191.9176285243     SG+        A1 (1)
  134    52           7.4664316419         203.1719340364     SG+        A1 (1)
  135    53           9.3287529500         253.8482731651     SG+        A1 (1)
  136   171           9.6057884744         261.3867930360      PI        B2 (3)
  137   119           9.6057884744         261.3867930360      PI        B1 (2)
  138    54          10.6582116454         290.0246834417     SG+        A1 (1)
  139   209          10.6781060874         290.5660387299      PI        A2 (4)
  140    55          10.6781060874         290.5660387299      PI        A1 (1)
  141   172          10.7260084377         291.8695279487      PH        B2 (3)
  142   120          10.7260084377         291.8695279487      PH        B1 (2)
  143    56          10.9239948971         297.2570134059      DE        A1 (1)
  144   210          10.9239948971         297.2570134059      DE        A2 (4)
  145   121          10.9956078505         299.2057009369      PI        B1 (2)
  146   173          10.9956078505         299.2057009369      PI        B2 (3)
  147    57          11.1129379106         302.3984141867     SG+        A1 (1)
  148   174          11.9129637862         324.1682250166      PH        B2 (3)
  149   122          11.9129637862         324.1682250166      PH        B1 (2)
  150   211          11.9747201214         325.8487003324      DE        A2 (4)
  151    58          11.9747201215         325.8487003330      DE        A1 (1)
  152   123          12.1977090591         331.9165378085      PI        B1 (2)
  153   175          12.1977090591         331.9165378085      PI        B2 (3)
  154    59          12.4792055832         339.5764476507     SG+        A1 (1)
  155   212          12.7237331118         346.2303799854      DE        A2 (4)
  156    60          12.7237331118         346.2303799854      DE        A1 (1)
  157   176          13.0959986128         356.3602392597      PI        B2 (3)
  158   124          13.0959986128         356.3602392597      PI        B1 (2)
  159    61          13.3285138972         362.6873018100     SG+        A1 (1)
  160    62          17.1976051569         467.9706274863     SG+        A1 (1)
  161   177          18.6629436485         507.8445149917      PI        B2 (3)
  162   125          18.6629436485         507.8445149919      PI        B1 (2)
  163    63          19.3958362739         527.7875372140     SG+        A1 (1)
  164    64          26.2326541240         713.8268089690      DE        A1 (1)
  165   213          26.2326541240         713.8268089690      DE        A2 (4)
  166   178          26.4504345702         719.7529161872      PI        B2 (3)
  167   126          26.4504345702         719.7529161872      PI        B1 (2)
  168    65          26.8671307212         731.0917949116     SG+        A1 (1)
  169   179          33.3389557517         907.1991071156      PI        B2 (3)
  170   127          33.3389557517         907.1991071162      PI        B1 (2)
  171    66          34.1678867480         929.7554662682     SG+        A1 (1)
  172    67          35.4976907271         965.9412721910     SG+        A1 (1)
  173   214          47.0814166964        1281.1504807401      DE        A2 (4)
  174    68          47.0814166964        1281.1504807401      DE        A1 (1)
  175   180          47.2611431109        1286.0410851127      PI        B2 (3)
  176   128          47.2611431109        1286.0410851127      PI        B1 (2)
  177    69          47.4012530997        1289.8536717352     SG+        A1 (1)
  178    70          63.6439419792        1731.8397062835     SG+        A1 (1)
  179   181          66.2582031053        1802.9773680935      PI        B2 (3)
  180   129          66.2582031053        1802.9773680937      PI        B1 (2)
  181    71          66.8067147050        1817.9031275318     SG+        A1 (1)
  182   182          98.4915705899        2680.0918889901      PH        B2 (3)
  183   130          98.4915705899        2680.0918889902      PH        B1 (2)
  184   215          98.5066467378        2680.5021318305      DE        A2 (4)
  185    72          98.5066467378        2680.5021318305      DE        A1 (1)
  186   183          98.5204775820        2680.8784882362      PI        B2 (3)
  187   131          98.5204775820        2680.8784882363      PI        B1 (2)
  188    73          98.5274461664        2681.0681130558     SG+        A1 (1)
  189    74         103.3213091624        2811.5157570085      DE        A1 (1)
  190   216         103.3213091625        2811.5157570108      DE        A2 (4)
  191   184         103.3311284537        2811.7829535083      PH        B2 (3)
  192   132         103.3311284537        2811.7829535083      PH        B1 (2)
  193   133         103.3315532499        2811.7945127997      PI        B1 (2)
  194   185         103.3315532499        2811.7945127997      PI        B2 (3)
  195    75         103.3432936484        2812.1139852851     SG+        A1 (1)
  196   217         114.9408974000        3127.7008274926      DE        A2 (4)
  197    76         114.9408974000        3127.7008274926      DE        A1 (1)
  198   186         115.0475370188        3130.6026390441      PI        B2 (3)
  199   134         115.0475370188        3130.6026390441      PI        B1 (2)
  200    77         115.2226502351        3135.3677119111     SG+        A1 (1)
  201   187         116.6597595548        3174.4734445964      PI        B2 (3)
  202   135         116.6597595548        3174.4734445970      PI        B1 (2)
  203    78         117.3560022284        3193.4191709291     SG+        A1 (1)
  204    79         121.7662670158        3313.4285769523     SG+        A1 (1)
  205   218         198.5660920568        5403.2580611982      DE        A2 (4)
  206    80         198.5660920568        5403.2580611983      DE        A1 (1)
  207   136         198.6639028721        5405.9196287933      PI        B1 (2)
  208   188         198.6639028721        5405.9196287934      PI        B2 (3)
  209    81         198.7378659593        5407.9322667173     SG+        A1 (1)
  210    82         216.1768086618        5882.4700226844     SG+        A1 (1)
  211   189         224.7474524185        6115.6890959326      PI        B2 (3)
  212   137         224.7474524185        6115.6890959327      PI        B1 (2)
  213    83         225.1807632641        6127.4800834844     SG+        A1 (1)
  214   190         395.2112288864       10754.2442732134      PI        B2 (3)
  215   138         395.2112288864       10754.2442732139      PI        B1 (2)
  216    84         395.7420189894       10768.6878062111     SG+        A1 (1)
  217    85         508.5217596369       13837.5805687231     SG+        A1 (1)
  218    86         894.9876041885       24353.8508358215     SG+        A1 (1)


  VSCF finished.

 @CHECKOUT-I, Total execution time (CPU/WALL):       52.35/       8.95 seconds.
--executable xvscf finished with status     0 in        8.97 seconds (walltime).
 --invoking executable--
/nfs/workspaces/public/cfour_mpi/bin/xvtran
 @GETMEM-I,  Allocated    3814 MB of main memory.
  Full RHF integral transformation
  Transformation of IIII integrals :
  1 pass through the AO integral file was required.
     4389576 AO integrals were read.
     8557016 MO integrals were written to HF2.
  Transformation of IIJJ integrals :
  1 pass through the AO integral file was required.
     9975629 AO integrals were read.
    14355458 MO integrals were written to HF2.
  Transformation of IJIJ integrals :
  1 pass through the AO integral file was required.
    18944941 AO integrals were read.
    26736336 MO integrals were written to HF2.
  Transformation of IJKL integrals :
  1 pass through the AO integral file was required.
    13988652 AO integrals were read.
    18100651 MO integrals were written to HF2.
  Summary of active molecular orbitals: 
------------------------------------------------------------------------
 
  Index      Eigenvalue    Symmetry    Index      Eigenvalue    Symmetry
------------------------------------------------------------------------
     1       -20.6327885        1       110         4.1428776        2
     2       -11.5356321        1       111         4.1502251        2
     3        -1.2429066        1       112         4.4736572        2
     4        -0.8123135        1       113         5.0311191        2
     5        -0.5050425        1       114         5.3556694        2
     6        -0.4822458        2       115         5.8799606        2
     7        -0.4822458        3       116         6.1001301        2
     8         0.0562686        1       117         6.3333564        2
     9         0.0693565        1       118         6.6953501        2
    10         0.1554101        1       119         7.0025976        2
    11         0.1708543        1       120         9.6057885        2
    12         0.2195602        1       121        10.7260084        2
    13         0.2904141        1       122        10.9956079        2
    14         0.3049049        1       123        11.9129638        2
    15         0.4094038        1       124        12.1977091        2
    16         0.5155784        1       125        13.0959986        2
    17         0.5508427        1       126        18.6629436        2
    18         0.6985005        1       127        26.4504346        2
    19         0.7318837        1       128        33.3389558        2
    20         0.8084913        1       129        47.2611431        2
    21         0.8492143        1       130        66.2582031        2
    22         0.9029837        1       131        98.4915706        2
    23         1.1464911        1       132        98.5204776        2
    24         1.3303715        1       133       103.3311285        2
    25         1.5776773        1       134       103.3315532        2
    26         1.5877513        1       135       115.0475370        2
    27         1.6606068        1       136       116.6597596        2
    28         1.8833837        1       137       198.6639029        2
    29         1.9216528        1       138       224.7474524        2
    30         2.0574038        1       139       395.2112289        2
    31         2.1146487        1       140        -0.0224417        3
    32         2.2179386        1       141         0.0802304        3
    33         2.2686064        1       142         0.1833184        3
    34         2.3591337        1       143         0.2798729        3
    35         2.5632514        1       144         0.4084728        3
    36         2.6577818        1       145         0.6240212        3
    37         2.8037031        1       146         0.7258004        3
    38         3.7199118        1       147         0.7686949        3
    39         3.8130045        1       148         0.8670268        3
    40         4.0611245        1       149         1.0529837        3
    41         4.1389029        1       150         1.4188876        3
    42         4.3103449        1       151         1.4577676        3
    43         4.3214167        1       152         1.6414465        3
    44         4.5797726        1       153         2.0281518        3
    45         4.8780735        1       154         2.1717304        3
    46         5.0710341        1       155         2.1972422        3
    47         5.8091368        1       156         2.2027285        3
    48         5.9514424        1       157         2.4718128        3
    49         6.0383580        1       158         2.6317509        3
    50         6.1395830        1       159         3.2742908        3
    51         6.2461862        1       160         3.8668602        3
    52         6.4628953        1       161         4.1428776        3
    53         7.0528435        1       162         4.1502251        3
    54         7.4664316        1       163         4.4736572        3
    55         9.3287529        1       164         5.0311191        3
    56        10.6582116        1       165         5.3556694        3
    57        10.6781061        1       166         5.8799606        3
    58        10.9239949        1       167         6.1001301        3
    59        11.1129379        1       168         6.3333564        3
    60        11.9747201        1       169         6.6953501        3
    61        12.4792056        1       170         7.0025976        3
    62        12.7237331        1       171         9.6057885        3
    63        13.3285139        1       172        10.7260084        3
    64        17.1976052        1       173        10.9956079        3
    65        19.3958363        1       174        11.9129638        3
    66        26.2326541        1       175        12.1977091        3
    67        26.8671307        1       176        13.0959986        3
    68        34.1678867        1       177        18.6629436        3
    69        35.4976907        1       178        26.4504346        3
    70        47.0814167        1       179        33.3389558        3
    71        47.4012531        1       180        47.2611431        3
    72        63.6439420        1       181        66.2582031        3
    73        66.8067147        1       182        98.4915706        3
    74        98.5066467        1       183        98.5204776        3
    75        98.5274462        1       184       103.3311285        3
    76       103.3213092        1       185       103.3315532        3
    77       103.3432936        1       186       115.0475370        3
    78       114.9408974        1       187       116.6597596        3
    79       115.2226502        1       188       198.6639029        3
    80       117.3560022        1       189       224.7474524        3
    81       121.7662670        1       190       395.2112289        3
    82       198.5660921        1       191         0.2195602        4
    83       198.7378660        1       192         0.5508427        4
    84       216.1768087        1       193         0.7318837        4
    85       225.1807633        1       194         0.8492143        4
    86       395.7420190        1       195         1.5877513        4
    87       508.5217596        1       196         1.6606068        4
    88       894.9876042        1       197         2.0574038        4
    89        -0.0224417        2       198         2.1146487        4
    90         0.0802304        2       199         2.2686064        4
    91         0.1833184        2       200         2.5632514        4
    92         0.2798729        2       201         3.7199118        4
    93         0.4084728        2       202         4.1389029        4
    94         0.6240212        2       203         4.3103449        4
    95         0.7258004        2       204         4.5797726        4
    96         0.7686949        2       205         5.8091368        4
    97         0.8670268        2       206         6.0383580        4
    98         1.0529837        2       207         6.2461862        4
    99         1.4188876        2       208         6.4628953        4
   100         1.4577676        2       209        10.6781061        4
   101         1.6414465        2       210        10.9239949        4
   102         2.0281518        2       211        11.9747201        4
   103         2.1717304        2       212        12.7237331        4
   104         2.1972422        2       213        26.2326541        4
   105         2.2027285        2       214        47.0814167        4
   106         2.4718128        2       215        98.5066467        4
   107         2.6317509        2       216       103.3213092        4
   108         3.2742908        2       217       114.9408974        4
   109         3.8668602        2       218       198.5660921        4
------------------------------------------------------------------------
  -20.6327885044708       -11.5356321090661       -1.24290655170830     
 -0.812313464576189      -0.505042515015648      -0.482245781014029     
 -0.482245781014009       5.626864649453077E-002  6.935650330463709E-002
  0.155410054448838       0.170854312752572       0.219560166506806     
  0.290414089090267       0.304904856296043       0.409403801472158     
  0.515578352267588       0.550842665576360       0.698500489605701     
  0.731883749460121       0.808491285533606       0.849214255508099     
  0.902983711725623        1.14649110861014        1.33037146610894     
   1.57767726236480        1.58775129656471        1.66060675716519     
   1.88338371914034        1.92165276943917        2.05740381035896     
   2.11464865956145        2.21793856580372        2.26860637894599     
   2.35913372460466        2.56325141558530        2.65778176616223     
   2.80370312104879        3.71991181334654        3.81300453896998     
   4.06112451355930        4.13890289291943        4.31034486032285     
[...]
 Convergence information after    19 iterations: 
 Largest element of residual vector :  0.23440563E-06.
 Largest element of DIIS residual   : -0.11028934E-06.
 Convergence information after    20 iterations: 
 Largest element of residual vector : -0.10078649E-06.
 Largest element of DIIS residual   : -0.55556537E-07.
 Perturbed amplitude equations converged in    20 iterations.
  Dominant contributions to perturbed wavefunction:
    7    0   46    0   0.2275753348 AA  
    7    7  140   22  -0.2222877409 ABAB
    7    7   22  140  -0.2222877409 ABAB
    7    0   22    0   0.2200162725 AA  
    7    0   36    0   0.2175327949 AA  
    7    0   28    0   0.1938965427 AA  
    7    7  140   32  -0.1839530387 ABAB
    7    7   32  140  -0.1839530387 ABAB
    7    7  140   45  -0.1812878465 ABAB
    7    7   45  140  -0.1812878465 ABAB
    7    0   32    0   0.1714188797 AA  
    7    0   25    0  -0.1687930040 AA  
    7    7  140   46  -0.1677169884 ABAB
    7    7   46  140  -0.1677169884 ABAB
    7    0   39    0   0.1653401732 AA  
    7    7  140   28  -0.1590097224 ABAB
    7    7   28  140  -0.1590097224 ABAB
    7    0   56    0   0.1582695278 AA  
    7    0   54    0  -0.1575633344 AA  
    7    0   16    0  -0.1572885650 AA  
  norm of converged amps    1.57906055661363     
 Starting iterative solution of the perturbed Lambda equations.
 The DIIS procedure is used to accelerate convergence.
 Convergence criterion is 10**(-7).
 Maximum number of iterations is 100.
 Convergence information after     1 iterations: 
 Largest element of residual vector :  0.77482359E-01.
 Largest element of DIIS residual   :  0.77482359E-01.
 Convergence information after     2 iterations: 
 Largest element of residual vector : -0.17428151E-01.
 Largest element of DIIS residual   :  0.14503575E-01.
 Convergence information after     3 iterations: 
 Largest element of residual vector :  0.62029765E-02.
 Largest element of DIIS residual   :  0.59261106E-02.
 Convergence information after     4 iterations: 
 Largest element of residual vector :  0.32655023E-02.
 Largest element of DIIS residual   :  0.30825641E-02.
 Convergence information after     5 iterations: 
 Largest element of residual vector :  0.31762480E-02.
 Largest element of DIIS residual   :  0.27706394E-02.
 Convergence information after     6 iterations: 
 Largest element of residual vector :  0.18704209E-02.
 Largest element of DIIS residual   :  0.88805292E-03.
 Convergence information after     7 iterations: 
 Largest element of residual vector :  0.96562896E-03.
 Largest element of DIIS residual   :  0.47728090E-03.
 Convergence information after     8 iterations: 
 Largest element of residual vector :  0.36695242E-03.
 Largest element of DIIS residual   : -0.19693189E-03.
 Convergence information after     9 iterations: 
 Largest element of residual vector :  0.15953648E-03.
 Largest element of DIIS residual   : -0.10153381E-03.
 Convergence information after    10 iterations: 
 Largest element of residual vector :  0.10157319E-03.
 Largest element of DIIS residual   : -0.69436129E-04.
 Convergence information after    11 iterations: 
 Largest element of residual vector : -0.38041568E-04.
 Largest element of DIIS residual   : -0.13575135E-04.
 Convergence information after    12 iterations: 
 Largest element of residual vector :  0.18506715E-04.
 Largest element of DIIS residual   :  0.97941887E-05.
 Convergence information after    13 iterations: 
 Largest element of residual vector :  0.49610543E-05.
 Largest element of DIIS residual   :  0.41800264E-05.
 Convergence information after    14 iterations: 
 Largest element of residual vector :  0.51780903E-05.
 Largest element of DIIS residual   :  0.26962813E-05.
 Convergence information after    15 iterations: 
 Largest element of residual vector :  0.28608081E-05.
 Largest element of DIIS residual   :  0.13869000E-05.
 Convergence information after    16 iterations: 
 Largest element of residual vector :  0.11708150E-05.
 Largest element of DIIS residual   :  0.32808129E-06.
 Convergence information after    17 iterations: 
 Largest element of residual vector :  0.60128589E-06.
 Largest element of DIIS residual   :  0.27878376E-06.
 Convergence information after    18 iterations: 
 Largest element of residual vector :  0.11903546E-06.
 Largest element of DIIS residual   : -0.10460855E-06.
 Convergence information after    19 iterations: 
 Largest element of residual vector :  0.10811323E-06.
 Largest element of DIIS residual   : -0.45995340E-07.
 Perturbed Lambda equations converged in    19 iterations.
  Dominant contributions to perturbed wavefunction:
    7    7  140   22  -0.1631071851 ABAB
    7    7   22  140  -0.1631071851 ABAB
    7    7  140   45  -0.1360138948 ABAB
    7    7   45  140  -0.1360138948 ABAB
    7    7  140   32  -0.1358235002 ABAB
    7    7   32  140  -0.1358235002 ABAB
    7    7  140   46  -0.1173322252 ABAB
    7    7   46  140  -0.1173322252 ABAB
    7    7  140   39  -0.1137459423 ABAB
    7    7   39  140  -0.1137459423 ABAB
    7    7  140   28  -0.1135736020 ABAB
    7    7   28  140  -0.1135736020 ABAB
    7    7  140   56  -0.1092134096 ABAB
    7    7   56  140  -0.1092134096 ABAB
    7    7  140   36  -0.1076875650 ABAB
    7    7   36  140  -0.1076875650 ABAB
    7    6   22   89  -0.1015384165 ABAB
    6    7   89   22  -0.1015384165 ABAB
    7    7  140   16   0.1010846533 ABAB
    7    7   16  140   0.1010846533 ABAB
        The DBOC first-order density matrix is being calculated 
             (Symmetry block 3, perturbation   2)
 term   2.58611989824768     
 final tnorm  0.718101594331835     
  norm contr. I: |<0|L dT/dx|0>|^2   0.000000000000000E+000
  norm contr. II: <0|[nabla(1+L)e-T][nabla e^T]|0>   2.58611989824768     
  total norm contribution   2.58611989824768     
 oo  1.181770818746307E-002
 vv  -19.3298846508798     
 vo  2.152228569183469E-002
  Correlated perturbed 1-el contribution to DBOC  -19.2965446570005       cm**-1
  SUM_I |dc_I/dx|^2 contribution to DBOC   9.73599042685753       cm**-1
 
 
  The total diagonal Born-Oppenheimer correction (DBOC) is:      0.0041397469 a.u.
  The total diagonal Born-Oppenheimer correction (DBOC) is:        908.569434 cm-1
 
 Total CC energy including DBOC  -113.027470382686     
 First-order density matrix is being calculated  (Symmetry block 3, perturbation   2)
 Calculation of the contributions of <pq||rs> to dI(i,j)/dx required   1.4 seconds.
 Calculation of the contributions of <pq||rs> to dI(a,b)/dx required  13.2 seconds.
 Calculation of the contributions of <pq||rs> to dI(i,a)/dx required   9.0 seconds.
 First-order Z-vector equations are solved for 1 perturbation.
 Convergence reached after  20 iterations.
        U*G(pq,rs) contribution is being calculated
             (Symmetry block 3, perturbation   2)

 CCSD contribution to force constants 

        0.0000000000        0.0000000000        0.0000000000
        0.0000000000        0.0000000000        0.0000000000
        0.0000000000        0.0000000000        0.0000000000
        0.0000000000        0.0000000000        0.0000000000
        0.0000000000        0.0000000000        0.0000000000
        0.0000000000        0.0000000000        0.0000000000
        0.0000000000        0.0000000000        0.0000000000
        0.0000000000        0.0000000000        0.0000000000
        0.0000000000        0.0000000000        0.0000000000
        0.0000000000        0.0000000000        0.0000000000
        0.0000000000        0.0000000000        0.0000000000
        0.0000000000       -8.4848005899        8.4848005899

 CCSD contribution to dipole derivatives 

        0.0000000000        0.0000000000        0.0000000000
        0.0000000000        0.0000000000        0.0000000000
        0.0000000000        0.0000000000        0.0000000000
        0.0000000000        0.0000000000       -0.0566254846
        0.0000000000        0.0000000000        0.0000000000
        0.0000000000        0.0000000000        0.0000000000
 @CHECKOUT-I, Total execution time (CPU/WALL):     1087.20/     235.99 seconds.
--executable xsdcc finished with status     0 in      236.03 seconds (walltime).
 --invoking executable--
/nfs/workspaces/public/cfour_mpi/bin/xanti
 @GETMEM-I,  Allocated    3814 MB of main memory.
 CCSD MO derivative gammas will be sorted to Mulliken order.
 @CHECKOUT-I, Total execution time (CPU/WALL):        8.33/       9.12 seconds.
--executable xanti finished with status     0 in        9.15 seconds (walltime).
 --invoking executable--
/nfs/workspaces/public/cfour_mpi/bin/xbcktrn
 @GETMEM-I,  Allocated    3814 MB of main memory.
 CCSD MO derivative gammas will be transformed to the AO basis.
 @CHECKOUT-I, Total execution time (CPU/WALL):       18.65/       3.44 seconds.
--executable xbcktrn finished with status     0 in        3.46 seconds (walltime).
 --invoking executable--
/nfs/workspaces/public/cfour_mpi/bin/xvdint
 @GETMEM-I,  Allocated    3814 MB of main memory.
 One- and two-electron integral derivatives are calculated
 for RHF-CC/MBPT hessians and dipole derivatives.
 Spherical gaussians are used.
  magnet F F
                    8722  records have been written to the Sort file.
  Total length of Sort file :             178609116  words.
 Evaluation of 2el integral derivatives

                      Two-electron integral gradient
                      ------------------------------

                         C #1 z     0.0000000000
                         O #2 z     0.0000000000


 C #1       0.0000000000            0.0778861529            0.0000000000
 O #2       0.0000000000           -0.0778861529            0.0000000000


 Evaluation of 2e integral derivatives required  251.35 seconds.
  contribution to Hessian
        0.0000000000        0.0000000000        0.0000000000
        0.0000000000        0.0778861529       -0.0778861529
 @CHECKOUT-I, Total execution time (CPU/WALL):      251.34/      64.91 seconds.
--executable xvdint finished with status     0 in       64.94 seconds (walltime).
 --invoking executable--
/nfs/workspaces/public/cfour_mpi/bin/xanti
 @GETMEM-I,  Allocated    3814 MB of main memory.
 CCSD MO gammas will be sorted to Mulliken order.
 @CHECKOUT-I, Total execution time (CPU/WALL):       10.40/       8.95 seconds.
--executable xanti finished with status     0 in        8.98 seconds (walltime).
 --invoking executable--
/nfs/workspaces/public/cfour_mpi/bin/xbcktrn
 @GETMEM-I,  Allocated    3814 MB of main memory.
 CCSD MO gammas will be transformed to the AO basis.
 @CHECKOUT-I, Total execution time (CPU/WALL):       25.64/       6.27 seconds.
--executable xbcktrn finished with status     0 in        6.30 seconds (walltime).
 --invoking executable--
/nfs/workspaces/public/cfour_mpi/bin/xvdint
 @GETMEM-I,  Allocated    3814 MB of main memory.
 One- and two-electron integral derivatives are calculated
 for RHF-CC/MBPT hessians and dipole derivatives.
 Spherical gaussians are used.
  magnet F F

                     Kinetic energy integral gradient
                     --------------------------------

                         C #1 z    -0.4214262755
                         O #2 z     0.4214262755


 C #1       0.0000000000            0.0000000000           -0.4214262755
 O #2       0.0000000000            0.0000000000            0.4214262755



                   Nuclear attraction integral gradient
                   ------------------------------------

                         C #1 z    12.1892617458
                         O #2 z   -12.1892617458


 C #1       0.0000000000            0.0000000000           12.1892617458
 O #2       0.0000000000            0.0000000000          -12.1892617458



                      Reorthonormalization gradient
                      -----------------------------

                         C #1 z     0.0000000000
                         O #2 z     0.0000000000


 C #1       0.0000000000            0.0000000000            0.0000000000
 O #2       0.0000000000            0.0000000000            0.0000000000



                     Kinetic energy integral Hessian
                     -------------------------------


           Symmetry 1

           C #1 z      O #2 z

 C #1 z    0.446616
 O #2 z   -0.446616    0.446616


           Symmetry 2

           C #1 x      O #2 x

 C #1 x   -0.289130
 O #2 x    0.289130   -0.289130


           Symmetry 3

           C #1 y      O #2 y

 C #1 y   -0.289130
 O #2 y    0.289130   -0.289130




           C #1 x      C #1 y      C #1 z      O #2 x      O #2 y      O #2 z

 C #1 x   -0.289130
 C #1 y    0.000000   -0.289130
 C #1 z    0.000000    0.000000    0.446616

 O #2 x    0.289130    0.000000    0.000000   -0.289130
 O #2 y    0.000000    0.289130    0.000000    0.000000   -0.289130
 O #2 z    0.000000    0.000000   -0.446616    0.000000    0.000000    0.446616




                   Nuclear attraction integral Hessian
                   -----------------------------------


           Symmetry 1

           C #1 z      O #2 z

 C #1 z   -7.253473
 O #2 z    7.253473   -7.253473


           Symmetry 2

           C #1 x      O #2 x

 C #1 x    5.905178
 O #2 x   -5.905178    5.905178


           Symmetry 3

           C #1 y      O #2 y

 C #1 y    5.905178
 O #2 y   -5.905178    5.905178




           C #1 x      C #1 y      C #1 z      O #2 x      O #2 y      O #2 z

 C #1 x    5.905178
 C #1 y    0.000000    5.905178
 C #1 z    0.000000    0.000000   -7.253473

 O #2 x   -5.905178    0.000000    0.000000    5.905178
 O #2 y    0.000000   -5.905178    0.000000    0.000000    5.905178
 O #2 z    0.000000    0.000000    7.253473    0.000000    0.000000   -7.253473




                Highest order reorthonormalization Hessian
                ------------------------------------------


           Symmetry 1

           C #1 z      O #2 z

 C #1 z    0.000000
 O #2 z    0.000000    0.000000


           Symmetry 2

           C #1 x      O #2 x

 C #1 x    0.000000
 O #2 x    0.000000    0.000000


           Symmetry 3

           C #1 y      O #2 y

 C #1 y    0.000000
 O #2 y    0.000000    0.000000




           C #1 x      C #1 y      C #1 z      O #2 x      O #2 y      O #2 z




                Electronic contributions to dipole moment
                -----------------------------------------

                               au             Debye

                    z      0.56156942      1.42736734

  Conversion factor used: 1 a.u. =   2.54174691 Debye 



   Electronic contributions to static part of dipole moment derivatives
   --------------------------------------------------------------------


                     Total dipole moment derivatives
                     -------------------------------


           Symmetry 1
                              Ez

               C #1 z    -5.67349893
               O #2 z    -8.32650107

           Symmetry 2
                              Ex

               C #1 x    -5.68742146
               O #2 x    -8.31257854

           Symmetry 3
                              Ey

               C #1 y    -5.68742146
               O #2 y    -8.31257854



                       Ex          Ey          Ez

      C #1    x   -5.687421    0.000000    0.000000
      C #1    y    0.000000   -5.687421    0.000000
      C #1    z    0.000000    0.000000   -5.673499

      O #2    x   -8.312579    0.000000    0.000000
      O #2    y    0.000000   -8.312579    0.000000
      O #2    z    0.000000    0.000000   -8.326501

 Evaluation of 1e integral derivatives required    1.63 seconds.
                    8815  records have been written to the Sort file.
  Total length of Sort file :             180513570  words.
 Evaluation of 2el integral derivatives

                      Two-electron integral gradient
                      ------------------------------

                         C #1 z    -6.6282454086
                         O #2 z     6.6282454086


 C #1       0.0000000000            0.0000000000           -6.6282454086
 O #2       0.0000000000            0.0000000000            6.6282454086


 Evaluation of 2e integral derivatives required  541.35 seconds.

                            Molecular gradient
                            ------------------

                         C #1 z     0.5261071195
                         O #2 z    -0.5261071195


 C #1       0.0000000000            0.0000000000            0.5261071195
 O #2       0.0000000000            0.0000000000           -0.5261071195


  Molecular gradient norm 0.744E+00

                            Molecular hessian
                            -----------------


           Symmetry 1

           C #1 z      O #2 z

 C #1 z    9.570394
 O #2 z   -9.570394    9.570394


           Symmetry 2

           C #1 x      O #2 x

 C #1 x    8.638991
 O #2 x   -8.638991    8.638991


           Symmetry 3

           C #1 y      O #2 y

 C #1 y    8.638991
 O #2 y   -8.638991    8.638991




           C #1 x      C #1 y      C #1 z      O #2 x      O #2 y      O #2 z

 C #1 x    8.638991
 C #1 y    0.000000    8.638991
 C #1 z    0.000000    0.000000    9.570394

 O #2 x   -8.638991    0.000000    0.000000    8.638991
 O #2 y    0.000000   -8.638991    0.000000    0.000000    8.638991
 O #2 z    0.000000    0.000000   -9.570394    0.000000    0.000000    9.570394




                           Total dipole moment
                           -------------------

                               au             Debye

                    z      0.55805381      1.41843155

  Conversion factor used: 1 a.u. =   2.54174691 Debye 



                     Total dipole moment derivatives
                     -------------------------------


           Symmetry 1
                              Ez

               C #1 z     0.48947912
               O #2 z    -0.48947912

           Symmetry 2
                              Ex

               C #1 x     0.18609128
               O #2 x    -0.18609128

           Symmetry 3
                              Ey

               C #1 y     0.18609128
               O #2 y    -0.18609128



                       Ex          Ey          Ez

      C #1    x    0.186091    0.000000    0.000000
      C #1    y    0.000000    0.186091    0.000000
      C #1    z    0.000000    0.000000    0.489479

      O #2    x   -0.186091    0.000000    0.000000
      O #2    y    0.000000   -0.186091    0.000000
      O #2    z    0.000000    0.000000   -0.489479

 @CHECKOUT-I, Total execution time (CPU/WALL):      542.98/      96.88 seconds.
--executable xvdint finished with status     0 in       96.90 seconds (walltime).
 --invoking executable--
/nfs/workspaces/public/cfour_mpi/bin/xjoda
  @GTFLGS-I, Hessian will be transformed to curvilinear coordinates.
  @GTFLGS-I, Hessian will be transformed to curvilinear coordinates.
  igrd and ihes are                      0                     1
  gradient from JOBARC 
   0.000000000000000   0.000000000000000   0.526107119507268
   0.000000000000000   0.000000000000000  -0.526107119507268
 
  @PROJFCM-I, Projecting force constant matrix onto totally symmetric subspace.
  Largest difference between matrix elements of symmetrized
  and unsymmetrized FCM :     0.1545430450E-12.
  read isotopes from ZMAT file 
 
  Summary of diagonal Born-Oppenheimer correction at the correlated level
  The total diagonal Born-Oppenheimer correction (DBOC) is:      0.0041397469 a.u.
  The total diagonal Born-Oppenheimer correction (DBOC) is:        908.569434 cm-1
  The total diagonal Born-Oppenheimer correction (DBOC) is:            10.869 kJ/mole
  hellooooooo 
  readis is  F
 
 @CHECKOUT-I, Total execution time (CPU/WALL):        0.01/       0.01 seconds.
--executable xjoda finished with status     0 in        0.04 seconds (walltime).
  The final electronic energy is      -113.027470382685948 a.u. 
  This computation required                         2299.79 seconds (walltime).
