 --invoking executable--
/nfs/workspaces/public/cfour_mpi/bin/xjoda


   *************************************************************************
         <<<     CCCCCC     CCCCCC   |||     CCCCCC     CCCCCC   >>>
       <<<      CCC        CCC       |||    CCC        CCC         >>>
      <<<      CCC        CCC        |||   CCC        CCC            >>>
    <<<        CCC        CCC        |||   CCC        CCC              >>>
      <<<      CCC        CCC        |||   CCC        CCC            >>>
       <<<      CCC        CCC       |||    CCC        CCC         >>>
         <<<     CCCCCC     CCCCCC   |||     CCCCCC     CCCCCC   >>>
   *************************************************************************

     ****************************************************************
     * CFOUR Coupled-Cluster techniques for Computational Chemistry *
     ****************************************************************
 

   Department of Chemistry                Institut fuer Physikalische Chemie
   University of Florida                  Universitaet Mainz
   Gainesville, FL 32611, USA             D-55099 Mainz, Germany

   Department of Chemistry                Fakultaet fuer Chemie und Biowiss.
   Johns Hopkins University               Karlsruher Institut fuer Technologie
   Baltimore, MD 21218, USA               D-76131 Karlsruhe, Germany

   Department of Chemistry                Department of Physical Chemistry
   Southern Methodist University          Eotvos Lorand University
   Dallas, TX 75275, USA                  H-1053 Budapest, Hungary

 
                       Version 2.1
 
                     vincent.theory.phys.ucl.ac.uk                     
                     Mon 24 Feb 18:29:37 GMT 2025                      
                     integer*8 version is running
 
********************************************************************************
*                          Input from ZMAT file                                *
********************************************************************************
Carbon Monoxide DBOC calculation                                                
C                                                                               
O 1 r                                                                           
                                                                                
r=1.0241379310344827                                                            
                                                                                
                                                                                
*CFOUR(CALC=CCSD,BASIS=AUG-PCVQZ,SCF_CONV=10                                    
CC_CONV=14,DBOC=ON,MEMORY=500000000                                             
ZFIELD=-200)                                                                    
                                                                                
%isotopes                                                                       
12                                                                              
16                                                                              
********************************************************************************
  @GTFLGS-I, Hessian will be transformed to curvilinear coordinates.
    -------------------------------------------------------------------
                    CFOUR Control Parameters 
    -------------------------------------------------------------------
        External           Internal           Value            Units
          Name               Name
    -------------------------------------------------------------------
       ABCDTYPE             IABCDT         STANDARD    [  0]    ***   
       ANHARMONIC           IANHAR         OFF         [  0]    ***   
       ANH_ALGORIT          IANALG         STANDARD    [  0]    ***   
       ANH_DERIVAT          IANDER         SECOND      [  1]    ***   
       ANH_MODE             ANHMOD         VIBRATION   [  0]    ***   
       ANH_STEPSIZ          ICUBST             50000          x 10-6  
       ANH_SYMMETR          IANHSM         ABELIAN     [  0]    ***   
       AO_LADDERS           IAOLAD         SINGLEPASS  [  1]    ***   
       AV_SCF               IAVSCF         OFF         [  0]    ***   
       BASIS                IBASIS         AUG-PCVQZ   [ 52]    ***   
       BOTHVECTORS          BOTHVC         OFF         [  0]    ***   
       BOX_POTENT           IPIAB          OFF         [  0]    ***   
       BREIT                IBREIT         OFF         [  0]    ***   
       BRUCK_CONV           IBRTOL          10D-  4             ***   
       BRUECKNER            IBRKNR         OFF         [  0]    ***   
       BUFFERSIZE           IBUFFS              4096            ***   
       CACHE_RECS           ICHREC             10               ***   
       CALCLEVEL            ICLLVL         CCSD        [ 10]    ***   
       CCORBOPT             ICCORB         OFF         [  0]  x 0.01  
       CC_CONV              ICCCNV          10D- 14             ***   
       CC_EXPORDER          ICCEOR              5               ***   
       CC_EXTRAPOL          ICCEXT         DIIS        [  1]    ***   
       CC_GUESS             ICCGES         MP2         [  0]    ***   
       CC_MAXCYC            ICCCYC            100              cycles 
       CC_PROGRAM           ICCPRO         VCC         [  0]    ***   
       CHARGE               ICHRGE              0               ***   
       CHOLESKY             ICHOLE         OFF         [  0]    ***   
       CIS_CONV             ICISTL              5               ***   
       COMM_SIZE            IPSIZE            ***               ***   
       CONSTANT             ICONST         OLD         [  1]    ***   
       CONTINUUM            ICONTU         NONE        [  0]    ***   
       CONTRACTION          ICNTYP         GENERAL     [  1]    ***   
       COORDINATES          ICOORD         INTERNAL    [  0]    ***   
       CPHF_CONVER          ICPHFT          10D- 16             ***   
       CPHF_MAXCYC          ICPHFC             64              cycles 
       CUBIC                ICUBIC         OFF         [  0]    ***   
       CURVILINEAR          ICURVY         ON          [  1]    ***   
       DBOC                 IDBOC          ON          [  1]    ***   
       DCT                  IDCT           OFF         [  0]    ***   
       DERIV_LEV            IDRLVL         SECOND      [  2]    ***   
       DEVMEM_SIZE          IDVMEM          50000000           MByte  
       DIAG_MRCC            IEOMST          10D-  0             ***   
       DIFF_TYPE            IDIFTY         RELAXED     [  0]    ***   
       DIRECT               IDIRCT         OFF         [  0]    ***   
       DROPMO               IDRPMO      NONE         
       ECP                  IECP           OFF         [  0]    ***   
       EIGENVECTOR          IVEC                1               ***   
       EL_ANHARM            IELANH         OFF         [  0]    ***   
       EOMFOLLOW            IEOMSR         ENERGY      [  0]    ***   
       EOMIP                IEOMIP         OFF         [  0]    ***   
       EOMLEVEL             HBARFM         SAME        [  0]    ***   
       EOM_MRCC             IMRCCE         NEW         [  1]    ***   
       EOM_NONIT            EOMNON         OFF         [  0]    ***   
       EOM_NSING            IEOMSI          10D-  0             ***   
       EOM_NSTATES          IMRCCD         DAVIDSON    [  0]    ***   
       EOM_NTRIP            IEOMTR          10D-  0             ***   
       EOM_ORDER            IEXORD         ENERGY      [  0]    ***   
       EOM_PROPSTA          IEOMST              0               ***   
       ESTATE_CONV          IEXTOL          10D-  5             ***   
       ESTATE_DIAG          IEXDIG         ITERATIVE   [  0]    ***   
       ESTATE_LOCK          IESLOC         ON          [  1]    ***   
       ESTATE_MAXC          IEXMXC             40               ***   
       ESTATE_PROP          IEXPRP         OFF         [  0]    ***   
       EVAL_HESS            IRECAL              0            # of cyc.
       EXCITATION           IEXCIT              0               ***   
       EXCITE               IEXCIT         NONE        [  0]    ***   
       EXTERN_POT           IEXPOT         OFF         [  0]    ***   
       FCGRADNEW            IFCGNW         OFF         [  0]    ***   
       FC_FIELD             IFINFC              0             x 10-6  
       FD_CALTYPE           IFDCAL         GRADONLY    [  0]    ***   
       FD_PROJECT           IFDPRJ         OFF         [  1]    ***   
       FD_STEPSIZE          IDISFD              0            10-4 bohr
       FD_USEGROUP          IFDGRP         FULL        [  0]    ***   
       FILE_RECSIZ          IFLREC              4096           words  
       FINITE_PERT          IFIPER              0             x 10-6  
       FIXGEOM              IFIXGM         OFF         [  0]    ***   
       FOCK                 IFOCK          AO          [  1]    ***   
       FREQ_ALGORI          IVIALG         STANDARD    [  0]    ***   
       FROZEN_CORE          IFROCO         OFF         [  0]    ***   
       GAMMA_ABCD           IGABCD         STORE       [  0]    ***   
       GAMMA_ABCI           IGABCI         STORE       [  0]    ***   
       GENBAS_1             IGNBS1              0               ***   
       GENBAS_2             IGNBS2              0               ***   
       GENBAS_3             IGNBS3              0               ***   
       GENBAS_4             IGNBS4              0               ***   
       GEO_CONV             ICONTL              5              H/bohr 
       GEO_MAXCYC           IOPTCY             50               ***   
       GEO_MAXSTEP          IMXSTP            300            millibohr
       GEO_METHOD           INR            SINGLE_POINT[  5]    ***   
       GIAO                 IGIAO          OFF         [  1]    ***   
       GIMIC                IGIMIC         OFF         [  0]    ***   
       GRID                 IGRID          OFF         [  0]    ***   
       GRID_ALGO            IGALGO         SERIAL      [  0]    ***   
       GUESS                IGUESS         MOREAD      [  0]    ***   
       HBAR                 IHBAR          OFF         [  0]    ***   
       HESS_TYPE            IHESTP         SCF         [  0]    ***   
       HF2_FILE             IHF2Fl         USE         [  1]    ***   
       HFSTABILITY          ISTABL         OFF         [  0]    ***   
       INCORE               INCORE         OFF         [  0]    ***   
       INPUT_MRCC           IMRCC          ON          [  1]    ***   
       INTEGRALS            INTTYP         VMOL        [  1]    ***   
       JODA_PRINT           IJPRNT              0               ***   
       KEYWORD_OUT          IDMPKW         NO          [  0]    ***   
       LINDEP_TOL           ILINDP              8               ***   
       LINEQ_CONV           IZTACN          10D-  7           cycles  
       LINEQ_EXPOR          ILMAXD              5               ***   
       LINEQ_MAXCY          ILMAXC            100               ***   
       LINEQ_TYPE           ILTYPE         DIIS        [  1]    ***   
       LOCK_ORBOCC          ILOCOC         OFF         [  0]    ***   
       MEMORY_SIZE          IMEMSZ         500000000           words  
       MEM_UNIT             IMEMU          INTEGERWORDS[  0]    ***   
       MRCC                 IMRCCC         OFF         [  0]    ***   
       MULTIPLICTY          IMULTP              1               ***   
       NACOUPLING           IVCOUP         OFF         [  0]    ***   
       NEGEVAL              IDIE           ABORT       [  0]    ***   
       NEWNORM              INEWNO         OFF         [  0]    ***   
       NON-HF               INONHF         OFF         [  0]    ***   
       NTOP_TAMP            ITOPT2             15               ***   
       NUC_MODEL            INUCMO         POINT       [  0]    ***   
       OCCUPATION           IOCCU   ESTIMATED BY SCF 
       OPEN-SHELL           IOPEN          SPIN-ORBITAL[  0]    ***   
       OPTVIB               IOPTVB         OFF         [  0]    ***   
       ORBITALS             IORBTP         STANDARD    [  0]    ***   
       PARALLEL             IPARAL         ON          [  1]    ***   
       PARA_INT             IPINTS         ON          [  1]    ***   
       PARA_PRINT           IPPRIN              0               ***   
       PERT_ORB             IPTORB         STANDARD    [  0]    ***   
       POINTS               IGRDFD              0               ***   
       PRINT                IPRNT               0               ***   
       PROPS                IPROPS         OFF         [  0]    ***   
       PROP_INTEGR          IINTYP         INTERNAL    [  0]    ***   
       PSI                  IPSI           OFF         [  0]    ***   
       QC_ALG               IQCALG         FLM         [  0]    ***   
       QC_LINALG            IQCLIN         TRIDIAG     [  2]    ***   
       QC_MAXCYC            IQCMAX          10D-100           cycles  
       QC_MAXSCFCY          IQCMSC          10D- 15           cycles  
       QC_RTRUST            IQCRTR          10D-  0           x 10-3  
       QC_SKIPSCF           IQCSKI         OFF         [  0]    ***   
       QC_START             IQCSTA          10D-  1             ***   
       QRHFGUESS            IQGUES         OFF         [  0]    ***   
       QUARTIC              IQUART         OFF         [  0]    ***   
       RAMAN_INT            IRAMIN         OFF         [  0]    ***   
       RAMAN_ORB            IRAMRE         UNRELAXED   [  0]    ***   
       RDO                  IRDOFM         ON          [  1]    ***   
       REDUCE_REPR          REDREP         Ir          [  0]    ***   
       REFERENCE            IREFNC         RHF         [  0]    ***   
       RELATIVIST           IRELAT         OFF         [  0]    ***   
       RELAX_DENS           IRDENS         ON          [  1]    ***   
       RESET_FLAGS          IRESET         OFF         [  0]    ***   
       RESTART_CC           ICCRES         OFF         [  0]    ***   
       ROT_EVEC             ROTVEC              0               ***   
       SAVE_INTS            ISVINT         OFF         [  0]    ***   
       SCALE_ON             ISTCRT              0               ***   
       SCF_CONV             ISCFCV          10D- 10             ***   
       SCF_DAMPING          IDAMP               0             x 10-3  
       SCF_EXPORDE          IRPPOR              6               ***   
       SCF_EXPSTAR          IRPPLS              8               ***   
       SCF_EXTRAPO          IRPP           ON          [  1]    ***   
       SCF_MAXCYC           ISCFCY            150              cycles 
       SCF_NOSTOP           ISCFST         OFF         [  0]    ***   
       SCF_PRINT            ISCFPR              0               ***   
       SCF_PROG             ISCFPR         SCF         [  0]    ***   
       SD_FIELD             IFINSD              0             x 10-6  
       SOPERT               IPERSO         OFF         [  0]    ***   
       SPHERICAL            IDFGHI         ON          [  1]    ***   
       SPINORBIT            ISOCAL         OFF         [  0]    ***   
       SPINROTATIO          ISRCON         OFF         [  0]    ***   
       SPIN_FLIP            ISPFLP         OFF         [  0]    ***   
       SPIN_ORBIT           ISPORB         OFF         [  0]    ***   
       SPIN_SCAL            ISCSMP         OFF         [  0]    ***   
       STEEPSCALE           ISTPSC              1000          x 10-3  
       SUBGROUP             ISUBGP         DEFAULT     [  0]    ***   
       SUBGRPAXIS           ISBXYZ         X           [  0]    ***   
       SYMMETRY             ISYM           ON          [  0]    ***   
       SYM_CHECK            ISYMCK         OVERRIDE    [  1]    ***   
       T3_EXTRAPOL          IT3EXT         OFF         [  0]    ***   
       T4_EXTRAPOL          IT4EXP         OFF         [  0]    ***   
       TAMP_SUM             IEVERY              5               ***   
       TESTSUITE            ITESTS         OFF         [  0]    ***   
       THERMOCH             ITHERM         OFF         [  0]    ***   
       TOL_CHOLESK          ITOLCH          10D-  4             ***   
       TRANGRAD             IRESRM         OFF         [  0]    ***   
       TRANS_INV            ITRAIN         IGNORE      [  1]    ***   
       TREAT_PERT           ITREAT         SIMULTANEOUS[  0]    ***   
       TRIP_ALGORI          ITRALG         NORMAL      [  0]    ***   
       UIJ_THRESHO          IUIJTH              1               ***   
       UNITS                IUNITS         ANGSTROM    [  0]    ***   
       UNOS                 IUNOS          OFF         [  0]    ***   
       UPDATE_HESS          IHUPDT         ON          [  1]    ***   
       VIBPHASE             ISETPH         STANDARD    [  0]    ***   
       VIBRATION            IVIB           ANALYTIC    [  1]    ***   
       VIB_ALGORIT          IGEALG         STANDARD    [  0]    ***   
       VNATORB              IVNORB         OFF         [  0]    ***   
       VTRAN                IVTRAN         FULL/PARTIAL[  0]    ***   
       XFIELD               IXEFLD              0             x 10-6  
       XFORM_TOL            IXFTOL          10D- 11             ***   
       YFIELD               IYEFLD              0             x 10-6  
       ZFIELD               IZEFLD            ***             x 10-6  
       ZSCALE_EXP           IZEXPS         OFF         [  0]    ***   
    -------------------------------------------------------------------
   2 entries found in Z-matrix 
   Job Title : Carbon Monoxide DBOC calculation                                                
   There are  1 unique internal coordinates.
   Of these,  0 will be optimized.
   User supplied Z-matrix: 
--------------------------------------------------------------------------------
       SYMBOL    BOND      LENGTH    ANGLE     ANGLE     DIHED     ANGLE
                  TO      (ANGST)    WRT      (DEG)      WRT      (DEG)
--------------------------------------------------------------------------------
        C    
        O          1         r    
                  *Initial values for internal coordinates* 
                      Name             Value
                        r               1.0241379310
--------------------------------------------------------------------------------
  read isotopes from ZMAT file 
   Rotational constants (in cm-1): 
          2.3442052124             2.3442052124
   Rotational constants (in MHz): 
      70277.5141151080         70277.5141151080
********************************************************************************
   The full molecular point group is CXv .
   The largest Abelian subgroup of the full molecular point group is C2v .
   The computational point group is C2v .
********************************************************************************
--------------------------------------------------------------------------------
   Analysis of internal coordinates specified by Z-matrix 
--------------------------------------------------------------------------------
   *The nuclear repulsion energy is   24.801835797979798 a.u.
   *There is   1 degree of freedom within the tot. symm. molecular subspace.
   *Z-matrix requests optimization of   0 coordinates.
   *The optimization is constrained.
   *The following   1 parameters can have non-zero 
    derivatives within the totally symmetric subspace:
             r    [ 1]
   *The following   0 parameters are to be optimized:

   *The following coordinates must be varied in an  unconstrained optimization.
             r    [ 1]
--------------------------------------------------------------------------------


 ----------------------------------------------------------------
         Coordinates used in calculation (QCOMP) 
 ----------------------------------------------------------------
 Z-matrix   Atomic            Coordinates (in bohr)
  Symbol    Number           X              Y              Z
 ----------------------------------------------------------------
     C         6        -0.00000000     0.00000000     1.10575825
     O         8         0.00000000     0.00000000    -0.82958236
 ----------------------------------------------------------------
 
   Interatomic distance matrix (Angstroms) 
 
                 C             O    
                [ 1]        [ 2]
  C    [ 1]     0.00000
  O    [ 2]     1.02414     0.00000
 rotcon2
   Rotational constants (in cm-1): 
          2.3442052124             0.0000000000
   Rotational constants (in MHz): 
      70277.5141151080             0.0000000000
  ECPDATA file not present.   Using default ECPDATA. 
  @GTFLGS-I, Hessian will be transformed to curvilinear coordinates.
  There are  218 basis functions.
 @CHECKOUT-I, Total execution time (CPU/WALL):        0.09/       0.14 seconds.
--executable xjoda finished with status     0 in        0.15 seconds (walltime).
 --invoking executable--
/nfs/workspaces/public/cfour_mpi/bin/xvmol
 SERIAL VERSION OF MOLECULE STARTED
********************************************************************************
                    INPUT FROM MOL FILE
********************************************************************************
INTGRL        1    0    1    0    0    0    0    0    0                         
         *** CFOUR Program System (Release V0.1) ***                            
Carbon Monoxide DBOC calculation                                                
    2    2 X  Y       0.10E-08              0    0                              
   9999.00      3.00                                                            
          6.00000000    1    5    1    1    1    1    1                         
C #1  -0.000000000000000   0.000000000000000   1.105758250440064                
   16    9                                                                      
   33980.0000000000       9.100000000000000E-005 -1.900000000000000E-005        
  0.000000000000000E+000  0.000000000000000E+000  0.000000000000000E+000        
  0.000000000000000E+000  0.000000000000000E+000  0.000000000000000E+000        
  0.000000000000000E+000                                                        
   5089.00000000000       7.040000000000000E-004 -1.510000000000000E-004        
  0.000000000000000E+000  0.000000000000000E+000  0.000000000000000E+000        
  0.000000000000000E+000  0.000000000000000E+000  0.000000000000000E+000        
  0.000000000000000E+000                                                        
   1157.00000000000       3.693000000000000E-003 -7.850000000000000E-004        
  0.000000000000000E+000  0.000000000000000E+000  0.000000000000000E+000        
  0.000000000000000E+000  0.000000000000000E+000  0.000000000000000E+000        
  0.000000000000000E+000                                                        
   326.600000000000       1.536000000000000E-002 -3.324000000000000E-003        
  0.000000000000000E+000  0.000000000000000E+000  0.000000000000000E+000        
  0.000000000000000E+000  0.000000000000000E+000  0.000000000000000E+000        
  0.000000000000000E+000                                                        
   106.100000000000       5.292900000000000E-002 -1.151200000000000E-002        
  0.000000000000000E+000  0.000000000000000E+000  0.000000000000000E+000        
  0.000000000000000E+000  0.000000000000000E+000  0.000000000000000E+000        
  0.000000000000000E+000                                                        
   38.1100000000000       0.147043000000000      -3.416000000000000E-002        
  0.000000000000000E+000  0.000000000000000E+000  0.000000000000000E+000        
  0.000000000000000E+000  0.000000000000000E+000  0.000000000000000E+000        
  0.000000000000000E+000                                                        
   14.7500000000000       0.305631000000000      -7.717300000000001E-002        
  0.000000000000000E+000  0.000000000000000E+000  0.000000000000000E+000        
  0.000000000000000E+000  0.000000000000000E+000  0.000000000000000E+000        
  0.000000000000000E+000                                                        
   6.03500000000000       0.399345000000000      -0.141493000000000             
  0.000000000000000E+000  0.000000000000000E+000  0.000000000000000E+000        
  0.000000000000000E+000  0.000000000000000E+000  0.000000000000000E+000        
  0.000000000000000E+000                                                        
   2.53000000000000       0.217051000000000      -0.118019000000000             
  0.000000000000000E+000  0.000000000000000E+000  0.000000000000000E+000        
  0.000000000000000E+000  0.000000000000000E+000  0.000000000000000E+000        
  0.000000000000000E+000                                                        
  0.735500000000000       1.589400000000000E-002  0.273806000000000             
   1.00000000000000       0.000000000000000E+000  0.000000000000000E+000        
  0.000000000000000E+000  0.000000000000000E+000  0.000000000000000E+000        
  0.000000000000000E+000                                                        
  0.290500000000000      -3.084000000000000E-003  0.586510000000000             
  0.000000000000000E+000   1.00000000000000       0.000000000000000E+000        
  0.000000000000000E+000  0.000000000000000E+000  0.000000000000000E+000        
  0.000000000000000E+000                                                        
  0.111100000000000       9.779999999999999E-004  0.285430000000000             
  0.000000000000000E+000  0.000000000000000E+000   1.00000000000000             
  0.000000000000000E+000  0.000000000000000E+000  0.000000000000000E+000        
  0.000000000000000E+000                                                        
   7.21600000000000       0.000000000000000E+000  0.000000000000000E+000        
  0.000000000000000E+000  0.000000000000000E+000  0.000000000000000E+000        
   1.00000000000000       0.000000000000000E+000  0.000000000000000E+000        
  0.000000000000000E+000                                                        
   19.5700000000000       0.000000000000000E+000  0.000000000000000E+000        
  0.000000000000000E+000  0.000000000000000E+000  0.000000000000000E+000        
  0.000000000000000E+000   1.00000000000000       0.000000000000000E+000        
  0.000000000000000E+000                                                        
   53.0730000000000       0.000000000000000E+000  0.000000000000000E+000        
  0.000000000000000E+000  0.000000000000000E+000  0.000000000000000E+000        
  0.000000000000000E+000  0.000000000000000E+000   1.00000000000000             
  0.000000000000000E+000                                                        
  4.145000000000000E-002  0.000000000000000E+000  0.000000000000000E+000        
  0.000000000000000E+000  0.000000000000000E+000  0.000000000000000E+000        
  0.000000000000000E+000  0.000000000000000E+000  0.000000000000000E+000        
   1.00000000000000                                                             
   10    8                                                                      
   34.5100000000000       5.378000000000000E-003  0.000000000000000E+000        
  0.000000000000000E+000  0.000000000000000E+000  0.000000000000000E+000        
  0.000000000000000E+000  0.000000000000000E+000  0.000000000000000E+000        
   7.91500000000000       3.613200000000000E-002  0.000000000000000E+000        
  0.000000000000000E+000  0.000000000000000E+000  0.000000000000000E+000        
  0.000000000000000E+000  0.000000000000000E+000  0.000000000000000E+000        
   2.36800000000000       0.142493000000000       0.000000000000000E+000        
  0.000000000000000E+000  0.000000000000000E+000  0.000000000000000E+000        
  0.000000000000000E+000  0.000000000000000E+000  0.000000000000000E+000        
  0.813200000000000       0.342150000000000        1.00000000000000             
  0.000000000000000E+000  0.000000000000000E+000  0.000000000000000E+000        
  0.000000000000000E+000  0.000000000000000E+000  0.000000000000000E+000        
  0.289000000000000       0.463864000000000       0.000000000000000E+000        
   1.00000000000000       0.000000000000000E+000  0.000000000000000E+000        
  0.000000000000000E+000  0.000000000000000E+000  0.000000000000000E+000        
  0.100700000000000       0.250028000000000       0.000000000000000E+000        
  0.000000000000000E+000   1.00000000000000       0.000000000000000E+000        
  0.000000000000000E+000  0.000000000000000E+000  0.000000000000000E+000        
   8.18200000000000       0.000000000000000E+000  0.000000000000000E+000        
  0.000000000000000E+000  0.000000000000000E+000   1.00000000000000             
  0.000000000000000E+000  0.000000000000000E+000  0.000000000000000E+000        
   24.1860000000000       0.000000000000000E+000  0.000000000000000E+000        
  0.000000000000000E+000  0.000000000000000E+000  0.000000000000000E+000        
   1.00000000000000       0.000000000000000E+000  0.000000000000000E+000        
   71.4940000000000       0.000000000000000E+000  0.000000000000000E+000        
  0.000000000000000E+000  0.000000000000000E+000  0.000000000000000E+000        
  0.000000000000000E+000   1.00000000000000       0.000000000000000E+000        
  3.218000000000000E-002  0.000000000000000E+000  0.000000000000000E+000        
  0.000000000000000E+000  0.000000000000000E+000  0.000000000000000E+000        
  0.000000000000000E+000  0.000000000000000E+000   1.00000000000000             
    6    6                                                                      
   1.84800000000000        1.00000000000000       0.000000000000000E+000        
  0.000000000000000E+000  0.000000000000000E+000  0.000000000000000E+000        
  0.000000000000000E+000                                                        
  0.649000000000000       0.000000000000000E+000   1.00000000000000             
  0.000000000000000E+000  0.000000000000000E+000  0.000000000000000E+000        
  0.000000000000000E+000                                                        
  0.228000000000000       0.000000000000000E+000  0.000000000000000E+000        
   1.00000000000000       0.000000000000000E+000  0.000000000000000E+000        
  0.000000000000000E+000                                                        
   8.65600000000000       0.000000000000000E+000  0.000000000000000E+000        
  0.000000000000000E+000   1.00000000000000       0.000000000000000E+000        
  0.000000000000000E+000                                                        
   33.2130000000000       0.000000000000000E+000  0.000000000000000E+000        
  0.000000000000000E+000  0.000000000000000E+000   1.00000000000000             
  0.000000000000000E+000                                                        
  7.660000000000000E-002  0.000000000000000E+000  0.000000000000000E+000        
  0.000000000000000E+000  0.000000000000000E+000  0.000000000000000E+000        
   1.00000000000000                                                             
    4    4                                                                      
   1.41900000000000        1.00000000000000       0.000000000000000E+000        
  0.000000000000000E+000  0.000000000000000E+000                                
  0.485000000000000       0.000000000000000E+000   1.00000000000000             
  0.000000000000000E+000  0.000000000000000E+000                                
   24.6940000000000       0.000000000000000E+000  0.000000000000000E+000        
   1.00000000000000       0.000000000000000E+000                                
  0.187000000000000       0.000000000000000E+000  0.000000000000000E+000        
  0.000000000000000E+000   1.00000000000000                                     
    2    2                                                                      
   1.01100000000000        1.00000000000000       0.000000000000000E+000        
  0.424000000000000       0.000000000000000E+000   1.00000000000000             
          8.00000000    1    5    1    1    1    1    1                         
O #2   0.000000000000000   0.000000000000000  -0.829582358657501                
   16    9                                                                      
   61420.0000000000       9.000000000000001E-005 -2.000000000000000E-005        
  0.000000000000000E+000  0.000000000000000E+000  0.000000000000000E+000        
  0.000000000000000E+000  0.000000000000000E+000  0.000000000000000E+000        
  0.000000000000000E+000                                                        
   9199.00000000000       6.980000000000001E-004 -1.590000000000000E-004        
  0.000000000000000E+000  0.000000000000000E+000  0.000000000000000E+000        
  0.000000000000000E+000  0.000000000000000E+000  0.000000000000000E+000        
  0.000000000000000E+000                                                        
   2091.00000000000       3.664000000000000E-003 -8.290000000000000E-004        
  0.000000000000000E+000  0.000000000000000E+000  0.000000000000000E+000        
  0.000000000000000E+000  0.000000000000000E+000  0.000000000000000E+000        
  0.000000000000000E+000                                                        
   590.900000000000       1.521800000000000E-002 -3.508000000000000E-003        
  0.000000000000000E+000  0.000000000000000E+000  0.000000000000000E+000        
  0.000000000000000E+000  0.000000000000000E+000  0.000000000000000E+000        
  0.000000000000000E+000                                                        
   192.300000000000       5.242300000000000E-002 -1.215600000000000E-002        
  0.000000000000000E+000  0.000000000000000E+000  0.000000000000000E+000        
  0.000000000000000E+000  0.000000000000000E+000  0.000000000000000E+000        
  0.000000000000000E+000                                                        
   69.3200000000000       0.145921000000000      -3.626100000000000E-002        
  0.000000000000000E+000  0.000000000000000E+000  0.000000000000000E+000        
  0.000000000000000E+000  0.000000000000000E+000  0.000000000000000E+000        
  0.000000000000000E+000                                                        
   26.9700000000000       0.305258000000000      -8.299200000000000E-002        
  0.000000000000000E+000  0.000000000000000E+000  0.000000000000000E+000        
  0.000000000000000E+000  0.000000000000000E+000  0.000000000000000E+000        
  0.000000000000000E+000                                                        
   11.1000000000000       0.398508000000000      -0.152090000000000             
  0.000000000000000E+000  0.000000000000000E+000  0.000000000000000E+000        
  0.000000000000000E+000  0.000000000000000E+000  0.000000000000000E+000        
  0.000000000000000E+000                                                        
   4.68200000000000       0.216980000000000      -0.115331000000000             
  0.000000000000000E+000  0.000000000000000E+000  0.000000000000000E+000        
  0.000000000000000E+000  0.000000000000000E+000  0.000000000000000E+000        
  0.000000000000000E+000                                                        
   1.42800000000000       1.759400000000000E-002  0.288979000000000             
   1.00000000000000       0.000000000000000E+000  0.000000000000000E+000        
  0.000000000000000E+000  0.000000000000000E+000  0.000000000000000E+000        
  0.000000000000000E+000                                                        
  0.554700000000000      -2.502000000000000E-003  0.586128000000000             
  0.000000000000000E+000   1.00000000000000       0.000000000000000E+000        
  0.000000000000000E+000  0.000000000000000E+000  0.000000000000000E+000        
  0.000000000000000E+000                                                        
  0.206700000000000       9.540000000000000E-004  0.277624000000000             
  0.000000000000000E+000  0.000000000000000E+000   1.00000000000000             
  0.000000000000000E+000  0.000000000000000E+000  0.000000000000000E+000        
  0.000000000000000E+000                                                        
   12.9740000000000       0.000000000000000E+000  0.000000000000000E+000        
  0.000000000000000E+000  0.000000000000000E+000  0.000000000000000E+000        
   1.00000000000000       0.000000000000000E+000  0.000000000000000E+000        
  0.000000000000000E+000                                                        
   34.9000000000000       0.000000000000000E+000  0.000000000000000E+000        
  0.000000000000000E+000  0.000000000000000E+000  0.000000000000000E+000        
  0.000000000000000E+000   1.00000000000000       0.000000000000000E+000        
  0.000000000000000E+000                                                        
   93.8810000000000       0.000000000000000E+000  0.000000000000000E+000        
  0.000000000000000E+000  0.000000000000000E+000  0.000000000000000E+000        
  0.000000000000000E+000  0.000000000000000E+000   1.00000000000000             
  0.000000000000000E+000                                                        
  6.959000000000000E-002  0.000000000000000E+000  0.000000000000000E+000        
  0.000000000000000E+000  0.000000000000000E+000  0.000000000000000E+000        
  0.000000000000000E+000  0.000000000000000E+000  0.000000000000000E+000        
   1.00000000000000                                                             
   10    8                                                                      
   63.4200000000000       6.044000000000000E-003  0.000000000000000E+000        
  0.000000000000000E+000  0.000000000000000E+000  0.000000000000000E+000        
  0.000000000000000E+000  0.000000000000000E+000  0.000000000000000E+000        
   14.6600000000000       4.179900000000000E-002  0.000000000000000E+000        
  0.000000000000000E+000  0.000000000000000E+000  0.000000000000000E+000        
  0.000000000000000E+000  0.000000000000000E+000  0.000000000000000E+000        
   4.45900000000000       0.161143000000000       0.000000000000000E+000        
  0.000000000000000E+000  0.000000000000000E+000  0.000000000000000E+000        
  0.000000000000000E+000  0.000000000000000E+000  0.000000000000000E+000        
   1.53100000000000       0.356731000000000        1.00000000000000             
  0.000000000000000E+000  0.000000000000000E+000  0.000000000000000E+000        
  0.000000000000000E+000  0.000000000000000E+000  0.000000000000000E+000        
  0.530200000000000       0.448309000000000       0.000000000000000E+000        
   1.00000000000000       0.000000000000000E+000  0.000000000000000E+000        
  0.000000000000000E+000  0.000000000000000E+000  0.000000000000000E+000        
  0.175000000000000       0.244940000000000       0.000000000000000E+000        
  0.000000000000000E+000   1.00000000000000       0.000000000000000E+000        
  0.000000000000000E+000  0.000000000000000E+000  0.000000000000000E+000        
   14.4750000000000       0.000000000000000E+000  0.000000000000000E+000        
  0.000000000000000E+000  0.000000000000000E+000   1.00000000000000             
  0.000000000000000E+000  0.000000000000000E+000  0.000000000000000E+000        
   42.7300000000000       0.000000000000000E+000  0.000000000000000E+000        
  0.000000000000000E+000  0.000000000000000E+000  0.000000000000000E+000        
   1.00000000000000       0.000000000000000E+000  0.000000000000000E+000        
   126.140000000000       0.000000000000000E+000  0.000000000000000E+000        
  0.000000000000000E+000  0.000000000000000E+000  0.000000000000000E+000        
  0.000000000000000E+000   1.00000000000000       0.000000000000000E+000        
  5.348000000000000E-002  0.000000000000000E+000  0.000000000000000E+000        
  0.000000000000000E+000  0.000000000000000E+000  0.000000000000000E+000        
  0.000000000000000E+000  0.000000000000000E+000   1.00000000000000             
    6    6                                                                      
   3.77500000000000        1.00000000000000       0.000000000000000E+000        
  0.000000000000000E+000  0.000000000000000E+000  0.000000000000000E+000        
  0.000000000000000E+000                                                        
   1.30000000000000       0.000000000000000E+000   1.00000000000000             
  0.000000000000000E+000  0.000000000000000E+000  0.000000000000000E+000        
  0.000000000000000E+000                                                        
  0.444000000000000       0.000000000000000E+000  0.000000000000000E+000        
   1.00000000000000       0.000000000000000E+000  0.000000000000000E+000        
  0.000000000000000E+000                                                        
   14.9270000000000       0.000000000000000E+000  0.000000000000000E+000        
  0.000000000000000E+000   1.00000000000000       0.000000000000000E+000        
  0.000000000000000E+000                                                        
   57.5440000000000       0.000000000000000E+000  0.000000000000000E+000        
  0.000000000000000E+000  0.000000000000000E+000   1.00000000000000             
  0.000000000000000E+000                                                        
  0.154000000000000       0.000000000000000E+000  0.000000000000000E+000        
  0.000000000000000E+000  0.000000000000000E+000  0.000000000000000E+000        
   1.00000000000000                                                             
    4    4                                                                      
   2.66600000000000        1.00000000000000       0.000000000000000E+000        
  0.000000000000000E+000  0.000000000000000E+000                                
  0.859000000000000       0.000000000000000E+000   1.00000000000000             
  0.000000000000000E+000  0.000000000000000E+000                                
   26.4830000000000       0.000000000000000E+000  0.000000000000000E+000        
   1.00000000000000       0.000000000000000E+000                                
  0.324000000000000       0.000000000000000E+000  0.000000000000000E+000        
  0.000000000000000E+000   1.00000000000000                                     
    2    2                                                                      
   1.84600000000000        1.00000000000000       0.000000000000000E+000        
  0.714000000000000       0.000000000000000E+000   1.00000000000000             
FINISH                                                                          
 
********************************************************************************
 ONE- AND TWO-ELECTRON INTEGRALS OVER SYMMETRY-ADAPTED AOS ARE CALCULATED.

  SPHERICAL HARMONICS ARE USED.
  
  INTEGRALS LESS THAN  0.10E-13 ARE NEGLECTED.

  NUCLEAR REPULSION ENERGY :   24.8018357980 A.U.
  @MOLECU-I, ONE ELECTRON INTEGRALS (CPU/WALL):        0.05/       0.06 SECONDS.
  @TWOEL-I,    4650309 INTEGRALS OF SYMMETRY TYPE  I I I I
  @TWOEL-I,   19908623 INTEGRALS OF SYMMETRY TYPE  I J I J
  @TWOEL-I,   10499508 INTEGRALS OF SYMMETRY TYPE  I I J J
  @TWOEL-I,   14717233 INTEGRALS OF SYMMETRY TYPE  I J K L
  @TWOEL-I, TOTAL NUMBER OF 2-E INTEGRALS   49775673.
  @MOLECU-I, TWO ELECTRON INTEGRALS (CPU/WALL):      197.43/      27.64 SECONDS.
 @CHECKOUT-I, Total execution time (CPU/WALL):      197.50/      27.72 seconds.

Running with 14 threads/proc

--executable xvmol finished with status     0 in       27.74 seconds (walltime).
 --invoking executable--
/nfs/workspaces/public/cfour_mpi/bin/xvmol2ja
 @GETMEM-I,  Allocated    3814 MB of main memory.
 @CHECKOUT-I, Total execution time (CPU/WALL):        0.13/       0.08 seconds.
--executable xvmol2ja finished with status     0 in        0.09 seconds (walltime).
 --invoking executable--
/nfs/workspaces/public/cfour_mpi/bin/xvprop
 @GETMEM-I,  Allocated    3814 MB of main memory.
   Property integrals will be calculated.
    --------------------------------------------------------------
                                   Property evaluated at 
    Property type                X             Y             Z
    --------------------------------------------------------------
    Dipole moment               ----          ----          ----  
    Quadrupole moment           ----          ----          ----  
    Octopole moment             ----          ----          ----  
    Relativisitic corr.         ----          ----          ----  
    Second moment            0.0000000     0.0000000     0.0000000
    Electron density         0.0000000     0.0000000     1.1057583
    Electron density         0.0000000     0.0000000    -0.8295824
    Field gradient           0.0000000     0.0000000     1.1057583
    Field gradient           0.0000000     0.0000000    -0.8295824
    Potential                0.0000000     0.0000000     1.1057583
    Potential                0.0000000     0.0000000    -0.8295824
    --------------------------------------------------------------
 @CHECKOUT-I, Total execution time (CPU/WALL):        1.37/       1.41 seconds.
--executable xvprop finished with status     0 in        1.43 seconds (walltime).
 --invoking executable--
/nfs/workspaces/public/cfour_mpi/bin/xvscf
  There are  218 functions in the AO basis.

  There are 4 irreducible representations.

       Irrep        # of functions
         1                 86
         2                 52
         3                 52
         4                 28


  Parameters for SCF calculation: 
        SCF reference function:  RHF  
  Maximum number of iterations:  150
     Full symmetry point group: CXv 
     Computational point group: C2v 
        Initial density matrix: MOREAD                 
     SCF convergence tolerance: 10**(-10)
  DIIS convergence acceleration:  ON
          Latest start for DIIS:   8
                     DIIS order:   6

  Memory information:    2523578 words required.
  Fock matrices are constructed from AO integral file.
 @GETMEM-I,  Allocated      19 MB of main memory.
  Initialization and symmetry analysis required      0.001 seconds.

  Adding electric field perturbation to one-electron Hamiltonian.
  Field direction     : Z
  Field strength      : -0.0002000 a.u.

  @INITGES-I, Occupancies from core Hamiltonian:

          Alpha population by irrep:   5    1    1    0
           Beta population by irrep:   5    1    1    0


 total no. of electrons in initial guess :  0.000000000000000E+000
  --------------------------------------------------------------------
  Iteration         Total Energy            Largest Density Difference
  --------------------------------------------------------------------
       0            24.801835376106467              0.0000000000D+00
   current occupation vector 
     5  1  1  0
     5  1  1  0
       1           -90.840838322720032              0.1953638983D+02
   current occupation vector 
     5  1  1  0
     5  1  1  0
       2           -93.728236334184146              0.8208128394D+02
   current occupation vector 
     5  1  1  0
     5  1  1  0
       3          -103.247023908692412              0.8206343934D+02
   current occupation vector 
     5  1  1  0
     5  1  1  0
       4          -100.706387932142164              0.1201006605D+02
   current occupation vector 
     5  1  1  0
     5  1  1  0
       5          -105.111065643005603              0.1203218655D+02
   current occupation vector 
     5  1  1  0
     5  1  1  0
       6          -102.426903133621522              0.6593726780D+01
   current occupation vector 
     5  1  1  0
     5  1  1  0
       7          -104.244545857181194              0.6589878046D+01
   current occupation vector 
     5  1  1  0
     5  1  1  0
       8          -101.615102769509733              0.5301483670D+01
   current occupation vector 
     5  1  1  0
     5  1  1  0
       9          -111.481392266160455              0.3593675923D+01
   current occupation vector 
     5  1  1  0
     5  1  1  0
      10          -112.559397634936104              0.8847520395D+00
   current occupation vector 
     5  1  1  0
     5  1  1  0
      11          -112.768597451657698              0.3900103399D+00
   current occupation vector 
     5  1  1  0
     5  1  1  0
      12          -112.771201710650686              0.4761565434D-01
   current occupation vector 
     5  1  1  0
     5  1  1  0
      13          -112.771311495426275              0.1511448641D-01
   current occupation vector 
     5  1  1  0
     5  1  1  0
      14          -112.771321313240080              0.5156100282D-02
   current occupation vector 
     5  1  1  0
     5  1  1  0
      15          -112.771321475452041              0.4293772928D-03
   current occupation vector 
     5  1  1  0
     5  1  1  0
      16          -112.771321478319450              0.5077601476D-04
   current occupation vector 
     5  1  1  0
     5  1  1  0
      17          -112.771321478439020              0.1959457919D-04
   current occupation vector 
     5  1  1  0
     5  1  1  0
      18          -112.771321478444648              0.1660445419D-05
   current occupation vector 
     5  1  1  0
     5  1  1  0
      19          -112.771321478445074              0.6546366229D-06
   current occupation vector 
     5  1  1  0
     5  1  1  0
      20          -112.771321478445500              0.4373784820D-07
   current occupation vector 
     5  1  1  0
     5  1  1  0
      21          -112.771321478445131              0.1926917925D-07
   current occupation vector 
     5  1  1  0
     5  1  1  0
      22          -112.771321478445330              0.8455524725D-08
   current occupation vector 
     5  1  1  0
     5  1  1  0
      23          -112.771321478444932              0.7093081678D-09
   current occupation vector 
     5  1  1  0
     5  1  1  0
      24          -112.771321478446637              0.2225831429D-09
   current occupation vector 
     5  1  1  0
     5  1  1  0
      25          -112.771321478446808              0.2076618877D-09
   current occupation vector 
     5  1  1  0
     5  1  1  0
      26          -112.771321478446467              0.1176041486D-09
   current occupation vector 
     5  1  1  0
     5  1  1  0

  SCF has converged.

 Density matrix saved to file den.dat
 total electron number:   14.0000000000000     
     E(SCF)=      -112.771321478446040              0.4821420693D-10

  Eigenvector printing suppressed.

 @PUTMOS-I, Writing converged MOs to NEWMOS. 
 @PUTMOS-I, Symmetry   1 Full Blocks 21 Partial Blocksize   2
 @PUTMOS-I, Symmetry   2 Full Blocks 13 Partial Blocksize   0
 @PUTMOS-I, Symmetry   3 Full Blocks 13 Partial Blocksize   0
 @PUTMOS-I, Symmetry   4 Full Blocks  7 Partial Blocksize   0
 @PUTFOCK-I, Writing converged Fock matrix to NEWFOCK. 
 @PUTFOCK-I, Symmetry   1 Full Blocks 21 Partial Blocksize   2
 @PUTFOCK-I, Symmetry   2 Full Blocks 13 Partial Blocksize   0
 @PUTFOCK-I, Symmetry   3 Full Blocks 13 Partial Blocksize   0
 @PUTFOCK-I, Symmetry   4 Full Blocks  7 Partial Blocksize   0


 
  ORBITAL EIGENVALUES (ALPHA)  (1H = 27.2113834 eV)

       MO #        E(hartree)               E(eV)           FULLSYM    COMPSYM
       ----   --------------------   --------------------   -------   ---------
    1     1         -20.6587927221        -562.1543293419     SG+        A1 (1)
    2     2         -11.3125076680        -307.8289833688     SG+        A1 (1)
    3     3          -1.5957595697         -43.4228254653     SG+        A1 (1)
    4     4          -0.8138733264         -22.1466191250     SG+        A1 (1)
    5    87          -0.6899516939         -18.7745400694      PI        B1 (2)
    6   139          -0.6899516939         -18.7745400694      PI        B2 (3)
    7     5          -0.5409076659         -14.7188458797     SG+        A1 (1)
  +++++++++++++++++++++++++++++++++++++++++++++++++++++++++++++++++++++++++++++
    8     6           0.0586849006           1.5968973293     SG+        A1 (1)
    9    88           0.0642699566           1.7488744315      PI        B1 (2)
   10   140           0.0642699566           1.7488744315      PI        B2 (3)
   11     7           0.0752762910           2.0483720165     SG+        A1 (1)
   12    89           0.1545788247           4.2063036655      PI        B1 (2)
   13   141           0.1545788247           4.2063036655      PI        B2 (3)
   14     8           0.1565201523           4.2591298731     SG+        A1 (1)
   15    90           0.1825300228           4.9668944336      PI        B1 (2)
   16   142           0.1825300228           4.9668944336      PI        B2 (3)
   17     9           0.2273757065           6.1872075248     SG+        A1 (1)
   18    10           0.2275375974           6.1916128002      DE        A1 (1)
   19   191           0.2275375974           6.1916128002      DE        A2 (4)
   20    11           0.3017983484           8.2123505669     SG+        A1 (1)
   21   143           0.3329514988           9.0600708875      PI        B2 (3)
   22    91           0.3329514988           9.0600708875      PI        B1 (2)
   23    12           0.3951766566          10.7533035125     SG+        A1 (1)
   24   144           0.3999374943          10.8828524935      PI        B2 (3)
   25    92           0.3999374943          10.8828524935      PI        B1 (2)
   26    13           0.5082286868          13.8296056518     SG+        A1 (1)
   27    14           0.5269975105          14.3403313098      DE        A1 (1)
   28   192           0.5269975105          14.3403313098      DE        A2 (4)
   29    93           0.6198364123          16.8666062615      PI        B1 (2)
   30   145           0.6198364123          16.8666062615      PI        B2 (3)
   31    15           0.6613841224          17.9971769289     SG+        A1 (1)
   32    94           0.7499361063          20.4067989153      PH        B1 (2)
   33   146           0.7499361063          20.4067989153      PH        B2 (3)
   34   193           0.7704860591          20.9659915594      DE        A2 (4)
   35    16           0.7704860591          20.9659915594      DE        A1 (1)
   36    17           0.7858407848          21.3838148866     SG+        A1 (1)
   37   147           0.8365916787          22.7648169177      PI        B2 (3)
   38    95           0.8365916787          22.7648169178      PI        B1 (2)
   39   148           0.8740747236          23.7847824243      PI        B2 (3)
   40    96           0.8740747236          23.7847824243      PI        B1 (2)
   41    18           0.8761490488          23.8412276831     SG+        A1 (1)
   42    19           0.8991390272          24.4668167993      DE        A1 (1)
   43   194           0.8991390272          24.4668167994      DE        A2 (4)
   44    20           0.9487568247          25.8169857106     SG+        A1 (1)
   45   149           1.1034307070          30.0258760226      PI        B2 (3)
   46    97           1.1034307070          30.0258760226      PI        B1 (2)
   47    21           1.2908949153          35.1270364683     SG+        A1 (1)
   48   150           1.4548668439          39.5889394845      PH        B2 (3)
   49    98           1.4548668439          39.5889394845      PH        B1 (2)
   50   195           1.5036299859          40.9158520390      DE        A2 (4)
   51    22           1.5036299859          40.9158520391      DE        A1 (1)
   52    23           1.5292241533          41.6123047401     SG+        A1 (1)
   53    99           1.5369159775          41.8216099163      PI        B1 (2)
   54   151           1.5369159775          41.8216099163      PI        B2 (3)
   55    24           1.6570898433          45.0917070548     SG+        A1 (1)
   56    25           1.7527390244          47.6944535941     SG+        A1 (1)
   57   196           1.7764290404          48.3390917014      DE        A2 (4)
   58    26           1.7764290404          48.3390917015      DE        A1 (1)
   59   152           1.8692568221          50.8650640586      PI        B2 (3)
   60   100           1.8692568221          50.8650640586      PI        B1 (2)
   61   153           1.9514712166          53.1022314695      PI        B2 (3)
   62   101           1.9514712166          53.1022314695      PI        B1 (2)
   63   197           2.1118496745          57.4663511751      PI        A2 (4)
   64    27           2.1118496745          57.4663511751      PI        A1 (1)
   65    28           2.1976801975          59.8019184455     SG+        A1 (1)
   66   198           2.2195946058          60.3982398111      DE        A2 (4)
   67    29           2.2195946058          60.3982398111      DE        A1 (1)
   68   102           2.2596021250          61.4868997546      PH        B1 (2)
   69   154           2.2596021250          61.4868997546      PH        B2 (3)
   70    30           2.3302403787          63.4090643597     SG+        A1 (1)
   71   155           2.3444764474          63.7964474819      PI        B2 (3)
   72   103           2.3444764474          63.7964474819      PI        B1 (2)
   73    31           2.3795819406          64.7517165168      DE        A1 (1)
   74   199           2.3795819406          64.7517165168      DE        A2 (4)
   75   156           2.4028184418          65.3840138613      PH        B2 (3)
   76   104           2.4028184418          65.3840138613      PH        B1 (2)
   77    32           2.5364147396          69.0193539417     SG+        A1 (1)
   78   157           2.6101185016          71.0249352658      PI        B2 (3)
   79   105           2.6101185016          71.0249352658      PI        B1 (2)
   80   158           2.9450087873          80.1377632281      PI        B2 (3)
   81   106           2.9450087873          80.1377632282      PI        B1 (2)
   82    33           3.0818727044          83.8620197508     SG+        A1 (1)
   83   200           3.0937151626          84.1842694186      DE        A2 (4)
   84    34           3.0937151626          84.1842694189      DE        A1 (1)
   85    35           3.4206048103          93.0793889518     SG+        A1 (1)
   86    36           3.7481394160         101.9920586858      PI        A1 (1)
   87   201           3.7481394160         101.9920586858      PI        A2 (4)
   88   159           3.7614700196         102.3548028509      PI        B2 (3)
   89   107           3.7614700196         102.3548028510      PI        B1 (2)
   90    37           3.9813187470         108.3371908616     SG+        A1 (1)
   91   160           4.0715441477         110.7923488339      PH        B2 (3)
   92   108           4.0715441477         110.7923488339      PH        B1 (2)
   93   202           4.1777451876         113.6822260486      DE        A2 (4)
   94    38           4.1777451876         113.6822260486      DE        A1 (1)
   95   161           4.2103961789         114.5707046888      PI        B2 (3)
   96   109           4.2103961789         114.5707046888      PI        B1 (2)
   97    39           4.3094246342         117.2654059537     SG+        A1 (1)
   98   110           4.4063173745         119.9019914594      PH        B1 (2)
   99   162           4.4063173745         119.9019914594      PH        B2 (3)
  100   203           4.4279969920         120.4919238427      DE        A2 (4)
  101    40           4.4279969920         120.4919238428      DE        A1 (1)
  102    41           4.6728246313         127.1540226019     SG+        A1 (1)
  103   163           4.8130856110         130.9707178968      PI        B2 (3)
  104   111           4.8130856110         130.9707178969      PI        B1 (2)
  105    42           4.9863422309         135.6852702081     SG+        A1 (1)
  106   204           5.1940462992         141.3371852440      DE        A2 (4)
  107    43           5.1940462992         141.3371852444      DE        A1 (1)
  108   164           5.2700899757         143.4064388808      PI        B2 (3)
  109   112           5.2700899757         143.4064388808      PI        B1 (2)
  110   205           5.9168823416         161.0065539291      PI        A2 (4)
  111    44           5.9168823416         161.0065539291      PI        A1 (1)
  112   113           5.9318743750         161.4145078994      PI        B1 (2)
  113   165           5.9318743750         161.4145078995      PI        B2 (3)
  114    45           6.1682792287         167.8474110109     SG+        A1 (1)
  115    46           6.2287009734         169.4915702725     SG+        A1 (1)
  116   114           6.2465925829         169.9784257170      PH        B1 (2)
  117   166           6.2465925829         169.9784257170      PH        B2 (3)
  118    47           6.3287603508         172.2143243516      DE        A1 (1)
  119   206           6.3287603508         172.2143243517      DE        A2 (4)
  120   167           6.3645519089         173.1882621635      PI        B2 (3)
  121   115           6.3645519089         173.1882621636      PI        B1 (2)
  122   168           6.4739599089         176.1654051983      PH        B2 (3)
  123   116           6.4739599089         176.1654051983      PH        B1 (2)
  124    48           6.6733572520         181.5912827483      DE        A1 (1)
  125   207           6.6733572520         181.5912827483      DE        A2 (4)
  126    49           7.1354958075         194.1667121673     SG+        A1 (1)
  127   169           7.7632125173         211.2477522235      PI        B2 (3)
  128   117           7.7632125173         211.2477522235      PI        B1 (2)
  129   208           7.7874196187         211.9064609420      DE        A2 (4)
  130    50           7.7874196187         211.9064609421      DE        A1 (1)
  131    51           8.1495804982         221.7613594855     SG+        A1 (1)
  132    52           8.6494610895         235.3638019095     SG+        A1 (1)
  133   170           8.7993827609         239.4433779890      PI        B2 (3)
  134   118           8.7993827609         239.4433779891      PI        B1 (2)
  135    53          10.0359685319         273.0925875127     SG+        A1 (1)
  136   119          10.1347868561         275.7815708179      PI        B1 (2)
  137   171          10.1347868561         275.7815708180      PI        B2 (3)
  138    54          10.6013075948         288.4762455042      PI        A1 (1)
  139   209          10.6013075948         288.4762455042      PI        A2 (4)
  140   172          10.9718288787         298.5586422181      PH        B2 (3)
  141   120          10.9718288787         298.5586422181      PH        B1 (2)
  142   210          11.2570459341         306.3197928642      DE        A2 (4)
  143    55          11.2570459341         306.3197928643      DE        A1 (1)
  144    56          11.2969125155         307.4046176944     SG+        A1 (1)
  145   173          11.4215035811         310.7949129508      PI        B2 (3)
  146   121          11.4215035811         310.7949129508      PI        B1 (2)
  147   122          11.8610868121         322.7565807847      PH        B1 (2)
  148   174          11.8610868121         322.7565807847      PH        B2 (3)
  149    57          12.3110273547         335.0000853960     SG+        A1 (1)
  150    58          12.3994564306         337.4063628845      DE        A1 (1)
  151   211          12.3994564306         337.4063628846      DE        A2 (4)
  152   123          12.9287528220         351.8092499223      PI        B1 (2)
  153   175          12.9287528220         351.8092499223      PI        B2 (3)
  154   212          12.9940646068         353.5864739406      DE        A2 (4)
  155    59          12.9940646068         353.5864739406      DE        A1 (1)
  156    60          13.8182636016         376.0140687845     SG+        A1 (1)
  157   176          14.7825985870         402.2549577988      PI        B2 (3)
  158   124          14.7825985870         402.2549577989      PI        B1 (2)
  159    61          15.7974277139         429.8698622554     SG+        A1 (1)
  160    62          18.4184871147         501.1925145263     SG+        A1 (1)
  161   125          19.5920132104         533.1257830465      PI        B1 (2)
  162   177          19.5920132104         533.1257830472      PI        B2 (3)
  163    63          21.1603018260         575.8010858474     SG+        A1 (1)
  164    64          26.6629529041         725.5358340489      DE        A1 (1)
  165   213          26.6629529041         725.5358340491      DE        A2 (4)
  166   178          27.4046060099         745.7172410626      PI        B2 (3)
  167   126          27.4046060099         745.7172410626      PI        B1 (2)
  168    65          28.6775040464         780.3545575613     SG+        A1 (1)
  169   127          33.8805967242         921.9379072820      PI        B1 (2)
  170   179          33.8805967242         921.9379072823      PI        B2 (3)
  171    66          35.5321767876         966.8796856049     SG+        A1 (1)
  172    67          37.3221970930        1015.5886144273     SG+        A1 (1)
  173   214          47.1672613330        1283.4864320591      DE        A2 (4)
  174    68          47.1672613330        1283.4864320591      DE        A1 (1)
  175   180          48.0231153396        1306.7754035678      PI        B2 (3)
  176   128          48.0231153396        1306.7754035679      PI        B1 (2)
  177    69          48.7531320259        1326.6401675080     SG+        A1 (1)
  178    70          64.5620843807        1756.8236311877     SG+        A1 (1)
  179   129          67.0223196404        1823.7700360916      PI        B1 (2)
  180   181          67.0223196404        1823.7700360922      PI        B2 (3)
  181    71          68.1857458189        1855.4284718934     SG+        A1 (1)
  182   130          98.7310704546        2686.6090116324      PH        B1 (2)
  183   182          98.7310704546        2686.6090116325      PH        B2 (3)
  184   215          98.7672374276        2687.5931650022      DE        A2 (4)
  185    72          98.7672374276        2687.5931650022      DE        A1 (1)
  186   183          98.8413591232        2689.6101188794      PI        B2 (3)
  187   131          98.8413591232        2689.6101188794      PI        B1 (2)
  188    73          98.8670097471        2690.3081078410     SG+        A1 (1)
  189   132         103.2922323163        2810.7245358007      PH        B1 (2)
  190   184         103.2922323163        2810.7245358008      PH        B2 (3)
  191   216         103.3563169642        2812.4683677235      DE        A2 (4)
  192    74         103.3563169642        2812.4683677243      DE        A1 (1)
  193   133         103.4022415538        2813.7180393385      PI        B1 (2)
  194   185         103.4022415538        2813.7180393385      PI        B2 (3)
  195    75         103.4917293238        2816.1531253597     SG+        A1 (1)
  196   217         115.2842410032        3137.0436819170      DE        A2 (4)
  197    76         115.2842410032        3137.0436819171      DE        A1 (1)
  198   186         115.6444462867        3146.8453659880      PI        B2 (3)
  199   134         115.6444462867        3146.8453659880      PI        B1 (2)
  200    77         116.1972519039        3161.8879715841     SG+        A1 (1)
  201   135         117.1178721940        3186.9393232622      PI        B1 (2)
  202   187         117.1178721940        3186.9393232624      PI        B2 (3)
  203    78         118.6999446687        3229.9897039393     SG+        A1 (1)
  204    79         123.2102258042        3352.7206931592     SG+        A1 (1)
  205   218         198.6119131805        5404.5049173610      DE        A2 (4)
  206    80         198.6119131805        5404.5049173611      DE        A1 (1)
  207   188         199.0818333957        5417.2920965052      PI        B2 (3)
  208   136         199.0818333957        5417.2920965052      PI        B1 (2)
  209    81         199.4739417208        5427.9619064749     SG+        A1 (1)
  210    82         217.0025812609        5904.9404374811     SG+        A1 (1)
  211   137         225.4204490330        6134.0022648371      PI        B1 (2)
  212   189         225.4204490330        6134.0022648375      PI        B2 (3)
  213    83         226.3615822500        6159.6118016341     SG+        A1 (1)
  214   138         395.5630206248       10763.8170130846      PI        B1 (2)
  215   190         395.5630206249       10763.8170130850      PI        B2 (3)
  216    84         396.7422295659       10795.9049196894     SG+        A1 (1)
  217    85         509.6597098780       13868.5457690222     SG+        A1 (1)
  218    86         895.8485069020       24377.2771896269     SG+        A1 (1)


  VSCF finished.

 @CHECKOUT-I, Total execution time (CPU/WALL):       49.85/      10.48 seconds.
--executable xvscf finished with status     0 in       10.50 seconds (walltime).
 --invoking executable--
/nfs/workspaces/public/cfour_mpi/bin/xvtran
 @GETMEM-I,  Allocated    3814 MB of main memory.
  Full RHF integral transformation
  Transformation of IIII integrals :
  1 pass through the AO integral file was required.
     4650309 AO integrals were read.
     8856948 MO integrals were written to HF2.
  Transformation of IIJJ integrals :
  1 pass through the AO integral file was required.
    10499508 AO integrals were read.
    14673694 MO integrals were written to HF2.
  Transformation of IJIJ integrals :
  1 pass through the AO integral file was required.
    19908623 AO integrals were read.
    27665755 MO integrals were written to HF2.
  Transformation of IJKL integrals :
  1 pass through the AO integral file was required.
    14717233 AO integrals were read.
    18695037 MO integrals were written to HF2.
  Summary of active molecular orbitals: 
------------------------------------------------------------------------
 
  Index      Eigenvalue    Symmetry    Index      Eigenvalue    Symmetry
------------------------------------------------------------------------
     1       -20.6587927        1       110         4.2103962        2
     2       -11.3125077        1       111         4.4063174        2
     3        -1.5957596        1       112         4.8130856        2
     4        -0.8138733        1       113         5.2700900        2
     5        -0.5409077        1       114         5.9318744        2
     6        -0.6899517        2       115         6.2465926        2
     7        -0.6899517        3       116         6.3645519        2
     8         0.0586849        1       117         6.4739599        2
     9         0.0752763        1       118         7.7632125        2
    10         0.1565202        1       119         8.7993828        2
    11         0.2273757        1       120        10.1347869        2
    12         0.2275376        1       121        10.9718289        2
    13         0.3017983        1       122        11.4215036        2
    14         0.3951767        1       123        11.8610868        2
    15         0.5082287        1       124        12.9287528        2
    16         0.5269975        1       125        14.7825986        2
    17         0.6613841        1       126        19.5920132        2
    18         0.7704861        1       127        27.4046060        2
    19         0.7858408        1       128        33.8805967        2
    20         0.8761490        1       129        48.0231153        2
    21         0.8991390        1       130        67.0223196        2
    22         0.9487568        1       131        98.7310705        2
    23         1.2908949        1       132        98.8413591        2
    24         1.5036300        1       133       103.2922323        2
    25         1.5292242        1       134       103.4022416        2
    26         1.6570898        1       135       115.6444463        2
    27         1.7527390        1       136       117.1178722        2
    28         1.7764290        1       137       199.0818334        2
    29         2.1118497        1       138       225.4204490        2
    30         2.1976802        1       139       395.5630206        2
    31         2.2195946        1       140         0.0642700        3
    32         2.3302404        1       141         0.1545788        3
    33         2.3795819        1       142         0.1825300        3
    34         2.5364147        1       143         0.3329515        3
    35         3.0818727        1       144         0.3999375        3
    36         3.0937152        1       145         0.6198364        3
    37         3.4206048        1       146         0.7499361        3
    38         3.7481394        1       147         0.8365917        3
    39         3.9813187        1       148         0.8740747        3
    40         4.1777452        1       149         1.1034307        3
    41         4.3094246        1       150         1.4548668        3
    42         4.4279970        1       151         1.5369160        3
    43         4.6728246        1       152         1.8692568        3
    44         4.9863422        1       153         1.9514712        3
    45         5.1940463        1       154         2.2596021        3
    46         5.9168823        1       155         2.3444764        3
    47         6.1682792        1       156         2.4028184        3
    48         6.2287010        1       157         2.6101185        3
    49         6.3287604        1       158         2.9450088        3
    50         6.6733573        1       159         3.7614700        3
    51         7.1354958        1       160         4.0715441        3
    52         7.7874196        1       161         4.2103962        3
    53         8.1495805        1       162         4.4063174        3
    54         8.6494611        1       163         4.8130856        3
    55        10.0359685        1       164         5.2700900        3
    56        10.6013076        1       165         5.9318744        3
    57        11.2570459        1       166         6.2465926        3
    58        11.2969125        1       167         6.3645519        3
    59        12.3110274        1       168         6.4739599        3
    60        12.3994564        1       169         7.7632125        3
    61        12.9940646        1       170         8.7993828        3
    62        13.8182636        1       171        10.1347869        3
    63        15.7974277        1       172        10.9718289        3
    64        18.4184871        1       173        11.4215036        3
    65        21.1603018        1       174        11.8610868        3
    66        26.6629529        1       175        12.9287528        3
    67        28.6775040        1       176        14.7825986        3
    68        35.5321768        1       177        19.5920132        3
    69        37.3221971        1       178        27.4046060        3
    70        47.1672613        1       179        33.8805967        3
    71        48.7531320        1       180        48.0231153        3
    72        64.5620844        1       181        67.0223196        3
    73        68.1857458        1       182        98.7310705        3
    74        98.7672374        1       183        98.8413591        3
    75        98.8670097        1       184       103.2922323        3
    76       103.3563170        1       185       103.4022416        3
    77       103.4917293        1       186       115.6444463        3
    78       115.2842410        1       187       117.1178722        3
    79       116.1972519        1       188       199.0818334        3
    80       118.6999447        1       189       225.4204490        3
    81       123.2102258        1       190       395.5630206        3
    82       198.6119132        1       191         0.2275376        4
    83       199.4739417        1       192         0.5269975        4
    84       217.0025813        1       193         0.7704861        4
    85       226.3615822        1       194         0.8991390        4
    86       396.7422296        1       195         1.5036300        4
    87       509.6597099        1       196         1.7764290        4
    88       895.8485069        1       197         2.1118497        4
    89         0.0642700        2       198         2.2195946        4
    90         0.1545788        2       199         2.3795819        4
    91         0.1825300        2       200         3.0937152        4
    92         0.3329515        2       201         3.7481394        4
    93         0.3999375        2       202         4.1777452        4
    94         0.6198364        2       203         4.4279970        4
    95         0.7499361        2       204         5.1940463        4
    96         0.8365917        2       205         5.9168823        4
    97         0.8740747        2       206         6.3287604        4
    98         1.1034307        2       207         6.6733573        4
    99         1.4548668        2       208         7.7874196        4
   100         1.5369160        2       209        10.6013076        4
   101         1.8692568        2       210        11.2570459        4
   102         1.9514712        2       211        12.3994564        4
   103         2.2596021        2       212        12.9940646        4
   104         2.3444764        2       213        26.6629529        4
   105         2.4028184        2       214        47.1672613        4
   106         2.6101185        2       215        98.7672374        4
   107         2.9450088        2       216       103.3563170        4
   108         3.7614700        2       217       115.2842410        4
   109         4.0715441        2       218       198.6119132        4
------------------------------------------------------------------------
  -20.6587927220891       -11.3125076679800       -1.59575956969959     
 -0.813873326448553      -0.540907665859962      -0.689951693872201     
 -0.689951693872198       5.868490057355846E-002  7.527629104397665E-002
  0.156520152264149       0.227375706475642       0.227537597379184     
  0.301798348365357       0.395176656565443       0.508228686814183     
  0.526997510525865       0.661384122385617       0.770486059131598     
  0.785840784802058       0.876149048824960       0.899139027210389     
  0.948756824711177        1.29089491526257        1.50362998593678     
   1.52922415330521        1.65708984331765        1.75273902443761     
   1.77642904040968        2.11184967446907        2.19768019752685     
   2.21959460580297        2.33024037872562        2.37958194057748     
   2.53641473963893        3.08187270444970        3.09371516256321     
   3.42060481025598        3.74813941601224        3.98131874697581     
   4.17774518764848        4.30942463416689        4.42799699197840     
   4.67282463125036        4.98634223087988        5.19404629918129     
   5.91688234156925        6.16827922871970        6.22870097344887     
   6.32876035077380        6.67335725196162        7.13549580751276     
   7.78741961873554        8.14958049819473        8.64946108948855     
   10.0359685319307        10.6013075948291        11.2570459341022     
   11.2969125154595        12.3110273546764        12.3994564305940     
   12.9940646068214        13.8182636015657        15.7974277138507     
   18.4184871147071        21.1603018260135        26.6629529040749     
   28.6775040463880        35.5321767876362        37.3221970929742     
[...]
 Convergence information after     8 iterations: 
 Largest element of residual vector : -0.19986564E-04.
 Largest element of DIIS residual   :  0.14807692E-04.
 Convergence information after     9 iterations: 
 Largest element of residual vector :  0.69189510E-05.
 Largest element of DIIS residual   :  0.35508391E-05.
 Convergence information after    10 iterations: 
 Largest element of residual vector :  0.28811528E-05.
 Largest element of DIIS residual   :  0.17840106E-05.
 Convergence information after    11 iterations: 
 Largest element of residual vector :  0.89811361E-06.
 Largest element of DIIS residual   :  0.45908654E-06.
 Convergence information after    12 iterations: 
 Largest element of residual vector :  0.38017603E-06.
 Largest element of DIIS residual   :  0.24002179E-06.
 Convergence information after    13 iterations: 
 Largest element of residual vector :  0.15578167E-06.
 Largest element of DIIS residual   :  0.13968096E-06.
 Convergence information after    14 iterations: 
 Largest element of residual vector :  0.99673188E-07.
 Largest element of DIIS residual   :  0.69688879E-07.
 Perturbed amplitude equations converged in    14 iterations.
  Dominant contributions to perturbed wavefunction:
    7    7  142   37   0.2587900722 ABAB
    7    7   37  142   0.2587900722 ABAB
    7    7  142   27   0.2187180968 ABAB
    7    7   27  142   0.2187180968 ABAB
    7    7  142   63   0.2047126501 ABAB
    7    7   63  142   0.2047126501 ABAB
    7    7  142   55   0.1888216933 ABAB
    7    7   55  142   0.1888216933 ABAB
    7    7  142   47   0.1793696516 ABAB
    7    7   47  142   0.1793696516 ABAB
    7    6   37   91   0.1759718234 ABAB
    6    7   91   37   0.1759718234 ABAB
    7    7  142   51  -0.1493364951 ABAB
    7    7   51  142  -0.1493364951 ABAB
    7    6   27   91   0.1481244271 ABAB
    6    7   91   27   0.1481244271 ABAB
    7    7  143   37   0.1460185168 ABAB
    7    7   37  143   0.1460185168 ABAB
    7    7  142   43   0.1408183405 ABAB
    7    7   43  142   0.1408183405 ABAB
  norm of converged amps    2.74567096022693     
 Starting iterative solution of the perturbed Lambda equations.
 The DIIS procedure is used to accelerate convergence.
 Convergence criterion is 10**(-7).
 Maximum number of iterations is 100.
 Convergence information after     1 iterations: 
 Largest element of residual vector : -0.63759232E-01.
 Largest element of DIIS residual   : -0.63759232E-01.
 Convergence information after     2 iterations: 
 Largest element of residual vector :  0.62139198E-02.
 Largest element of DIIS residual   :  0.58191478E-02.
 Convergence information after     3 iterations: 
 Largest element of residual vector : -0.38073534E-02.
 Largest element of DIIS residual   : -0.34040696E-02.
 Convergence information after     4 iterations: 
 Largest element of residual vector : -0.23871555E-02.
 Largest element of DIIS residual   : -0.18160417E-02.
 Convergence information after     5 iterations: 
 Largest element of residual vector : -0.12984138E-02.
 Largest element of DIIS residual   : -0.58709126E-03.
 Convergence information after     6 iterations: 
 Largest element of residual vector : -0.40644459E-03.
 Largest element of DIIS residual   : -0.96718087E-04.
 Convergence information after     7 iterations: 
 Largest element of residual vector : -0.68270106E-04.
 Largest element of DIIS residual   : -0.31282406E-04.
 Convergence information after     8 iterations: 
 Largest element of residual vector : -0.15736368E-04.
 Largest element of DIIS residual   :  0.12571553E-04.
 Convergence information after     9 iterations: 
 Largest element of residual vector :  0.59787850E-05.
 Largest element of DIIS residual   :  0.30735760E-05.
 Convergence information after    10 iterations: 
 Largest element of residual vector :  0.24492121E-05.
 Largest element of DIIS residual   :  0.15407277E-05.
 Convergence information after    11 iterations: 
 Largest element of residual vector :  0.78452325E-06.
 Largest element of DIIS residual   :  0.43470940E-06.
 Convergence information after    12 iterations: 
 Largest element of residual vector :  0.34503522E-06.
 Largest element of DIIS residual   :  0.22480559E-06.
 Convergence information after    13 iterations: 
 Largest element of residual vector :  0.14603342E-06.
 Largest element of DIIS residual   :  0.12922759E-06.
 Convergence information after    14 iterations: 
 Largest element of residual vector :  0.92311940E-07.
 Largest element of DIIS residual   :  0.64228567E-07.
 Perturbed Lambda equations converged in    14 iterations.
  Dominant contributions to perturbed wavefunction:
    7    7  142   37   0.2482817743 ABAB
    7    7   37  142   0.2482817743 ABAB
    7    7  142   27   0.2090709087 ABAB
    7    7   27  142   0.2090709087 ABAB
    7    7  142   63   0.1960893787 ABAB
    7    7   63  142   0.1960893787 ABAB
    7    7  142   55   0.1797101486 ABAB
    7    7   55  142   0.1797101486 ABAB
    7    7  142   47   0.1717547807 ABAB
    7    7   47  142   0.1717547807 ABAB
    7    6   37   91   0.1670355943 ABAB
    6    7   91   37   0.1670355943 ABAB
    7    7  142   51  -0.1433927746 ABAB
    7    7   51  142  -0.1433927746 ABAB
    7    7  143   37   0.1407889155 ABAB
    7    7   37  143   0.1407889155 ABAB
    7    6   27   91   0.1398931077 ABAB
    6    7   91   27   0.1398931077 ABAB
    7    7  142   43   0.1333959945 ABAB
    7    7   43  142   0.1333959945 ABAB
        The DBOC first-order density matrix is being calculated 
             (Symmetry block 3, perturbation   2)
 term   8.95975011247386     
 final tnorm  0.899727800806951     
  norm contr. I: |<0|L dT/dx|0>|^2   0.000000000000000E+000
  norm contr. II: <0|[nabla(1+L)e-T][nabla e^T]|0>   8.95975011247386     
  total norm contribution   8.95975011247386     
 oo  1.345671371907036E-002
 vv  -67.3035379440322     
 vo  2.368011728759150E-002
  Correlated perturbed 1-el contribution to DBOC  -67.2664011130255       cm**-1
  SUM_I |dc_I/dx|^2 contribution to DBOC   33.7308573284589       cm**-1
 
 
  The total diagonal Born-Oppenheimer correction (DBOC) is:      0.0041519305 a.u.
  The total diagonal Born-Oppenheimer correction (DBOC) is:        911.243420 cm-1
 
 Total CC energy including DBOC  -113.253523434580     
 First-order density matrix is being calculated  (Symmetry block 3, perturbation   2)
 Calculation of the contributions of <pq||rs> to dI(i,j)/dx required   2.1 seconds.
 Calculation of the contributions of <pq||rs> to dI(a,b)/dx required  15.7 seconds.
 Calculation of the contributions of <pq||rs> to dI(i,a)/dx required   9.5 seconds.
 First-order Z-vector equations are solved for 1 perturbation.
 Convergence reached after  17 iterations.
        U*G(pq,rs) contribution is being calculated
             (Symmetry block 3, perturbation   2)

 CCSD contribution to force constants 

        0.0000000000        0.0000000000        0.0000000000
        0.0000000000        0.0000000000        0.0000000000
        0.0000000000        0.0000000000        0.0000000000
        0.0000000000        0.0000000000        0.0000000000
        0.0000000000        0.0000000000        0.0000000000
        0.0000000000        0.0000000000        0.0000000000
        0.0000000000        0.0000000000        0.0000000000
        0.0000000000        0.0000000000        0.0000000000
        0.0000000000        0.0000000000        0.0000000000
        0.0000000000        0.0000000000        0.0000000000
        0.0000000000        0.0000000000        0.0000000000
        0.0000000000       -8.7257044315        8.7257044315

 CCSD contribution to dipole derivatives 

        0.0000000000        0.0000000000        0.0000000000
        0.0000000000        0.0000000000        0.0000000000
        0.0000000000        0.0000000000        0.0000000000
        0.0000000000        0.0000000000       -0.0398899937
        0.0000000000        0.0000000000        0.0000000000
        0.0000000000        0.0000000000        0.0000000000
 @CHECKOUT-I, Total execution time (CPU/WALL):     1019.39/     220.42 seconds.
--executable xsdcc finished with status     0 in      220.45 seconds (walltime).
 --invoking executable--
/nfs/workspaces/public/cfour_mpi/bin/xanti
 @GETMEM-I,  Allocated    3814 MB of main memory.
 CCSD MO derivative gammas will be sorted to Mulliken order.
 @CHECKOUT-I, Total execution time (CPU/WALL):        9.46/      14.25 seconds.
--executable xanti finished with status     0 in       14.26 seconds (walltime).
 --invoking executable--
/nfs/workspaces/public/cfour_mpi/bin/xbcktrn
 @GETMEM-I,  Allocated    3814 MB of main memory.
 CCSD MO derivative gammas will be transformed to the AO basis.
 @CHECKOUT-I, Total execution time (CPU/WALL):       25.49/       4.83 seconds.
--executable xbcktrn finished with status     0 in        4.84 seconds (walltime).
 --invoking executable--
/nfs/workspaces/public/cfour_mpi/bin/xvdint
 @GETMEM-I,  Allocated    3814 MB of main memory.
 One- and two-electron integral derivatives are calculated
 for RHF-CC/MBPT hessians and dipole derivatives.
 Spherical gaussians are used.
  magnet F F
                    8722  records have been written to the Sort file.
  Total length of Sort file :             178609116  words.
 Evaluation of 2el integral derivatives

                      Two-electron integral gradient
                      ------------------------------

                         C #1 z     0.0000000000
                         O #2 z     0.0000000000


 C #1       0.0000000000           -1.2103526934            0.0000000000
 O #2       0.0000000000            1.2103526934            0.0000000000


 Evaluation of 2e integral derivatives required  350.17 seconds.
  contribution to Hessian
        0.0000000000        0.0000000000        0.0000000000
        0.0000000000       -1.2103526934        1.2103526934
 @CHECKOUT-I, Total execution time (CPU/WALL):      350.17/      71.82 seconds.
--executable xvdint finished with status     0 in       71.84 seconds (walltime).
 --invoking executable--
/nfs/workspaces/public/cfour_mpi/bin/xanti
 @GETMEM-I,  Allocated    3814 MB of main memory.
 CCSD MO gammas will be sorted to Mulliken order.
 @CHECKOUT-I, Total execution time (CPU/WALL):       10.97/       9.56 seconds.
--executable xanti finished with status     0 in        9.58 seconds (walltime).
 --invoking executable--
/nfs/workspaces/public/cfour_mpi/bin/xbcktrn
 @GETMEM-I,  Allocated    3814 MB of main memory.
 CCSD MO gammas will be transformed to the AO basis.
 @CHECKOUT-I, Total execution time (CPU/WALL):       27.67/       4.84 seconds.
--executable xbcktrn finished with status     0 in        4.86 seconds (walltime).
 --invoking executable--
/nfs/workspaces/public/cfour_mpi/bin/xvdint
 @GETMEM-I,  Allocated    3814 MB of main memory.
 One- and two-electron integral derivatives are calculated
 for RHF-CC/MBPT hessians and dipole derivatives.
 Spherical gaussians are used.
  magnet F F

                     Kinetic energy integral gradient
                     --------------------------------

                         C #1 z    -1.8200214596
                         O #2 z     1.8200214596


 C #1       0.0000000000            0.0000000000           -1.8200214596
 O #2       0.0000000000            0.0000000000            1.8200214596



                   Nuclear attraction integral gradient
                   ------------------------------------

                         C #1 z    26.4320348473
                         O #2 z   -26.4320348473


 C #1       0.0000000000            0.0000000000           26.4320348473
 O #2       0.0000000000            0.0000000000          -26.4320348473



                      Reorthonormalization gradient
                      -----------------------------

                         C #1 z     0.0000000000
                         O #2 z     0.0000000000


 C #1       0.0000000000            0.0000000000            0.0000000000
 O #2       0.0000000000            0.0000000000            0.0000000000



                     Kinetic energy integral Hessian
                     -------------------------------


           Symmetry 1

           C #1 z      O #2 z

 C #1 z    0.882983
 O #2 z   -0.882983    0.882983


           Symmetry 2

           C #1 x      O #2 x

 C #1 x   -2.912401
 O #2 x    2.912401   -2.912401


           Symmetry 3

           C #1 y      O #2 y

 C #1 y   -2.912401
 O #2 y    2.912401   -2.912401




           C #1 x      C #1 y      C #1 z      O #2 x      O #2 y      O #2 z

 C #1 x   -2.912401
 C #1 y    0.000000   -2.912401
 C #1 z    0.000000    0.000000    0.882983

 O #2 x    2.912401    0.000000    0.000000   -2.912401
 O #2 y    0.000000    2.912401    0.000000    0.000000   -2.912401
 O #2 z    0.000000    0.000000   -0.882983    0.000000    0.000000    0.882983




                   Nuclear attraction integral Hessian
                   -----------------------------------


           Symmetry 1

           C #1 z      O #2 z

 C #1 z  -13.186094
 O #2 z   13.186094  -13.186094


           Symmetry 2

           C #1 x      O #2 x

 C #1 x   27.595319
 O #2 x  -27.595319   27.595319


           Symmetry 3

           C #1 y      O #2 y

 C #1 y   27.595319
 O #2 y  -27.595319   27.595319




           C #1 x      C #1 y      C #1 z      O #2 x      O #2 y      O #2 z

 C #1 x   27.595319
 C #1 y    0.000000   27.595319
 C #1 z    0.000000    0.000000  -13.186094

 O #2 x  -27.595319    0.000000    0.000000   27.595319
 O #2 y    0.000000  -27.595319    0.000000    0.000000   27.595319
 O #2 z    0.000000    0.000000   13.186094    0.000000    0.000000  -13.186094




                Highest order reorthonormalization Hessian
                ------------------------------------------


           Symmetry 1

           C #1 z      O #2 z

 C #1 z    0.000000
 O #2 z    0.000000    0.000000


           Symmetry 2

           C #1 x      O #2 x

 C #1 x    0.000000
 O #2 x    0.000000    0.000000


           Symmetry 3

           C #1 y      O #2 y

 C #1 y    0.000000
 O #2 y    0.000000    0.000000




           C #1 x      C #1 y      C #1 z      O #2 x      O #2 y      O #2 z




                Electronic contributions to dipole moment
                -----------------------------------------

                               au             Debye

                    z     -0.18292663     -0.46495319

  Conversion factor used: 1 a.u. =   2.54174691 Debye 



   Electronic contributions to static part of dipole moment derivatives
   --------------------------------------------------------------------


                     Total dipole moment derivatives
                     -------------------------------


           Symmetry 1
                              Ez

               C #1 z    -5.79387331
               O #2 z    -8.20612669

           Symmetry 2
                              Ex

               C #1 x    -5.86365635
               O #2 x    -8.13634365

           Symmetry 3
                              Ey

               C #1 y    -5.86365635
               O #2 y    -8.13634365



                       Ex          Ey          Ez

      C #1    x   -5.863656    0.000000    0.000000
      C #1    y    0.000000   -5.863656    0.000000
      C #1    z    0.000000    0.000000   -5.793873

      O #2    x   -8.136344    0.000000    0.000000
      O #2    y    0.000000   -8.136344    0.000000
      O #2    z    0.000000    0.000000   -8.206127

 Evaluation of 1e integral derivatives required    1.68 seconds.
                    8815  records have been written to the Sort file.
  Total length of Sort file :             180513570  words.
 Evaluation of 2el integral derivatives

                      Two-electron integral gradient
                      ------------------------------

                         C #1 z   -11.7904631661
                         O #2 z    11.7904631661


 C #1       0.0000000000            0.0000000000          -11.7904631661
 O #2       0.0000000000            0.0000000000           11.7904631661


 Evaluation of 2e integral derivatives required  684.30 seconds.

                            Molecular gradient
                            ------------------

                         C #1 z     0.0063198268
                         O #2 z    -0.0063198268


 C #1       0.0000000000            0.0000000000            0.0063198268
 O #2       0.0000000000            0.0000000000           -0.0063198268


  Molecular gradient norm 0.894E-02

                            Molecular hessian
                            -----------------


           Symmetry 1

           C #1 z      O #2 z

 C #1 z   86.928623
 O #2 z  -86.928623   86.928623


           Symmetry 2

           C #1 x      O #2 x

 C #1 x    9.553967
 O #2 x   -9.553967    9.553967


           Symmetry 3

           C #1 y      O #2 y

 C #1 y    9.553967
 O #2 y   -9.553967    9.553967




           C #1 x      C #1 y      C #1 z      O #2 x      O #2 y      O #2 z

 C #1 x    9.553967
 C #1 y    0.000000    9.553967
 C #1 z    0.000000    0.000000   86.928623

 O #2 x   -9.553967    0.000000    0.000000    9.553967
 O #2 y    0.000000   -9.553967    0.000000    0.000000    9.553967
 O #2 z    0.000000    0.000000  -86.928623    0.000000    0.000000   86.928623




                           Total dipole moment
                           -------------------

                               au             Debye

                    z     -0.18503599     -0.47031467

  Conversion factor used: 1 a.u. =   2.54174691 Debye 



                     Total dipole moment derivatives
                     -------------------------------


           Symmetry 1
                              Ez

               C #1 z     0.68391346
               O #2 z    -0.68391346

           Symmetry 2
                              Ex

               C #1 x    -0.09665253
               O #2 x     0.09665253

           Symmetry 3
                              Ey

               C #1 y    -0.09665253
               O #2 y     0.09665253



                       Ex          Ey          Ez

      C #1    x   -0.096653    0.000000    0.000000
      C #1    y    0.000000   -0.096653    0.000000
      C #1    z    0.000000    0.000000    0.683913

      O #2    x    0.096653    0.000000    0.000000
      O #2    y    0.000000    0.096653    0.000000
      O #2    z    0.000000    0.000000   -0.683913

 @CHECKOUT-I, Total execution time (CPU/WALL):      685.98/     116.28 seconds.
--executable xvdint finished with status     0 in      116.30 seconds (walltime).
 --invoking executable--
/nfs/workspaces/public/cfour_mpi/bin/xjoda
  @GTFLGS-I, Hessian will be transformed to curvilinear coordinates.
  @GTFLGS-I, Hessian will be transformed to curvilinear coordinates.
  igrd and ihes are                      0                     1
  gradient from JOBARC 
   0.000000000000000   0.000000000000000   0.006319826816803
   0.000000000000000   0.000000000000000  -0.006319826816803
 
  @PROJFCM-I, Projecting force constant matrix onto totally symmetric subspace.
  Largest difference between matrix elements of symmetrized
  and unsymmetrized FCM :     0.2497380081E-10.
  read isotopes from ZMAT file 
 
  Summary of diagonal Born-Oppenheimer correction at the correlated level
  The total diagonal Born-Oppenheimer correction (DBOC) is:      0.0041519305 a.u.
  The total diagonal Born-Oppenheimer correction (DBOC) is:        911.243420 cm-1
  The total diagonal Born-Oppenheimer correction (DBOC) is:            10.901 kJ/mole
  hellooooooo 
  readis is  F
 
 @CHECKOUT-I, Total execution time (CPU/WALL):        0.01/       0.05 seconds.
--executable xjoda finished with status     0 in        0.06 seconds (walltime).
  The final electronic energy is      -113.253523434579975 a.u. 
  This computation required                         2563.05 seconds (walltime).
