 --invoking executable--
/nfs/workspaces/public/cfour_mpi/bin/xjoda


   *************************************************************************
         <<<     CCCCCC     CCCCCC   |||     CCCCCC     CCCCCC   >>>
       <<<      CCC        CCC       |||    CCC        CCC         >>>
      <<<      CCC        CCC        |||   CCC        CCC            >>>
    <<<        CCC        CCC        |||   CCC        CCC              >>>
      <<<      CCC        CCC        |||   CCC        CCC            >>>
       <<<      CCC        CCC       |||    CCC        CCC         >>>
         <<<     CCCCCC     CCCCCC   |||     CCCCCC     CCCCCC   >>>
   *************************************************************************

     ****************************************************************
     * CFOUR Coupled-Cluster techniques for Computational Chemistry *
     ****************************************************************
 

   Department of Chemistry                Institut fuer Physikalische Chemie
   University of Florida                  Universitaet Mainz
   Gainesville, FL 32611, USA             D-55099 Mainz, Germany

   Department of Chemistry                Fakultaet fuer Chemie und Biowiss.
   Johns Hopkins University               Karlsruher Institut fuer Technologie
   Baltimore, MD 21218, USA               D-76131 Karlsruhe, Germany

   Department of Chemistry                Department of Physical Chemistry
   Southern Methodist University          Eotvos Lorand University
   Dallas, TX 75275, USA                  H-1053 Budapest, Hungary

 
                       Version 2.1
 
                     vincent.theory.phys.ucl.ac.uk                     
                     Tue 25 Feb 12:22:45 GMT 2025                      
                     integer*8 version is running
 
********************************************************************************
*                          Input from ZMAT file                                *
********************************************************************************
Carbon Monoxide DBOC calculation                                                
C                                                                               
O 1 r                                                                           
                                                                                
r=1.396551724137931                                                             
                                                                                
                                                                                
*CFOUR(CALC=CCSD,BASIS=AUG-PCVQZ,SCF_CONV=10                                    
CC_CONV=14,DBOC=ON,MEMORY=500000000                                             
ZFIELD=200)                                                                     
                                                                                
%isotopes                                                                       
12                                                                              
16                                                                              
********************************************************************************
  @GTFLGS-I, Hessian will be transformed to curvilinear coordinates.
    -------------------------------------------------------------------
                    CFOUR Control Parameters 
    -------------------------------------------------------------------
        External           Internal           Value            Units
          Name               Name
    -------------------------------------------------------------------
       ABCDTYPE             IABCDT         STANDARD    [  0]    ***   
       ANHARMONIC           IANHAR         OFF         [  0]    ***   
       ANH_ALGORIT          IANALG         STANDARD    [  0]    ***   
       ANH_DERIVAT          IANDER         SECOND      [  1]    ***   
       ANH_MODE             ANHMOD         VIBRATION   [  0]    ***   
       ANH_STEPSIZ          ICUBST             50000          x 10-6  
       ANH_SYMMETR          IANHSM         ABELIAN     [  0]    ***   
       AO_LADDERS           IAOLAD         SINGLEPASS  [  1]    ***   
       AV_SCF               IAVSCF         OFF         [  0]    ***   
       BASIS                IBASIS         AUG-PCVQZ   [ 52]    ***   
       BOTHVECTORS          BOTHVC         OFF         [  0]    ***   
       BOX_POTENT           IPIAB          OFF         [  0]    ***   
       BREIT                IBREIT         OFF         [  0]    ***   
       BRUCK_CONV           IBRTOL          10D-  4             ***   
       BRUECKNER            IBRKNR         OFF         [  0]    ***   
       BUFFERSIZE           IBUFFS              4096            ***   
       CACHE_RECS           ICHREC             10               ***   
       CALCLEVEL            ICLLVL         CCSD        [ 10]    ***   
       CCORBOPT             ICCORB         OFF         [  0]  x 0.01  
       CC_CONV              ICCCNV          10D- 14             ***   
       CC_EXPORDER          ICCEOR              5               ***   
       CC_EXTRAPOL          ICCEXT         DIIS        [  1]    ***   
       CC_GUESS             ICCGES         MP2         [  0]    ***   
       CC_MAXCYC            ICCCYC            100              cycles 
       CC_PROGRAM           ICCPRO         VCC         [  0]    ***   
       CHARGE               ICHRGE              0               ***   
       CHOLESKY             ICHOLE         OFF         [  0]    ***   
       CIS_CONV             ICISTL              5               ***   
       COMM_SIZE            IPSIZE            ***               ***   
       CONSTANT             ICONST         OLD         [  1]    ***   
       CONTINUUM            ICONTU         NONE        [  0]    ***   
       CONTRACTION          ICNTYP         GENERAL     [  1]    ***   
       COORDINATES          ICOORD         INTERNAL    [  0]    ***   
       CPHF_CONVER          ICPHFT          10D- 16             ***   
       CPHF_MAXCYC          ICPHFC             64              cycles 
       CUBIC                ICUBIC         OFF         [  0]    ***   
       CURVILINEAR          ICURVY         ON          [  1]    ***   
       DBOC                 IDBOC          ON          [  1]    ***   
       DCT                  IDCT           OFF         [  0]    ***   
       DERIV_LEV            IDRLVL         SECOND      [  2]    ***   
       DEVMEM_SIZE          IDVMEM          50000000           MByte  
       DIAG_MRCC            IEOMST          10D-  0             ***   
       DIFF_TYPE            IDIFTY         RELAXED     [  0]    ***   
       DIRECT               IDIRCT         OFF         [  0]    ***   
       DROPMO               IDRPMO      NONE         
       ECP                  IECP           OFF         [  0]    ***   
       EIGENVECTOR          IVEC                1               ***   
       EL_ANHARM            IELANH         OFF         [  0]    ***   
       EOMFOLLOW            IEOMSR         ENERGY      [  0]    ***   
       EOMIP                IEOMIP         OFF         [  0]    ***   
       EOMLEVEL             HBARFM         SAME        [  0]    ***   
       EOM_MRCC             IMRCCE         NEW         [  1]    ***   
       EOM_NONIT            EOMNON         OFF         [  0]    ***   
       EOM_NSING            IEOMSI          10D-  0             ***   
       EOM_NSTATES          IMRCCD         DAVIDSON    [  0]    ***   
       EOM_NTRIP            IEOMTR          10D-  0             ***   
       EOM_ORDER            IEXORD         ENERGY      [  0]    ***   
       EOM_PROPSTA          IEOMST              0               ***   
       ESTATE_CONV          IEXTOL          10D-  5             ***   
       ESTATE_DIAG          IEXDIG         ITERATIVE   [  0]    ***   
       ESTATE_LOCK          IESLOC         ON          [  1]    ***   
       ESTATE_MAXC          IEXMXC             40               ***   
       ESTATE_PROP          IEXPRP         OFF         [  0]    ***   
       EVAL_HESS            IRECAL              0            # of cyc.
       EXCITATION           IEXCIT              0               ***   
       EXCITE               IEXCIT         NONE        [  0]    ***   
       EXTERN_POT           IEXPOT         OFF         [  0]    ***   
       FCGRADNEW            IFCGNW         OFF         [  0]    ***   
       FC_FIELD             IFINFC              0             x 10-6  
       FD_CALTYPE           IFDCAL         GRADONLY    [  0]    ***   
       FD_PROJECT           IFDPRJ         OFF         [  1]    ***   
       FD_STEPSIZE          IDISFD              0            10-4 bohr
       FD_USEGROUP          IFDGRP         FULL        [  0]    ***   
       FILE_RECSIZ          IFLREC              4096           words  
       FINITE_PERT          IFIPER              0             x 10-6  
       FIXGEOM              IFIXGM         OFF         [  0]    ***   
       FOCK                 IFOCK          AO          [  1]    ***   
       FREQ_ALGORI          IVIALG         STANDARD    [  0]    ***   
       FROZEN_CORE          IFROCO         OFF         [  0]    ***   
       GAMMA_ABCD           IGABCD         STORE       [  0]    ***   
       GAMMA_ABCI           IGABCI         STORE       [  0]    ***   
       GENBAS_1             IGNBS1              0               ***   
       GENBAS_2             IGNBS2              0               ***   
       GENBAS_3             IGNBS3              0               ***   
       GENBAS_4             IGNBS4              0               ***   
       GEO_CONV             ICONTL              5              H/bohr 
       GEO_MAXCYC           IOPTCY             50               ***   
       GEO_MAXSTEP          IMXSTP            300            millibohr
       GEO_METHOD           INR            SINGLE_POINT[  5]    ***   
       GIAO                 IGIAO          OFF         [  1]    ***   
       GIMIC                IGIMIC         OFF         [  0]    ***   
       GRID                 IGRID          OFF         [  0]    ***   
       GRID_ALGO            IGALGO         SERIAL      [  0]    ***   
       GUESS                IGUESS         MOREAD      [  0]    ***   
       HBAR                 IHBAR          OFF         [  0]    ***   
       HESS_TYPE            IHESTP         SCF         [  0]    ***   
       HF2_FILE             IHF2Fl         USE         [  1]    ***   
       HFSTABILITY          ISTABL         OFF         [  0]    ***   
       INCORE               INCORE         OFF         [  0]    ***   
       INPUT_MRCC           IMRCC          ON          [  1]    ***   
       INTEGRALS            INTTYP         VMOL        [  1]    ***   
       JODA_PRINT           IJPRNT              0               ***   
       KEYWORD_OUT          IDMPKW         NO          [  0]    ***   
       LINDEP_TOL           ILINDP              8               ***   
       LINEQ_CONV           IZTACN          10D-  7           cycles  
       LINEQ_EXPOR          ILMAXD              5               ***   
       LINEQ_MAXCY          ILMAXC            100               ***   
       LINEQ_TYPE           ILTYPE         DIIS        [  1]    ***   
       LOCK_ORBOCC          ILOCOC         OFF         [  0]    ***   
       MEMORY_SIZE          IMEMSZ         500000000           words  
       MEM_UNIT             IMEMU          INTEGERWORDS[  0]    ***   
       MRCC                 IMRCCC         OFF         [  0]    ***   
       MULTIPLICTY          IMULTP              1               ***   
       NACOUPLING           IVCOUP         OFF         [  0]    ***   
       NEGEVAL              IDIE           ABORT       [  0]    ***   
       NEWNORM              INEWNO         OFF         [  0]    ***   
       NON-HF               INONHF         OFF         [  0]    ***   
       NTOP_TAMP            ITOPT2             15               ***   
       NUC_MODEL            INUCMO         POINT       [  0]    ***   
       OCCUPATION           IOCCU   ESTIMATED BY SCF 
       OPEN-SHELL           IOPEN          SPIN-ORBITAL[  0]    ***   
       OPTVIB               IOPTVB         OFF         [  0]    ***   
       ORBITALS             IORBTP         STANDARD    [  0]    ***   
       PARALLEL             IPARAL         ON          [  1]    ***   
       PARA_INT             IPINTS         ON          [  1]    ***   
       PARA_PRINT           IPPRIN              0               ***   
       PERT_ORB             IPTORB         STANDARD    [  0]    ***   
       POINTS               IGRDFD              0               ***   
       PRINT                IPRNT               0               ***   
       PROPS                IPROPS         OFF         [  0]    ***   
       PROP_INTEGR          IINTYP         INTERNAL    [  0]    ***   
       PSI                  IPSI           OFF         [  0]    ***   
       QC_ALG               IQCALG         FLM         [  0]    ***   
       QC_LINALG            IQCLIN         TRIDIAG     [  2]    ***   
       QC_MAXCYC            IQCMAX          10D-100           cycles  
       QC_MAXSCFCY          IQCMSC          10D- 15           cycles  
       QC_RTRUST            IQCRTR          10D-  0           x 10-3  
       QC_SKIPSCF           IQCSKI         OFF         [  0]    ***   
       QC_START             IQCSTA          10D-  1             ***   
       QRHFGUESS            IQGUES         OFF         [  0]    ***   
       QUARTIC              IQUART         OFF         [  0]    ***   
       RAMAN_INT            IRAMIN         OFF         [  0]    ***   
       RAMAN_ORB            IRAMRE         UNRELAXED   [  0]    ***   
       RDO                  IRDOFM         ON          [  1]    ***   
       REDUCE_REPR          REDREP         Ir          [  0]    ***   
       REFERENCE            IREFNC         RHF         [  0]    ***   
       RELATIVIST           IRELAT         OFF         [  0]    ***   
       RELAX_DENS           IRDENS         ON          [  1]    ***   
       RESET_FLAGS          IRESET         OFF         [  0]    ***   
       RESTART_CC           ICCRES         OFF         [  0]    ***   
       ROT_EVEC             ROTVEC              0               ***   
       SAVE_INTS            ISVINT         OFF         [  0]    ***   
       SCALE_ON             ISTCRT              0               ***   
       SCF_CONV             ISCFCV          10D- 10             ***   
       SCF_DAMPING          IDAMP               0             x 10-3  
       SCF_EXPORDE          IRPPOR              6               ***   
       SCF_EXPSTAR          IRPPLS              8               ***   
       SCF_EXTRAPO          IRPP           ON          [  1]    ***   
       SCF_MAXCYC           ISCFCY            150              cycles 
       SCF_NOSTOP           ISCFST         OFF         [  0]    ***   
       SCF_PRINT            ISCFPR              0               ***   
       SCF_PROG             ISCFPR         SCF         [  0]    ***   
       SD_FIELD             IFINSD              0             x 10-6  
       SOPERT               IPERSO         OFF         [  0]    ***   
       SPHERICAL            IDFGHI         ON          [  1]    ***   
       SPINORBIT            ISOCAL         OFF         [  0]    ***   
       SPINROTATIO          ISRCON         OFF         [  0]    ***   
       SPIN_FLIP            ISPFLP         OFF         [  0]    ***   
       SPIN_ORBIT           ISPORB         OFF         [  0]    ***   
       SPIN_SCAL            ISCSMP         OFF         [  0]    ***   
       STEEPSCALE           ISTPSC              1000          x 10-3  
       SUBGROUP             ISUBGP         DEFAULT     [  0]    ***   
       SUBGRPAXIS           ISBXYZ         X           [  0]    ***   
       SYMMETRY             ISYM           ON          [  0]    ***   
       SYM_CHECK            ISYMCK         OVERRIDE    [  1]    ***   
       T3_EXTRAPOL          IT3EXT         OFF         [  0]    ***   
       T4_EXTRAPOL          IT4EXP         OFF         [  0]    ***   
       TAMP_SUM             IEVERY              5               ***   
       TESTSUITE            ITESTS         OFF         [  0]    ***   
       THERMOCH             ITHERM         OFF         [  0]    ***   
       TOL_CHOLESK          ITOLCH          10D-  4             ***   
       TRANGRAD             IRESRM         OFF         [  0]    ***   
       TRANS_INV            ITRAIN         IGNORE      [  1]    ***   
       TREAT_PERT           ITREAT         SIMULTANEOUS[  0]    ***   
       TRIP_ALGORI          ITRALG         NORMAL      [  0]    ***   
       UIJ_THRESHO          IUIJTH              1               ***   
       UNITS                IUNITS         ANGSTROM    [  0]    ***   
       UNOS                 IUNOS          OFF         [  0]    ***   
       UPDATE_HESS          IHUPDT         ON          [  1]    ***   
       VIBPHASE             ISETPH         STANDARD    [  0]    ***   
       VIBRATION            IVIB           ANALYTIC    [  1]    ***   
       VIB_ALGORIT          IGEALG         STANDARD    [  0]    ***   
       VNATORB              IVNORB         OFF         [  0]    ***   
       VTRAN                IVTRAN         FULL/PARTIAL[  0]    ***   
       XFIELD               IXEFLD              0             x 10-6  
       XFORM_TOL            IXFTOL          10D- 11             ***   
       YFIELD               IYEFLD              0             x 10-6  
       ZFIELD               IZEFLD            200             x 10-6  
       ZSCALE_EXP           IZEXPS         OFF         [  0]    ***   
    -------------------------------------------------------------------
   2 entries found in Z-matrix 
   Job Title : Carbon Monoxide DBOC calculation                                                
   There are  1 unique internal coordinates.
   Of these,  0 will be optimized.
   User supplied Z-matrix: 
--------------------------------------------------------------------------------
       SYMBOL    BOND      LENGTH    ANGLE     ANGLE     DIHED     ANGLE
                  TO      (ANGST)    WRT      (DEG)      WRT      (DEG)
--------------------------------------------------------------------------------
        C    
        O          1         r    
                  *Initial values for internal coordinates* 
                      Name             Value
                        r               1.3965517241
--------------------------------------------------------------------------------
  read isotopes from ZMAT file 
   Rotational constants (in cm-1): 
          1.2606614698             1.2606614698
   Rotational constants (in MHz): 
      37793.6853685692         37793.6853685692
********************************************************************************
   The full molecular point group is CXv .
   The largest Abelian subgroup of the full molecular point group is C2v .
   The computational point group is C2v .
********************************************************************************
--------------------------------------------------------------------------------
   Analysis of internal coordinates specified by Z-matrix 
--------------------------------------------------------------------------------
   *The nuclear repulsion energy is   18.188012918518517 a.u.
   *There is   1 degree of freedom within the tot. symm. molecular subspace.
   *Z-matrix requests optimization of   0 coordinates.
   *The optimization is constrained.
   *The following   1 parameters can have non-zero 
    derivatives within the totally symmetric subspace:
             r    [ 1]
   *The following   0 parameters are to be optimized:

   *The following coordinates must be varied in an  unconstrained optimization.
             r    [ 1]
--------------------------------------------------------------------------------


 ----------------------------------------------------------------
         Coordinates used in calculation (QCOMP) 
 ----------------------------------------------------------------
 Z-matrix   Atomic            Coordinates (in bohr)
  Symbol    Number           X              Y              Z
 ----------------------------------------------------------------
     C         6        -0.00000000     0.00000000     1.50785216
     O         8         0.00000000     0.00000000    -1.13124867
 ----------------------------------------------------------------
 
   Interatomic distance matrix (Angstroms) 
 
                 C             O    
                [ 1]        [ 2]
  C    [ 1]     0.00000
  O    [ 2]     1.39655     0.00000
 rotcon2
   Rotational constants (in cm-1): 
          1.2606614698             0.0000000000
   Rotational constants (in MHz): 
      37793.6853685692             0.0000000000
  ECPDATA file not present.   Using default ECPDATA. 
  @GTFLGS-I, Hessian will be transformed to curvilinear coordinates.
  There are  218 basis functions.
 @CHECKOUT-I, Total execution time (CPU/WALL):        0.10/       0.16 seconds.
--executable xjoda finished with status     0 in        0.17 seconds (walltime).
 --invoking executable--
/nfs/workspaces/public/cfour_mpi/bin/xvmol
 SERIAL VERSION OF MOLECULE STARTED
********************************************************************************
                    INPUT FROM MOL FILE
********************************************************************************
INTGRL        1    0    1    0    0    0    0    0    0                         
         *** CFOUR Program System (Release V0.1) ***                            
Carbon Monoxide DBOC calculation                                                
    2    2 X  Y       0.10E-08              0    0                              
   9999.00      3.00                                                            
          6.00000000    1    5    1    1    1    1    1                         
C #1  -0.000000000000000   0.000000000000000   1.507852159690996                
   16    9                                                                      
   33980.0000000000       9.100000000000000E-005 -1.900000000000000E-005        
  0.000000000000000E+000  0.000000000000000E+000  0.000000000000000E+000        
  0.000000000000000E+000  0.000000000000000E+000  0.000000000000000E+000        
  0.000000000000000E+000                                                        
   5089.00000000000       7.040000000000000E-004 -1.510000000000000E-004        
  0.000000000000000E+000  0.000000000000000E+000  0.000000000000000E+000        
  0.000000000000000E+000  0.000000000000000E+000  0.000000000000000E+000        
  0.000000000000000E+000                                                        
   1157.00000000000       3.693000000000000E-003 -7.850000000000000E-004        
  0.000000000000000E+000  0.000000000000000E+000  0.000000000000000E+000        
  0.000000000000000E+000  0.000000000000000E+000  0.000000000000000E+000        
  0.000000000000000E+000                                                        
   326.600000000000       1.536000000000000E-002 -3.324000000000000E-003        
  0.000000000000000E+000  0.000000000000000E+000  0.000000000000000E+000        
  0.000000000000000E+000  0.000000000000000E+000  0.000000000000000E+000        
  0.000000000000000E+000                                                        
   106.100000000000       5.292900000000000E-002 -1.151200000000000E-002        
  0.000000000000000E+000  0.000000000000000E+000  0.000000000000000E+000        
  0.000000000000000E+000  0.000000000000000E+000  0.000000000000000E+000        
  0.000000000000000E+000                                                        
   38.1100000000000       0.147043000000000      -3.416000000000000E-002        
  0.000000000000000E+000  0.000000000000000E+000  0.000000000000000E+000        
  0.000000000000000E+000  0.000000000000000E+000  0.000000000000000E+000        
  0.000000000000000E+000                                                        
   14.7500000000000       0.305631000000000      -7.717300000000001E-002        
  0.000000000000000E+000  0.000000000000000E+000  0.000000000000000E+000        
  0.000000000000000E+000  0.000000000000000E+000  0.000000000000000E+000        
  0.000000000000000E+000                                                        
   6.03500000000000       0.399345000000000      -0.141493000000000             
  0.000000000000000E+000  0.000000000000000E+000  0.000000000000000E+000        
  0.000000000000000E+000  0.000000000000000E+000  0.000000000000000E+000        
  0.000000000000000E+000                                                        
   2.53000000000000       0.217051000000000      -0.118019000000000             
  0.000000000000000E+000  0.000000000000000E+000  0.000000000000000E+000        
  0.000000000000000E+000  0.000000000000000E+000  0.000000000000000E+000        
  0.000000000000000E+000                                                        
  0.735500000000000       1.589400000000000E-002  0.273806000000000             
   1.00000000000000       0.000000000000000E+000  0.000000000000000E+000        
  0.000000000000000E+000  0.000000000000000E+000  0.000000000000000E+000        
  0.000000000000000E+000                                                        
  0.290500000000000      -3.084000000000000E-003  0.586510000000000             
  0.000000000000000E+000   1.00000000000000       0.000000000000000E+000        
  0.000000000000000E+000  0.000000000000000E+000  0.000000000000000E+000        
  0.000000000000000E+000                                                        
  0.111100000000000       9.779999999999999E-004  0.285430000000000             
  0.000000000000000E+000  0.000000000000000E+000   1.00000000000000             
  0.000000000000000E+000  0.000000000000000E+000  0.000000000000000E+000        
  0.000000000000000E+000                                                        
   7.21600000000000       0.000000000000000E+000  0.000000000000000E+000        
  0.000000000000000E+000  0.000000000000000E+000  0.000000000000000E+000        
   1.00000000000000       0.000000000000000E+000  0.000000000000000E+000        
  0.000000000000000E+000                                                        
   19.5700000000000       0.000000000000000E+000  0.000000000000000E+000        
  0.000000000000000E+000  0.000000000000000E+000  0.000000000000000E+000        
  0.000000000000000E+000   1.00000000000000       0.000000000000000E+000        
  0.000000000000000E+000                                                        
   53.0730000000000       0.000000000000000E+000  0.000000000000000E+000        
  0.000000000000000E+000  0.000000000000000E+000  0.000000000000000E+000        
  0.000000000000000E+000  0.000000000000000E+000   1.00000000000000             
  0.000000000000000E+000                                                        
  4.145000000000000E-002  0.000000000000000E+000  0.000000000000000E+000        
  0.000000000000000E+000  0.000000000000000E+000  0.000000000000000E+000        
  0.000000000000000E+000  0.000000000000000E+000  0.000000000000000E+000        
   1.00000000000000                                                             
   10    8                                                                      
   34.5100000000000       5.378000000000000E-003  0.000000000000000E+000        
  0.000000000000000E+000  0.000000000000000E+000  0.000000000000000E+000        
  0.000000000000000E+000  0.000000000000000E+000  0.000000000000000E+000        
   7.91500000000000       3.613200000000000E-002  0.000000000000000E+000        
  0.000000000000000E+000  0.000000000000000E+000  0.000000000000000E+000        
  0.000000000000000E+000  0.000000000000000E+000  0.000000000000000E+000        
   2.36800000000000       0.142493000000000       0.000000000000000E+000        
  0.000000000000000E+000  0.000000000000000E+000  0.000000000000000E+000        
  0.000000000000000E+000  0.000000000000000E+000  0.000000000000000E+000        
  0.813200000000000       0.342150000000000        1.00000000000000             
  0.000000000000000E+000  0.000000000000000E+000  0.000000000000000E+000        
  0.000000000000000E+000  0.000000000000000E+000  0.000000000000000E+000        
  0.289000000000000       0.463864000000000       0.000000000000000E+000        
   1.00000000000000       0.000000000000000E+000  0.000000000000000E+000        
  0.000000000000000E+000  0.000000000000000E+000  0.000000000000000E+000        
  0.100700000000000       0.250028000000000       0.000000000000000E+000        
  0.000000000000000E+000   1.00000000000000       0.000000000000000E+000        
  0.000000000000000E+000  0.000000000000000E+000  0.000000000000000E+000        
   8.18200000000000       0.000000000000000E+000  0.000000000000000E+000        
  0.000000000000000E+000  0.000000000000000E+000   1.00000000000000             
  0.000000000000000E+000  0.000000000000000E+000  0.000000000000000E+000        
   24.1860000000000       0.000000000000000E+000  0.000000000000000E+000        
  0.000000000000000E+000  0.000000000000000E+000  0.000000000000000E+000        
   1.00000000000000       0.000000000000000E+000  0.000000000000000E+000        
   71.4940000000000       0.000000000000000E+000  0.000000000000000E+000        
  0.000000000000000E+000  0.000000000000000E+000  0.000000000000000E+000        
  0.000000000000000E+000   1.00000000000000       0.000000000000000E+000        
  3.218000000000000E-002  0.000000000000000E+000  0.000000000000000E+000        
  0.000000000000000E+000  0.000000000000000E+000  0.000000000000000E+000        
  0.000000000000000E+000  0.000000000000000E+000   1.00000000000000             
    6    6                                                                      
   1.84800000000000        1.00000000000000       0.000000000000000E+000        
  0.000000000000000E+000  0.000000000000000E+000  0.000000000000000E+000        
  0.000000000000000E+000                                                        
  0.649000000000000       0.000000000000000E+000   1.00000000000000             
  0.000000000000000E+000  0.000000000000000E+000  0.000000000000000E+000        
  0.000000000000000E+000                                                        
  0.228000000000000       0.000000000000000E+000  0.000000000000000E+000        
   1.00000000000000       0.000000000000000E+000  0.000000000000000E+000        
  0.000000000000000E+000                                                        
   8.65600000000000       0.000000000000000E+000  0.000000000000000E+000        
  0.000000000000000E+000   1.00000000000000       0.000000000000000E+000        
  0.000000000000000E+000                                                        
   33.2130000000000       0.000000000000000E+000  0.000000000000000E+000        
  0.000000000000000E+000  0.000000000000000E+000   1.00000000000000             
  0.000000000000000E+000                                                        
  7.660000000000000E-002  0.000000000000000E+000  0.000000000000000E+000        
  0.000000000000000E+000  0.000000000000000E+000  0.000000000000000E+000        
   1.00000000000000                                                             
    4    4                                                                      
   1.41900000000000        1.00000000000000       0.000000000000000E+000        
  0.000000000000000E+000  0.000000000000000E+000                                
  0.485000000000000       0.000000000000000E+000   1.00000000000000             
  0.000000000000000E+000  0.000000000000000E+000                                
   24.6940000000000       0.000000000000000E+000  0.000000000000000E+000        
   1.00000000000000       0.000000000000000E+000                                
  0.187000000000000       0.000000000000000E+000  0.000000000000000E+000        
  0.000000000000000E+000   1.00000000000000                                     
    2    2                                                                      
   1.01100000000000        1.00000000000000       0.000000000000000E+000        
  0.424000000000000       0.000000000000000E+000   1.00000000000000             
          8.00000000    1    5    1    1    1    1    1                         
O #2   0.000000000000000   0.000000000000000  -1.131248670896592                
   16    9                                                                      
   61420.0000000000       9.000000000000001E-005 -2.000000000000000E-005        
  0.000000000000000E+000  0.000000000000000E+000  0.000000000000000E+000        
  0.000000000000000E+000  0.000000000000000E+000  0.000000000000000E+000        
  0.000000000000000E+000                                                        
   9199.00000000000       6.980000000000001E-004 -1.590000000000000E-004        
  0.000000000000000E+000  0.000000000000000E+000  0.000000000000000E+000        
  0.000000000000000E+000  0.000000000000000E+000  0.000000000000000E+000        
  0.000000000000000E+000                                                        
   2091.00000000000       3.664000000000000E-003 -8.290000000000000E-004        
  0.000000000000000E+000  0.000000000000000E+000  0.000000000000000E+000        
  0.000000000000000E+000  0.000000000000000E+000  0.000000000000000E+000        
  0.000000000000000E+000                                                        
   590.900000000000       1.521800000000000E-002 -3.508000000000000E-003        
  0.000000000000000E+000  0.000000000000000E+000  0.000000000000000E+000        
  0.000000000000000E+000  0.000000000000000E+000  0.000000000000000E+000        
  0.000000000000000E+000                                                        
   192.300000000000       5.242300000000000E-002 -1.215600000000000E-002        
  0.000000000000000E+000  0.000000000000000E+000  0.000000000000000E+000        
  0.000000000000000E+000  0.000000000000000E+000  0.000000000000000E+000        
  0.000000000000000E+000                                                        
   69.3200000000000       0.145921000000000      -3.626100000000000E-002        
  0.000000000000000E+000  0.000000000000000E+000  0.000000000000000E+000        
  0.000000000000000E+000  0.000000000000000E+000  0.000000000000000E+000        
  0.000000000000000E+000                                                        
   26.9700000000000       0.305258000000000      -8.299200000000000E-002        
  0.000000000000000E+000  0.000000000000000E+000  0.000000000000000E+000        
  0.000000000000000E+000  0.000000000000000E+000  0.000000000000000E+000        
  0.000000000000000E+000                                                        
   11.1000000000000       0.398508000000000      -0.152090000000000             
  0.000000000000000E+000  0.000000000000000E+000  0.000000000000000E+000        
  0.000000000000000E+000  0.000000000000000E+000  0.000000000000000E+000        
  0.000000000000000E+000                                                        
   4.68200000000000       0.216980000000000      -0.115331000000000             
  0.000000000000000E+000  0.000000000000000E+000  0.000000000000000E+000        
  0.000000000000000E+000  0.000000000000000E+000  0.000000000000000E+000        
  0.000000000000000E+000                                                        
   1.42800000000000       1.759400000000000E-002  0.288979000000000             
   1.00000000000000       0.000000000000000E+000  0.000000000000000E+000        
  0.000000000000000E+000  0.000000000000000E+000  0.000000000000000E+000        
  0.000000000000000E+000                                                        
  0.554700000000000      -2.502000000000000E-003  0.586128000000000             
  0.000000000000000E+000   1.00000000000000       0.000000000000000E+000        
  0.000000000000000E+000  0.000000000000000E+000  0.000000000000000E+000        
  0.000000000000000E+000                                                        
  0.206700000000000       9.540000000000000E-004  0.277624000000000             
  0.000000000000000E+000  0.000000000000000E+000   1.00000000000000             
  0.000000000000000E+000  0.000000000000000E+000  0.000000000000000E+000        
  0.000000000000000E+000                                                        
   12.9740000000000       0.000000000000000E+000  0.000000000000000E+000        
  0.000000000000000E+000  0.000000000000000E+000  0.000000000000000E+000        
   1.00000000000000       0.000000000000000E+000  0.000000000000000E+000        
  0.000000000000000E+000                                                        
   34.9000000000000       0.000000000000000E+000  0.000000000000000E+000        
  0.000000000000000E+000  0.000000000000000E+000  0.000000000000000E+000        
  0.000000000000000E+000   1.00000000000000       0.000000000000000E+000        
  0.000000000000000E+000                                                        
   93.8810000000000       0.000000000000000E+000  0.000000000000000E+000        
  0.000000000000000E+000  0.000000000000000E+000  0.000000000000000E+000        
  0.000000000000000E+000  0.000000000000000E+000   1.00000000000000             
  0.000000000000000E+000                                                        
  6.959000000000000E-002  0.000000000000000E+000  0.000000000000000E+000        
  0.000000000000000E+000  0.000000000000000E+000  0.000000000000000E+000        
  0.000000000000000E+000  0.000000000000000E+000  0.000000000000000E+000        
   1.00000000000000                                                             
   10    8                                                                      
   63.4200000000000       6.044000000000000E-003  0.000000000000000E+000        
  0.000000000000000E+000  0.000000000000000E+000  0.000000000000000E+000        
  0.000000000000000E+000  0.000000000000000E+000  0.000000000000000E+000        
   14.6600000000000       4.179900000000000E-002  0.000000000000000E+000        
  0.000000000000000E+000  0.000000000000000E+000  0.000000000000000E+000        
  0.000000000000000E+000  0.000000000000000E+000  0.000000000000000E+000        
   4.45900000000000       0.161143000000000       0.000000000000000E+000        
  0.000000000000000E+000  0.000000000000000E+000  0.000000000000000E+000        
  0.000000000000000E+000  0.000000000000000E+000  0.000000000000000E+000        
   1.53100000000000       0.356731000000000        1.00000000000000             
  0.000000000000000E+000  0.000000000000000E+000  0.000000000000000E+000        
  0.000000000000000E+000  0.000000000000000E+000  0.000000000000000E+000        
  0.530200000000000       0.448309000000000       0.000000000000000E+000        
   1.00000000000000       0.000000000000000E+000  0.000000000000000E+000        
  0.000000000000000E+000  0.000000000000000E+000  0.000000000000000E+000        
  0.175000000000000       0.244940000000000       0.000000000000000E+000        
  0.000000000000000E+000   1.00000000000000       0.000000000000000E+000        
  0.000000000000000E+000  0.000000000000000E+000  0.000000000000000E+000        
   14.4750000000000       0.000000000000000E+000  0.000000000000000E+000        
  0.000000000000000E+000  0.000000000000000E+000   1.00000000000000             
  0.000000000000000E+000  0.000000000000000E+000  0.000000000000000E+000        
   42.7300000000000       0.000000000000000E+000  0.000000000000000E+000        
  0.000000000000000E+000  0.000000000000000E+000  0.000000000000000E+000        
   1.00000000000000       0.000000000000000E+000  0.000000000000000E+000        
   126.140000000000       0.000000000000000E+000  0.000000000000000E+000        
  0.000000000000000E+000  0.000000000000000E+000  0.000000000000000E+000        
  0.000000000000000E+000   1.00000000000000       0.000000000000000E+000        
  5.348000000000000E-002  0.000000000000000E+000  0.000000000000000E+000        
  0.000000000000000E+000  0.000000000000000E+000  0.000000000000000E+000        
  0.000000000000000E+000  0.000000000000000E+000   1.00000000000000             
    6    6                                                                      
   3.77500000000000        1.00000000000000       0.000000000000000E+000        
  0.000000000000000E+000  0.000000000000000E+000  0.000000000000000E+000        
  0.000000000000000E+000                                                        
   1.30000000000000       0.000000000000000E+000   1.00000000000000             
  0.000000000000000E+000  0.000000000000000E+000  0.000000000000000E+000        
  0.000000000000000E+000                                                        
  0.444000000000000       0.000000000000000E+000  0.000000000000000E+000        
   1.00000000000000       0.000000000000000E+000  0.000000000000000E+000        
  0.000000000000000E+000                                                        
   14.9270000000000       0.000000000000000E+000  0.000000000000000E+000        
  0.000000000000000E+000   1.00000000000000       0.000000000000000E+000        
  0.000000000000000E+000                                                        
   57.5440000000000       0.000000000000000E+000  0.000000000000000E+000        
  0.000000000000000E+000  0.000000000000000E+000   1.00000000000000             
  0.000000000000000E+000                                                        
  0.154000000000000       0.000000000000000E+000  0.000000000000000E+000        
  0.000000000000000E+000  0.000000000000000E+000  0.000000000000000E+000        
   1.00000000000000                                                             
    4    4                                                                      
   2.66600000000000        1.00000000000000       0.000000000000000E+000        
  0.000000000000000E+000  0.000000000000000E+000                                
  0.859000000000000       0.000000000000000E+000   1.00000000000000             
  0.000000000000000E+000  0.000000000000000E+000                                
   26.4830000000000       0.000000000000000E+000  0.000000000000000E+000        
   1.00000000000000       0.000000000000000E+000                                
  0.324000000000000       0.000000000000000E+000  0.000000000000000E+000        
  0.000000000000000E+000   1.00000000000000                                     
    2    2                                                                      
   1.84600000000000        1.00000000000000       0.000000000000000E+000        
  0.714000000000000       0.000000000000000E+000   1.00000000000000             
FINISH                                                                          
 
********************************************************************************
 ONE- AND TWO-ELECTRON INTEGRALS OVER SYMMETRY-ADAPTED AOS ARE CALCULATED.

  SPHERICAL HARMONICS ARE USED.
  
  INTEGRALS LESS THAN  0.10E-13 ARE NEGLECTED.

  NUCLEAR REPULSION ENERGY :   18.1880129185 A.U.
  @MOLECU-I, ONE ELECTRON INTEGRALS (CPU/WALL):        0.06/       0.09 SECONDS.
  @TWOEL-I,    4497928 INTEGRALS OF SYMMETRY TYPE  I I I I
  @TWOEL-I,   19389670 INTEGRALS OF SYMMETRY TYPE  I J I J
  @TWOEL-I,   10209152 INTEGRALS OF SYMMETRY TYPE  I I J J
  @TWOEL-I,   14352678 INTEGRALS OF SYMMETRY TYPE  I J K L
  @TWOEL-I, TOTAL NUMBER OF 2-E INTEGRALS   48449428.
  @MOLECU-I, TWO ELECTRON INTEGRALS (CPU/WALL):      192.71/      27.53 SECONDS.
 @CHECKOUT-I, Total execution time (CPU/WALL):      192.78/      27.64 seconds.

Running with 14 threads/proc

--executable xvmol finished with status     0 in       27.66 seconds (walltime).
 --invoking executable--
/nfs/workspaces/public/cfour_mpi/bin/xvmol2ja
 @GETMEM-I,  Allocated    3814 MB of main memory.
 @CHECKOUT-I, Total execution time (CPU/WALL):        0.11/       0.06 seconds.
--executable xvmol2ja finished with status     0 in        0.08 seconds (walltime).
 --invoking executable--
/nfs/workspaces/public/cfour_mpi/bin/xvprop
 @GETMEM-I,  Allocated    3814 MB of main memory.
   Property integrals will be calculated.
    --------------------------------------------------------------
                                   Property evaluated at 
    Property type                X             Y             Z
    --------------------------------------------------------------
    Dipole moment               ----          ----          ----  
    Quadrupole moment           ----          ----          ----  
    Octopole moment             ----          ----          ----  
    Relativisitic corr.         ----          ----          ----  
    Second moment            0.0000000     0.0000000     0.0000000
    Electron density         0.0000000     0.0000000     1.5078522
    Electron density         0.0000000     0.0000000    -1.1312487
    Field gradient           0.0000000     0.0000000     1.5078522
    Field gradient           0.0000000     0.0000000    -1.1312487
    Potential                0.0000000     0.0000000     1.5078522
    Potential                0.0000000     0.0000000    -1.1312487
    --------------------------------------------------------------
 @CHECKOUT-I, Total execution time (CPU/WALL):        1.44/       1.48 seconds.
--executable xvprop finished with status     0 in        1.50 seconds (walltime).
 --invoking executable--
/nfs/workspaces/public/cfour_mpi/bin/xvscf
  There are  218 functions in the AO basis.

  There are 4 irreducible representations.

       Irrep        # of functions
         1                 86
         2                 52
         3                 52
         4                 28


  Parameters for SCF calculation: 
        SCF reference function:  RHF  
  Maximum number of iterations:  150
     Full symmetry point group: CXv 
     Computational point group: C2v 
        Initial density matrix: MOREAD                 
     SCF convergence tolerance: 10**(-10)
  DIIS convergence acceleration:  ON
          Latest start for DIIS:   8
                     DIIS order:   6

  Memory information:    2523578 words required.
  Fock matrices are constructed from AO integral file.
 @GETMEM-I,  Allocated      19 MB of main memory.
  Initialization and symmetry analysis required      0.001 seconds.

  Adding electric field perturbation to one-electron Hamiltonian.
  Field direction     : Z
  Field strength      :  0.0002000 a.u.

  @INITGES-I, Occupancies from core Hamiltonian:

          Alpha population by irrep:   5    1    1    0
           Beta population by irrep:   5    1    1    0


 total no. of electrons in initial guess :  0.000000000000000E+000
  --------------------------------------------------------------------
  Iteration         Total Energy            Largest Density Difference
  --------------------------------------------------------------------
       0            18.188013493800320              0.0000000000D+00
   current occupation vector 
     5  1  1  0
     5  1  1  0
       1           -93.159361126120388              0.1763767274D+02
   current occupation vector 
     5  1  1  0
     5  1  1  0
       2           -98.371493367209894              0.1763500431D+02
   current occupation vector 
     5  1  1  0
     5  1  1  0
       3          -103.308812441042960              0.6678884531D+01
   current occupation vector 
     5  1  1  0
     5  1  1  0
       4           -98.587380700978144              0.6672070175D+01
   current occupation vector 
     5  1  1  0
     5  1  1  0
       5          -101.292888301093342              0.6449008389D+01
   current occupation vector 
     5  1  1  0
     5  1  1  0
       6           -97.014234261870286              0.6436054828D+01
   current occupation vector 
     5  1  1  0
     5  1  1  0
       7          -101.271307841370174              0.6576403073D+01
   current occupation vector 
     5  1  1  0
     5  1  1  0
       8           -96.928707040192450              0.6576405075D+01
   current occupation vector 
     5  1  1  0
     5  1  1  0
       9          -108.167573619062097              0.5045536504D+01
   current occupation vector 
     5  1  1  0
     5  1  1  0
      10          -110.065982263002553              0.9994685635D+00
   current occupation vector 
     5  1  1  0
     5  1  1  0
      11          -112.399322733872964              0.1363075561D+01
   current occupation vector 
     5  1  1  0
     5  1  1  0
      12          -112.659008237672936              0.5145052358D+00
   current occupation vector 
     5  1  1  0
     5  1  1  0
      13          -112.661492926495555              0.8210290067D-01
   current occupation vector 
     5  1  1  0
     5  1  1  0
      14          -112.661991320734188              0.3311228756D-01
   current occupation vector 
     5  1  1  0
     5  1  1  0
      15          -112.662023880834653              0.9367319239D-02
   current occupation vector 
     5  1  1  0
     5  1  1  0
      16          -112.662025369637860              0.2153831217D-02
   current occupation vector 
     5  1  1  0
     5  1  1  0
      17          -112.662025589267728              0.9685783447D-03
   current occupation vector 
     5  1  1  0
     5  1  1  0
      18          -112.662025624681689              0.3907394856D-03
   current occupation vector 
     5  1  1  0
     5  1  1  0
      19          -112.662025625984199              0.9634759790D-04
   current occupation vector 
     5  1  1  0
     5  1  1  0
      20          -112.662025626000485              0.4034406372D-05
   current occupation vector 
     5  1  1  0
     5  1  1  0
      21          -112.662025626002276              0.7004273219D-06
   current occupation vector 
     5  1  1  0
     5  1  1  0
      22          -112.662025626002645              0.1252286451D-06
   current occupation vector 
     5  1  1  0
     5  1  1  0
      23          -112.662025626002816              0.2756687456D-07
   current occupation vector 
     5  1  1  0
     5  1  1  0
      24          -112.662025626003327              0.3394312831D-08
   current occupation vector 
     5  1  1  0
     5  1  1  0
      25          -112.662025626001451              0.9911174104D-09
   current occupation vector 
     5  1  1  0
     5  1  1  0
      26          -112.662025626002304              0.3506812618D-09
   current occupation vector 
     5  1  1  0
     5  1  1  0
      27          -112.662025626002986              0.1817417328D-09
   current occupation vector 
     5  1  1  0
     5  1  1  0
      28          -112.662025626002674              0.2745137451D-09
   current occupation vector 
     5  1  1  0
     5  1  1  0

  SCF has converged.

 Density matrix saved to file den.dat
 total electron number:   13.9999999999999     
     E(SCF)=      -112.662025626002418              0.9476130991D-10

  Eigenvector printing suppressed.

 @PUTMOS-I, Writing converged MOs to NEWMOS. 
 @PUTMOS-I, Symmetry   1 Full Blocks 21 Partial Blocksize   2
 @PUTMOS-I, Symmetry   2 Full Blocks 13 Partial Blocksize   0
 @PUTMOS-I, Symmetry   3 Full Blocks 13 Partial Blocksize   0
 @PUTMOS-I, Symmetry   4 Full Blocks  7 Partial Blocksize   0
 @PUTFOCK-I, Writing converged Fock matrix to NEWFOCK. 
 @PUTFOCK-I, Symmetry   1 Full Blocks 21 Partial Blocksize   2
 @PUTFOCK-I, Symmetry   2 Full Blocks 13 Partial Blocksize   0
 @PUTFOCK-I, Symmetry   3 Full Blocks 13 Partial Blocksize   0
 @PUTFOCK-I, Symmetry   4 Full Blocks  7 Partial Blocksize   0


 
  ORBITAL EIGENVALUES (ALPHA)  (1H = 27.2113834 eV)

       MO #        E(hartree)               E(eV)           FULLSYM    COMPSYM
       ----   --------------------   --------------------   -------   ---------
    1     1         -20.6612411664        -562.2209548977     SG+        A1 (1)
    2     2         -11.4677067750        -312.0521657735     SG+        A1 (1)
    3     3          -1.3614407280         -37.0466856252     SG+        A1 (1)
    4     4          -0.7933165805         -21.5872416290     SG+        A1 (1)
    5     5          -0.5617446220         -15.2858482810     SG+        A1 (1)
    6   139          -0.5448883336         -14.8271653546      PI        B2 (3)
    7    87          -0.5448883336         -14.8271653546      PI        B1 (2)
  +++++++++++++++++++++++++++++++++++++++++++++++++++++++++++++++++++++++++++++
    8   140           0.0337155206           0.9174459584      PI        B2 (3)
    9    88           0.0337155206           0.9174459584      PI        B1 (2)
   10     6           0.0636693726           1.7325317075     SG+        A1 (1)
   11     7           0.0695592733           1.8928040535     SG+        A1 (1)
   12    89           0.0905398778           2.4637153268      PI        B1 (2)
   13   141           0.0905398778           2.4637153268      PI        B2 (3)
   14     8           0.1565418351           4.2597198932     SG+        A1 (1)
   15    90           0.1720081683           4.6805802165      PI        B1 (2)
   16   142           0.1720081683           4.6805802165      PI        B2 (3)
   17     9           0.2250615638           6.1242365012     SG+        A1 (1)
   18    10           0.2257402201           6.1427036788      DE        A1 (1)
   19   191           0.2257402201           6.1427036788      DE        A2 (4)
   20    91           0.2979928219           8.1087969278      PI        B1 (2)
   21   143           0.2979928219           8.1087969278      PI        B2 (3)
   22    11           0.2994880864           8.1494851429     SG+        A1 (1)
   23    12           0.3691793797          10.0458816445     SG+        A1 (1)
   24    92           0.3989011967          10.8546534009      PI        B1 (2)
   25   144           0.3989011967          10.8546534010      PI        B2 (3)
   26    13           0.4932491259          13.4219910768     SG+        A1 (1)
   27    14           0.5117318282          13.9249309750     SG+        A1 (1)
   28    15           0.5464480468          14.8696073098      DE        A1 (1)
   29   192           0.5464480468          14.8696073098      DE        A2 (4)
   30   145           0.6247428512          17.0001172494      PI        B2 (3)
   31    93           0.6247428512          17.0001172494      PI        B1 (2)
   32    16           0.7353746983          20.0105628588     SG+        A1 (1)
   33   146           0.7406779210          20.1548708855      PH        B2 (3)
   34    94           0.7406779210          20.1548708855      PH        B1 (2)
   35    17           0.7528713523          20.4866710178      DE        A1 (1)
   36   193           0.7528713523          20.4866710178      DE        A2 (4)
   37   147           0.7936229623          21.5955787034      PI        B2 (3)
   38    95           0.7936229623          21.5955787034      PI        B1 (2)
   39    18           0.8253767637          22.4596435657     SG+        A1 (1)
   40    19           0.8676971699          23.6112403661     SG+        A1 (1)
   41   194           0.8748151951          23.8049316776      DE        A2 (4)
   42    20           0.8748151951          23.8049316776      DE        A1 (1)
   43   148           0.8977346021          24.4286004497      PI        B2 (3)
   44    96           0.8977346021          24.4286004497      PI        B1 (2)
   45   149           1.0346800606          28.1550758256      PI        B2 (3)
   46    97           1.0346800606          28.1550758256      PI        B1 (2)
   47    21           1.1230857145          30.5607159679     SG+        A1 (1)
   48    22           1.4017490773          38.1435315727     SG+        A1 (1)
   49   150           1.4291424126          38.8889421234      PH        B2 (3)
   50    98           1.4291424126          38.8889421234      PH        B1 (2)
   51   151           1.5565741272          42.3565353661      PI        B2 (3)
   52    99           1.5565741272          42.3565353661      PI        B1 (2)
   53    23           1.5620497534          42.5055347305      DE        A1 (1)
   54   195           1.5620497534          42.5055347305      DE        A2 (4)
   55    24           1.6335872129          44.4521679663     SG+        A1 (1)
   56   152           1.6494565274          44.8839939682      PI        B2 (3)
   57   100           1.6494565274          44.8839939682      PI        B1 (2)
   58   196           1.7183721621          46.7592837270      DE        A2 (4)
   59    25           1.7183721621          46.7592837270      DE        A1 (1)
   60    26           1.8774322168          51.0875278581     SG+        A1 (1)
   61    27           2.0112953716          54.7301294870     SG+        A1 (1)
   62   153           2.0828136035          56.6762395157      PI        B2 (3)
   63   101           2.0828136035          56.6762395158      PI        B1 (2)
   64    28           2.0851302618          56.7392789925      PI        A1 (1)
   65   197           2.0851302618          56.7392789925      PI        A2 (4)
   66   198           2.1509267171          58.5296915650      DE        A2 (4)
   67    29           2.1509267171          58.5296915650      DE        A1 (1)
   68   154           2.2265926493          60.5886662556      PH        B2 (3)
   69   102           2.2265926493          60.5886662556      PH        B1 (2)
   70   103           2.2658135384          61.6559209071      PI        B1 (2)
   71   155           2.2658135384          61.6559209071      PI        B2 (3)
   72   104           2.2693278927          61.7515513498      PH        B1 (2)
   73   156           2.2693278927          61.7515513498      PH        B2 (3)
   74    30           2.2733648366          61.8614021775     SG+        A1 (1)
   75   199           2.3173508371          63.0583221007      DE        A2 (4)
   76    31           2.3173508371          63.0583221007      DE        A1 (1)
   77    32           2.4984311505          67.9857679349     SG+        A1 (1)
   78   157           2.5268450509          68.7589494718      PI        B2 (3)
   79   105           2.5268450509          68.7589494718      PI        B1 (2)
   80    33           2.6165541295          71.2000576049     SG+        A1 (1)
   81   158           2.6489884095          72.0826392336      PI        B2 (3)
   82   106           2.6489884095          72.0826392336      PI        B1 (2)
   83    34           2.7835622749          75.7445802802      DE        A1 (1)
   84   200           2.7835622749          75.7445802802      DE        A2 (4)
   85    35           3.2528149864          88.5135957251     SG+        A1 (1)
   86   159           3.5740204136          97.2540397541      PI        B2 (3)
   87   107           3.5740204136          97.2540397541      PI        B1 (2)
   88    36           3.7011139684         100.7124312002      PI        A1 (1)
   89   201           3.7011139684         100.7124312002      PI        A2 (4)
   90    37           3.9011241963         106.1549861952     SG+        A1 (1)
   91   160           4.0227869883         109.4655990741      PH        B2 (3)
   92   108           4.0227869883         109.4655990741      PH        B1 (2)
   93   109           4.1263956217         112.2849333225      PH        B1 (2)
   94   161           4.1263956217         112.2849333225      PH        B2 (3)
   95   162           4.1691867863         113.4493401087      PI        B2 (3)
   96   110           4.1691867863         113.4493401087      PI        B1 (2)
   97    38           4.2087304645         114.5253782972     SG+        A1 (1)
   98    39           4.2212238271         114.8653399762      DE        A1 (1)
   99   202           4.2212238271         114.8653399762      DE        A2 (4)
  100   203           4.2792799983         116.4451287094      DE        A2 (4)
  101    40           4.2792799983         116.4451287095      DE        A1 (1)
  102    41           4.4009019351         119.7546298624     SG+        A1 (1)
  103   111           4.7228998461         128.5166384716      PI        B1 (2)
  104   163           4.7228998461         128.5166384716      PI        B2 (3)
  105    42           4.8859651590         132.9538712216      DE        A1 (1)
  106   204           4.8859651590         132.9538712217      DE        A2 (4)
  107    43           4.9335909656         134.2498353044     SG+        A1 (1)
  108   164           5.0770027938         138.1522695461      PI        B2 (3)
  109   112           5.0770027938         138.1522695461      PI        B1 (2)
  110    44           5.3790041070         146.3701430652     SG+        A1 (1)
  111   165           5.4835946240         149.2161957236      PI        B2 (3)
  112   113           5.4835946240         149.2161957237      PI        B1 (2)
  113   205           5.8587761860         159.4254050524      PI        A2 (4)
  114    45           5.8587761860         159.4254050524      PI        A1 (1)
  115   166           5.9548817435         162.0405702237      PH        B2 (3)
  116   114           5.9548817435         162.0405702237      PH        B1 (2)
  117    46           6.1709162302         167.9191674690     SG+        A1 (1)
  118   206           6.1935284187         168.5344763995      DE        A2 (4)
  119    47           6.1935284187         168.5344763996      DE        A1 (1)
  120   167           6.2186594682         169.2183270222      PI        B2 (3)
  121   115           6.2186594682         169.2183270222      PI        B1 (2)
  122    48           6.3298985524         172.2452963928     SG+        A1 (1)
  123   168           6.3925457771         173.9500140416      PH        B2 (3)
  124   116           6.3925457771         173.9500140416      PH        B1 (2)
  125   207           6.5248312337         177.5496843202      DE        A2 (4)
  126    49           6.5248312337         177.5496843202      DE        A1 (1)
  127    50           6.5730115086         178.8607362530      DE        A1 (1)
  128   208           6.5730115086         178.8607362531      DE        A2 (4)
  129   169           6.9907169229         190.2270784294      PI        B2 (3)
  130   117           6.9907169229         190.2270784294      PI        B1 (2)
  131    51           7.2872273560         198.2955375073     SG+        A1 (1)
  132   170           7.7036786421         209.6277531194      PI        B2 (3)
  133   118           7.7036786421         209.6277531195      PI        B1 (2)
  134    52           8.2886336121         225.5451870798     SG+        A1 (1)
  135    53           9.7718774997         265.9063051834     SG+        A1 (1)
  136   119           9.9761271605         271.4642210117      PI        B1 (2)
  137   171           9.9761271605         271.4642210118      PI        B2 (3)
  138    54          10.6267931841         289.1697436463      PI        A1 (1)
  139   209          10.6267931841         289.1697436463      PI        A2 (4)
  140   172          10.7692480025         293.0461363253      PH        B2 (3)
  141   120          10.7692480025         293.0461363253      PH        B1 (2)
  142    55          10.7750323236         293.2035357042     SG+        A1 (1)
  143    56          11.0036804749         299.4253682141      DE        A1 (1)
  144   210          11.0036804749         299.4253682141      DE        A2 (4)
  145   121          11.0712445855         301.2638811324      PI        B1 (2)
  146   173          11.0712445855         301.2638811324      PI        B2 (3)
  147    57          11.3680752730         309.3410547745     SG+        A1 (1)
  148   122          11.8688441232         322.9676679525      PH        B1 (2)
  149   174          11.8688441232         322.9676679525      PH        B2 (3)
  150   211          12.0660427728         328.3337160105      DE        A2 (4)
  151    58          12.0660427728         328.3337160108      DE        A1 (1)
  152   123          12.5988818659         342.8330048653      PI        B1 (2)
  153   175          12.5988818659         342.8330048653      PI        B2 (3)
  154   212          12.7614867357         347.2577083200      DE        A2 (4)
  155    59          12.7614867357         347.2577083200      DE        A1 (1)
  156    60          12.8956721883         350.9090801171     SG+        A1 (1)
  157   176          13.1301581788         357.2897683064      PI        B2 (3)
  158   124          13.1301581788         357.2897683064      PI        B1 (2)
  159    61          13.9991211316         380.9354523745     SG+        A1 (1)
  160    62          17.5262304961         476.9129775849     SG+        A1 (1)
  161   177          18.9022585414         514.3566042949      PI        B2 (3)
  162   125          18.9022585414         514.3566042952      PI        B1 (2)
  163    63          20.3113584041         552.7001609094     SG+        A1 (1)
  164   213          26.3349015897         716.6091039578      DE        A2 (4)
  165    64          26.3349015897         716.6091039578      DE        A1 (1)
  166   178          26.7470329587         727.8237686526      PI        B2 (3)
  167   126          26.7470329587         727.8237686526      PI        B1 (2)
  168    65          27.2721740141         742.1135832493     SG+        A1 (1)
  169   127          33.6282218772         915.0704385601      PI        B1 (2)
  170   179          33.6282218772         915.0704385608      PI        B2 (3)
  171    66          34.3759139276         935.4161736107     SG+        A1 (1)
  172    67          36.0196385973         980.1441958015     SG+        A1 (1)
  173    68          47.0793173968        1281.0933558959      DE        A1 (1)
  174   214          47.0793173968        1281.0933558959      DE        A2 (4)
  175   180          47.2739571902        1286.3897739378      PI        B2 (3)
  176   128          47.2739571902        1286.3897739378      PI        B1 (2)
  177    69          47.8085867304        1300.9377833329     SG+        A1 (1)
  178    70          63.9148447516        1739.2113454880     SG+        A1 (1)
  179   181          66.4490632937        1808.1709378567      PI        B2 (3)
  180   129          66.4490632937        1808.1709378569      PI        B1 (2)
  181    71          67.4598603522        1835.6761241538     SG+        A1 (1)
  182   130          98.5635912564        2682.0516709586      PH        B1 (2)
  183   182          98.5635912564        2682.0516709586      PH        B2 (3)
  184   215          98.5772320140        2682.4228548437      DE        A2 (4)
  185    72          98.5772320140        2682.4228548437      DE        A1 (1)
  186   183          98.5980820248        2682.9902124826      PI        B2 (3)
  187   131          98.5980820248        2682.9902124826      PI        B1 (2)
  188    73          98.6181089980        2683.5351741289     SG+        A1 (1)
  189   184         103.2905775259        2810.6795066649      PH        B2 (3)
  190   132         103.2905775259        2810.6795066649      PH        B1 (2)
  191    74         103.3070400295        2811.1274741631      DE        A1 (1)
  192   216         103.3070400296        2811.1274741654      DE        A2 (4)
  193   185         103.3511033612        2812.3264983746      PI        B2 (3)
  194   133         103.3511033612        2812.3264983746      PI        B1 (2)
  195    75         103.3544445331        2812.4174162831     SG+        A1 (1)
  196    76         115.0266377473        3130.0339409536      DE        A1 (1)
  197   217         115.0266377473        3130.0339409537      DE        A2 (4)
  198   186         115.2244763164        3135.4174021090      PI        B2 (3)
  199   134         115.2244763164        3135.4174021090      PI        B1 (2)
  200    77         115.5080015390        3143.1325156462     SG+        A1 (1)
  201   135         116.9018383541        3181.0607436178      PI        B1 (2)
  202   187         116.9018383541        3181.0607436184      PI        B2 (3)
  203    78         117.5157206579        3197.7653303492     SG+        A1 (1)
  204    79         122.2065136778        3325.4082976645     SG+        A1 (1)
  205    80         198.5525859319        5402.8905408542      DE        A1 (1)
  206   218         198.5525859319        5402.8905408543      DE        A2 (4)
  207   188         198.6573326343        5405.7408435345      PI        B2 (3)
  208   136         198.6573326343        5405.7408435346      PI        B1 (2)
  209    81         198.9382363423        5413.3846220295     SG+        A1 (1)
  210    82         216.4459630001        5889.7940845776     SG+        A1 (1)
  211   189         224.9106564201        6120.1301025934      PI        B2 (3)
  212   137         224.9106564201        6120.1301025935      PI        B1 (2)
  213    83         225.6974564368        6141.5400195069     SG+        A1 (1)
  214   138         395.3816514575       10758.8817071364      PI        B1 (2)
  215   190         395.3816514576       10758.8817071372      PI        B2 (3)
  216    84         395.9073732325       10773.1873239168     SG+        A1 (1)
  217    85         508.8450860431       13846.3787275243     SG+        A1 (1)
  218    86         895.2786509944       24361.7706220440     SG+        A1 (1)


  VSCF finished.

 @CHECKOUT-I, Total execution time (CPU/WALL):       51.86/      10.51 seconds.
--executable xvscf finished with status     0 in       10.53 seconds (walltime).
 --invoking executable--
/nfs/workspaces/public/cfour_mpi/bin/xvtran
 @GETMEM-I,  Allocated    3814 MB of main memory.
  Full RHF integral transformation
  Transformation of IIII integrals :
  1 pass through the AO integral file was required.
     4497928 AO integrals were read.
     8735394 MO integrals were written to HF2.
  Transformation of IIJJ integrals :
  1 pass through the AO integral file was required.
    10209152 AO integrals were read.
    14504085 MO integrals were written to HF2.
  Transformation of IJIJ integrals :
  1 pass through the AO integral file was required.
    19389670 AO integrals were read.
    27116168 MO integrals were written to HF2.
  Transformation of IJKL integrals :
  1 pass through the AO integral file was required.
    14352678 AO integrals were read.
    18331831 MO integrals were written to HF2.
  Summary of active molecular orbitals: 
------------------------------------------------------------------------
 
  Index      Eigenvalue    Symmetry    Index      Eigenvalue    Symmetry
------------------------------------------------------------------------
     1       -20.6612412        1       110         4.1263956        2
     2       -11.4677068        1       111         4.1691868        2
     3        -1.3614407        1       112         4.7228998        2
     4        -0.7933166        1       113         5.0770028        2
     5        -0.5617446        1       114         5.4835946        2
     6        -0.5448883        2       115         5.9548817        2
     7        -0.5448883        3       116         6.2186595        2
     8         0.0636694        1       117         6.3925458        2
     9         0.0695593        1       118         6.9907169        2
    10         0.1565418        1       119         7.7036786        2
    11         0.2250616        1       120         9.9761272        2
    12         0.2257402        1       121        10.7692480        2
    13         0.2994881        1       122        11.0712446        2
    14         0.3691794        1       123        11.8688441        2
    15         0.4932491        1       124        12.5988819        2
    16         0.5117318        1       125        13.1301582        2
    17         0.5464480        1       126        18.9022585        2
    18         0.7353747        1       127        26.7470330        2
    19         0.7528714        1       128        33.6282219        2
    20         0.8253768        1       129        47.2739572        2
    21         0.8676972        1       130        66.4490633        2
    22         0.8748152        1       131        98.5635913        2
    23         1.1230857        1       132        98.5980820        2
    24         1.4017491        1       133       103.2905775        2
    25         1.5620498        1       134       103.3511034        2
    26         1.6335872        1       135       115.2244763        2
    27         1.7183722        1       136       116.9018384        2
    28         1.8774322        1       137       198.6573326        2
    29         2.0112954        1       138       224.9106564        2
    30         2.0851303        1       139       395.3816515        2
    31         2.1509267        1       140         0.0337155        3
    32         2.2733648        1       141         0.0905399        3
    33         2.3173508        1       142         0.1720082        3
    34         2.4984312        1       143         0.2979928        3
    35         2.6165541        1       144         0.3989012        3
    36         2.7835623        1       145         0.6247429        3
    37         3.2528150        1       146         0.7406779        3
    38         3.7011140        1       147         0.7936230        3
    39         3.9011242        1       148         0.8977346        3
    40         4.2087305        1       149         1.0346801        3
    41         4.2212238        1       150         1.4291424        3
    42         4.2792800        1       151         1.5565741        3
    43         4.4009019        1       152         1.6494565        3
    44         4.8859652        1       153         2.0828136        3
    45         4.9335910        1       154         2.2265926        3
    46         5.3790041        1       155         2.2658135        3
    47         5.8587762        1       156         2.2693279        3
    48         6.1709162        1       157         2.5268451        3
    49         6.1935284        1       158         2.6489884        3
    50         6.3298986        1       159         3.5740204        3
    51         6.5248312        1       160         4.0227870        3
    52         6.5730115        1       161         4.1263956        3
    53         7.2872274        1       162         4.1691868        3
    54         8.2886336        1       163         4.7228998        3
    55         9.7718775        1       164         5.0770028        3
    56        10.6267932        1       165         5.4835946        3
    57        10.7750323        1       166         5.9548817        3
    58        11.0036805        1       167         6.2186595        3
    59        11.3680753        1       168         6.3925458        3
    60        12.0660428        1       169         6.9907169        3
    61        12.7614867        1       170         7.7036786        3
    62        12.8956722        1       171         9.9761272        3
    63        13.9991211        1       172        10.7692480        3
    64        17.5262305        1       173        11.0712446        3
    65        20.3113584        1       174        11.8688441        3
    66        26.3349016        1       175        12.5988819        3
    67        27.2721740        1       176        13.1301582        3
    68        34.3759139        1       177        18.9022585        3
    69        36.0196386        1       178        26.7470330        3
    70        47.0793174        1       179        33.6282219        3
    71        47.8085867        1       180        47.2739572        3
    72        63.9148448        1       181        66.4490633        3
    73        67.4598604        1       182        98.5635913        3
    74        98.5772320        1       183        98.5980820        3
    75        98.6181090        1       184       103.2905775        3
    76       103.3070400        1       185       103.3511034        3
    77       103.3544445        1       186       115.2244763        3
    78       115.0266377        1       187       116.9018384        3
    79       115.5080015        1       188       198.6573326        3
    80       117.5157207        1       189       224.9106564        3
    81       122.2065137        1       190       395.3816515        3
    82       198.5525859        1       191         0.2257402        4
    83       198.9382363        1       192         0.5464480        4
    84       216.4459630        1       193         0.7528714        4
    85       225.6974564        1       194         0.8748152        4
    86       395.9073732        1       195         1.5620498        4
    87       508.8450860        1       196         1.7183722        4
    88       895.2786510        1       197         2.0851303        4
    89         0.0337155        2       198         2.1509267        4
    90         0.0905399        2       199         2.3173508        4
    91         0.1720082        2       200         2.7835623        4
    92         0.2979928        2       201         3.7011140        4
    93         0.3989012        2       202         4.2212238        4
    94         0.6247429        2       203         4.2792800        4
    95         0.7406779        2       204         4.8859652        4
    96         0.7936230        2       205         5.8587762        4
    97         0.8977346        2       206         6.1935284        4
    98         1.0346801        2       207         6.5248312        4
    99         1.4291424        2       208         6.5730115        4
   100         1.5565741        2       209        10.6267932        4
   101         1.6494565        2       210        11.0036805        4
   102         2.0828136        2       211        12.0660428        4
   103         2.2265926        2       212        12.7614867        4
   104         2.2658135        2       213        26.3349016        4
   105         2.2693279        2       214        47.0793174        4
   106         2.5268451        2       215        98.5772320        4
   107         2.6489884        2       216       103.3070400        4
   108         3.5740204        2       217       115.0266377        4
   109         4.0227870        2       218       198.5525859        4
------------------------------------------------------------------------
  -20.6612411663600       -11.4677067750068       -1.36144072796970     
 -0.793316580477979      -0.561744621957063      -0.544888333557030     
 -0.544888333557074       6.366937255886165E-002  6.955927325139721E-002
  0.156541835105660       0.225061563799574       0.225740220132095     
  0.299488086404195       0.369179379705420       0.493249125909044     
  0.511731828195330       0.546448046804038       0.735374698326012     
  0.752871352281085       0.825376763672041       0.867697169929740     
  0.874815195084495        1.12308571448460        1.40174907728830     
   1.56204975343253        1.63358721285387        1.71837216210719     
   1.87743221677349        2.01129537159061        2.08513026178865     
   2.15092671712461        2.27336483662599        2.31735083710212     
   2.49843115050534        2.61655412950654        2.78356227490391     
   3.25281498643474        3.70111396836239        3.90112419625138     
   4.20873046451505        4.22122382709124        4.27927999829126     
   4.40090193512110        4.88596515903831        4.93359096562438     
   5.37900410698125        5.85877618601378        6.17091623019197     
   6.19352841868209        6.32989855241394        6.52483123368901     
   6.57301150859677        7.28722735600655        8.28863361205741     
   9.77187749974523        10.6267931841442        10.7750323235742     
   11.0036804749189        11.3680752730300        12.0660427727742     
[...]
 Convergence information after    14 iterations: 
 Largest element of residual vector : -0.10395368E-05.
 Largest element of DIIS residual   : -0.62759706E-06.
 Convergence information after    15 iterations: 
 Largest element of residual vector : -0.44760206E-06.
 Largest element of DIIS residual   : -0.29015239E-06.
 Convergence information after    16 iterations: 
 Largest element of residual vector : -0.26724632E-06.
 Largest element of DIIS residual   : -0.11534524E-06.
 Convergence information after    17 iterations: 
 Largest element of residual vector : -0.66780439E-07.
 Largest element of DIIS residual   :  0.25808386E-07.
 Perturbed amplitude equations converged in    17 iterations.
  Dominant contributions to perturbed wavefunction:
    7    7  140   28   0.2475783741 ABAB
    7    7   28  140   0.2475783741 ABAB
    7    7  140   39  -0.2190443662 ABAB
    7    7   39  140  -0.2190443662 ABAB
    7    7  140   54  -0.1721523028 ABAB
    7    7   54  140  -0.1721523028 ABAB
    7    6   28   89   0.1575448677 ABAB
    6    7   89   28   0.1575448677 ABAB
    7    7  140   21  -0.1471898908 ABAB
    7    7   21  140  -0.1471898908 ABAB
    7    7  140   45   0.1448677852 ABAB
    7    7   45  140   0.1448677852 ABAB
    7    7  140   20  -0.1442869653 ABAB
    7    7   20  140  -0.1442869653 ABAB
    7    6   39   89  -0.1400064549 ABAB
    6    7   89   39  -0.1400064549 ABAB
    7    7  141   28   0.1336215582 ABAB
    7    7   28  141   0.1336215582 ABAB
    7    7  140   24   0.1276681860 ABAB
    7    7   24  140   0.1276681860 ABAB
  norm of converged amps    1.90944941531532     
 Starting iterative solution of the perturbed Lambda equations.
 The DIIS procedure is used to accelerate convergence.
 Convergence criterion is 10**(-7).
 Maximum number of iterations is 100.
 Convergence information after     1 iterations: 
 Largest element of residual vector :  0.62851456E-01.
 Largest element of DIIS residual   :  0.62851456E-01.
 Convergence information after     2 iterations: 
 Largest element of residual vector : -0.13574610E-01.
 Largest element of DIIS residual   : -0.84075752E-02.
 Convergence information after     3 iterations: 
 Largest element of residual vector :  0.56866171E-02.
 Largest element of DIIS residual   :  0.51776866E-02.
 Convergence information after     4 iterations: 
 Largest element of residual vector :  0.35932024E-02.
 Largest element of DIIS residual   :  0.31415764E-02.
 Convergence information after     5 iterations: 
 Largest element of residual vector :  0.26166704E-02.
 Largest element of DIIS residual   :  0.16064721E-02.
 Convergence information after     6 iterations: 
 Largest element of residual vector :  0.10833157E-02.
 Largest element of DIIS residual   :  0.45367334E-03.
 Convergence information after     7 iterations: 
 Largest element of residual vector :  0.44243579E-03.
 Largest element of DIIS residual   : -0.16006607E-03.
 Convergence information after     8 iterations: 
 Largest element of residual vector :  0.10725611E-03.
 Largest element of DIIS residual   :  0.80912082E-04.
 Convergence information after     9 iterations: 
 Largest element of residual vector :  0.49037086E-04.
 Largest element of DIIS residual   :  0.13528433E-04.
 Convergence information after    10 iterations: 
 Largest element of residual vector :  0.11105815E-04.
 Largest element of DIIS residual   : -0.59198207E-05.
 Convergence information after    11 iterations: 
 Largest element of residual vector : -0.34377938E-05.
 Largest element of DIIS residual   : -0.22487754E-05.
 Convergence information after    12 iterations: 
 Largest element of residual vector : -0.21487452E-05.
 Largest element of DIIS residual   : -0.17171023E-05.
 Convergence information after    13 iterations: 
 Largest element of residual vector : -0.12765821E-05.
 Largest element of DIIS residual   : -0.10170847E-05.
 Convergence information after    14 iterations: 
 Largest element of residual vector : -0.95172188E-06.
 Largest element of DIIS residual   : -0.73599992E-06.
 Convergence information after    15 iterations: 
 Largest element of residual vector : -0.51412107E-06.
 Largest element of DIIS residual   : -0.32810042E-06.
 Convergence information after    16 iterations: 
 Largest element of residual vector : -0.29604122E-06.
 Largest element of DIIS residual   : -0.14214529E-06.
 Convergence information after    17 iterations: 
 Largest element of residual vector : -0.88387224E-07.
 Largest element of DIIS residual   : -0.38104018E-07.
 Perturbed Lambda equations converged in    17 iterations.
  Dominant contributions to perturbed wavefunction:
    7    7  140   28   0.2230767359 ABAB
    7    7   28  140   0.2230767359 ABAB
    7    7  140   39  -0.1949253146 ABAB
    7    7   39  140  -0.1949253146 ABAB
    7    7  140   54  -0.1563590073 ABAB
    7    7   54  140  -0.1563590073 ABAB
    7    6   28   89   0.1394516457 ABAB
    6    7   89   28   0.1394516457 ABAB
    7    7  140   21  -0.1319173789 ABAB
    7    7   21  140  -0.1319173789 ABAB
    7    7  140   45   0.1287322946 ABAB
    7    7   45  140   0.1287322946 ABAB
    7    7  140   20  -0.1273331170 ABAB
    7    7   20  140  -0.1273331170 ABAB
    7    6   39   89  -0.1224592169 ABAB
    6    7   89   39  -0.1224592169 ABAB
    7    7  141   28   0.1190388236 ABAB
    7    7   28  141   0.1190388236 ABAB
    7    7  140   57   0.1123235502 ABAB
    7    7   57  140   0.1123235502 ABAB
        The DBOC first-order density matrix is being calculated 
             (Symmetry block 3, perturbation   2)
 term   4.04969790884833     
 final tnorm  0.846709733749740     
  norm contr. I: |<0|L dT/dx|0>|^2   0.000000000000000E+000
  norm contr. II: <0|[nabla(1+L)e-T][nabla e^T]|0>   4.04969790884833     
  total norm contribution   4.04969790884833     
 oo  8.049355464487058E-003
 vv  -30.3490770042846     
 vo  7.269659304307650E-002
  Correlated perturbed 1-el contribution to DBOC  -30.2683310557770       cm**-1
  SUM_I |dc_I/dx|^2 contribution to DBOC   15.2459366245656       cm**-1
 
 
  The total diagonal Born-Oppenheimer correction (DBOC) is:      0.0041393047 a.u.
  The total diagonal Born-Oppenheimer correction (DBOC) is:        908.472367 cm-1
 
 Total CC energy including DBOC  -113.184006432138     
 First-order density matrix is being calculated  (Symmetry block 3, perturbation   2)
 Calculation of the contributions of <pq||rs> to dI(i,j)/dx required   1.4 seconds.
 Calculation of the contributions of <pq||rs> to dI(a,b)/dx required  12.9 seconds.
 Calculation of the contributions of <pq||rs> to dI(i,a)/dx required   8.7 seconds.
 First-order Z-vector equations are solved for 1 perturbation.
 Convergence reached after  20 iterations.
        U*G(pq,rs) contribution is being calculated
             (Symmetry block 3, perturbation   2)

 CCSD contribution to force constants 

        0.0000000000        0.0000000000        0.0000000000
        0.0000000000        0.0000000000        0.0000000000
        0.0000000000        0.0000000000        0.0000000000
        0.0000000000        0.0000000000        0.0000000000
        0.0000000000        0.0000000000        0.0000000000
        0.0000000000        0.0000000000        0.0000000000
        0.0000000000        0.0000000000        0.0000000000
        0.0000000000        0.0000000000        0.0000000000
        0.0000000000        0.0000000000        0.0000000000
        0.0000000000        0.0000000000        0.0000000000
        0.0000000000        0.0000000000        0.0000000000
        0.0000000000        0.2452095043       -0.2452095043

 CCSD contribution to dipole derivatives 

        0.0000000000        0.0000000000        0.0000000000
        0.0000000000        0.0000000000        0.0000000000
        0.0000000000        0.0000000000        0.0000000000
        0.0000000000        0.0000000000       -0.0542939260
        0.0000000000        0.0000000000        0.0000000000
        0.0000000000        0.0000000000        0.0000000000
 @CHECKOUT-I, Total execution time (CPU/WALL):      990.27/     203.08 seconds.
--executable xsdcc finished with status     0 in      203.12 seconds (walltime).
 --invoking executable--
/nfs/workspaces/public/cfour_mpi/bin/xanti
 @GETMEM-I,  Allocated    3814 MB of main memory.
 CCSD MO derivative gammas will be sorted to Mulliken order.
 @CHECKOUT-I, Total execution time (CPU/WALL):        9.75/      23.84 seconds.
--executable xanti finished with status     0 in       23.86 seconds (walltime).
 --invoking executable--
/nfs/workspaces/public/cfour_mpi/bin/xbcktrn
 @GETMEM-I,  Allocated    3814 MB of main memory.
 CCSD MO derivative gammas will be transformed to the AO basis.
 @CHECKOUT-I, Total execution time (CPU/WALL):       16.93/       2.73 seconds.
--executable xbcktrn finished with status     0 in        2.76 seconds (walltime).
 --invoking executable--
/nfs/workspaces/public/cfour_mpi/bin/xvdint
 @GETMEM-I,  Allocated    3814 MB of main memory.
 One- and two-electron integral derivatives are calculated
 for RHF-CC/MBPT hessians and dipole derivatives.
 Spherical gaussians are used.
  magnet F F
                    8722  records have been written to the Sort file.
  Total length of Sort file :             178609116  words.
 Evaluation of 2el integral derivatives

                      Two-electron integral gradient
                      ------------------------------

                         C #1 z     0.0000000000
                         O #2 z     0.0000000000


 C #1       0.0000000000           -0.0642405043            0.0000000000
 O #2       0.0000000000            0.0642405043            0.0000000000


 Evaluation of 2e integral derivatives required  253.83 seconds.
  contribution to Hessian
        0.0000000000        0.0000000000        0.0000000000
        0.0000000000       -0.0642405043        0.0642405043
 @CHECKOUT-I, Total execution time (CPU/WALL):      253.82/      58.84 seconds.
--executable xvdint finished with status     0 in       58.88 seconds (walltime).
 --invoking executable--
/nfs/workspaces/public/cfour_mpi/bin/xanti
 @GETMEM-I,  Allocated    3814 MB of main memory.
 CCSD MO gammas will be sorted to Mulliken order.
 @CHECKOUT-I, Total execution time (CPU/WALL):       10.38/       8.98 seconds.
--executable xanti finished with status     0 in        9.01 seconds (walltime).
 --invoking executable--
/nfs/workspaces/public/cfour_mpi/bin/xbcktrn
 @GETMEM-I,  Allocated    3814 MB of main memory.
 CCSD MO gammas will be transformed to the AO basis.
 @CHECKOUT-I, Total execution time (CPU/WALL):       23.56/       4.47 seconds.
--executable xbcktrn finished with status     0 in        4.50 seconds (walltime).
 --invoking executable--
/nfs/workspaces/public/cfour_mpi/bin/xvdint
 @GETMEM-I,  Allocated    3814 MB of main memory.
 One- and two-electron integral derivatives are calculated
 for RHF-CC/MBPT hessians and dipole derivatives.
 Spherical gaussians are used.
  magnet F F

                     Kinetic energy integral gradient
                     --------------------------------

                         C #1 z    -0.8270069719
                         O #2 z     0.8270069719


 C #1       0.0000000000            0.0000000000           -0.8270069719
 O #2       0.0000000000            0.0000000000            0.8270069719



                   Nuclear attraction integral gradient
                   ------------------------------------

                         C #1 z    17.1906570851
                         O #2 z   -17.1906570851


 C #1       0.0000000000            0.0000000000           17.1906570851
 O #2       0.0000000000            0.0000000000          -17.1906570851



                      Reorthonormalization gradient
                      -----------------------------

                         C #1 z     0.0000000000
                         O #2 z     0.0000000000


 C #1       0.0000000000            0.0000000000            0.0000000000
 O #2       0.0000000000            0.0000000000            0.0000000000



                     Kinetic energy integral Hessian
                     -------------------------------


           Symmetry 1

           C #1 z      O #2 z

 C #1 z    0.826303
 O #2 z   -0.826303    0.826303


           Symmetry 2

           C #1 x      O #2 x

 C #1 x   -0.775860
 O #2 x    0.775860   -0.775860


           Symmetry 3

           C #1 y      O #2 y

 C #1 y   -0.775860
 O #2 y    0.775860   -0.775860




           C #1 x      C #1 y      C #1 z      O #2 x      O #2 y      O #2 z

 C #1 x   -0.775860
 C #1 y    0.000000   -0.775860
 C #1 z    0.000000    0.000000    0.826303

 O #2 x    0.775860    0.000000    0.000000   -0.775860
 O #2 y    0.000000    0.775860    0.000000    0.000000   -0.775860
 O #2 z    0.000000    0.000000   -0.826303    0.000000    0.000000    0.826303




                   Nuclear attraction integral Hessian
                   -----------------------------------


           Symmetry 1

           C #1 z      O #2 z

 C #1 z  -10.649311
 O #2 z   10.649311  -10.649311


           Symmetry 2

           C #1 x      O #2 x

 C #1 x   11.172992
 O #2 x  -11.172992   11.172992


           Symmetry 3

           C #1 y      O #2 y

 C #1 y   11.172992
 O #2 y  -11.172992   11.172992




           C #1 x      C #1 y      C #1 z      O #2 x      O #2 y      O #2 z

 C #1 x   11.172992
 C #1 y    0.000000   11.172992
 C #1 z    0.000000    0.000000  -10.649311

 O #2 x  -11.172992    0.000000    0.000000   11.172992
 O #2 y    0.000000  -11.172992    0.000000    0.000000   11.172992
 O #2 z    0.000000    0.000000   10.649311    0.000000    0.000000  -10.649311




                Highest order reorthonormalization Hessian
                ------------------------------------------


           Symmetry 1

           C #1 z      O #2 z

 C #1 z    0.000000
 O #2 z    0.000000    0.000000


           Symmetry 2

           C #1 x      O #2 x

 C #1 x    0.000000
 O #2 x    0.000000    0.000000


           Symmetry 3

           C #1 y      O #2 y

 C #1 y    0.000000
 O #2 y    0.000000    0.000000




           C #1 x      C #1 y      C #1 z      O #2 x      O #2 y      O #2 z




                Electronic contributions to dipole moment
                -----------------------------------------

                               au             Debye

                    z      0.28509789      0.72464668

  Conversion factor used: 1 a.u. =   2.54174691 Debye 



   Electronic contributions to static part of dipole moment derivatives
   --------------------------------------------------------------------


                     Total dipole moment derivatives
                     -------------------------------


           Symmetry 1
                              Ez

               C #1 z    -5.64736976
               O #2 z    -8.35263024

           Symmetry 2
                              Ex

               C #1 x    -5.67970216
               O #2 x    -8.32029784

           Symmetry 3
                              Ey

               C #1 y    -5.67970216
               O #2 y    -8.32029784



                       Ex          Ey          Ez

      C #1    x   -5.679702    0.000000    0.000000
      C #1    y    0.000000   -5.679702    0.000000
      C #1    z    0.000000    0.000000   -5.647370

      O #2    x   -8.320298    0.000000    0.000000
      O #2    y    0.000000   -8.320298    0.000000
      O #2    z    0.000000    0.000000   -8.352630

 Evaluation of 1e integral derivatives required    1.59 seconds.
                    8815  records have been written to the Sort file.
  Total length of Sort file :             180513570  words.
 Evaluation of 2el integral derivatives

                      Two-electron integral gradient
                      ------------------------------

                         C #1 z    -8.8015267496
                         O #2 z     8.8015267496


 C #1       0.0000000000            0.0000000000           -8.8015267496
 O #2       0.0000000000            0.0000000000            8.8015267496


 Evaluation of 2e integral derivatives required  540.45 seconds.

                            Molecular gradient
                            ------------------

                         C #1 z     0.6703772402
                         O #2 z    -0.6703772402


 C #1       0.0000000000            0.0000000000            0.6703772402
 O #2       0.0000000000            0.0000000000           -0.6703772402


  Molecular gradient norm 0.948E+00

                            Molecular hessian
                            -----------------


           Symmetry 1

           C #1 z      O #2 z

 C #1 z   31.076813
 O #2 z  -31.076813   31.076813


           Symmetry 2

           C #1 x      O #2 x

 C #1 x    0.105601
 O #2 x   -0.105601    0.105601


           Symmetry 3

           C #1 y      O #2 y

 C #1 y    0.105601
 O #2 y   -0.105601    0.105601




           C #1 x      C #1 y      C #1 z      O #2 x      O #2 y      O #2 z

 C #1 x    0.105601
 C #1 y    0.000000    0.105601
 C #1 z    0.000000    0.000000   31.076813

 O #2 x   -0.105601    0.000000    0.000000    0.105601
 O #2 y    0.000000   -0.105601    0.000000    0.000000    0.105601
 O #2 z    0.000000    0.000000  -31.076813    0.000000    0.000000   31.076813




                           Total dipole moment
                           -------------------

                               au             Debye

                    z      0.28222148      0.71733558

  Conversion factor used: 1 a.u. =   2.54174691 Debye 



                     Total dipole moment derivatives
                     -------------------------------


           Symmetry 1
                              Ez

               C #1 z     0.67349138
               O #2 z    -0.67349138

           Symmetry 2
                              Ex

               C #1 x     0.10825362
               O #2 x    -0.10825362

           Symmetry 3
                              Ey

               C #1 y     0.10825362
               O #2 y    -0.10825362



                       Ex          Ey          Ez

      C #1    x    0.108254    0.000000    0.000000
      C #1    y    0.000000    0.108254    0.000000
      C #1    z    0.000000    0.000000    0.673491

      O #2    x   -0.108254    0.000000    0.000000
      O #2    y    0.000000   -0.108254    0.000000
      O #2    z    0.000000    0.000000   -0.673491

 @CHECKOUT-I, Total execution time (CPU/WALL):      542.03/      93.92 seconds.
--executable xvdint finished with status     0 in       93.95 seconds (walltime).
 --invoking executable--
/nfs/workspaces/public/cfour_mpi/bin/xjoda
  @GTFLGS-I, Hessian will be transformed to curvilinear coordinates.
  @GTFLGS-I, Hessian will be transformed to curvilinear coordinates.
  igrd and ihes are                      0                     1
  gradient from JOBARC 
   0.000000000000000   0.000000000000000   0.670377240164754
   0.000000000000000   0.000000000000000  -0.670377240164754
 
  @PROJFCM-I, Projecting force constant matrix onto totally symmetric subspace.
  Largest difference between matrix elements of symmetrized
  and unsymmetrized FCM :     0.3383127112E-12.
  read isotopes from ZMAT file 
 
  Summary of diagonal Born-Oppenheimer correction at the correlated level
  The total diagonal Born-Oppenheimer correction (DBOC) is:      0.0041393047 a.u.
  The total diagonal Born-Oppenheimer correction (DBOC) is:        908.472367 cm-1
  The total diagonal Born-Oppenheimer correction (DBOC) is:            10.868 kJ/mole
  hellooooooo 
  readis is  F
 
 @CHECKOUT-I, Total execution time (CPU/WALL):        0.01/       0.01 seconds.
--executable xjoda finished with status     0 in        0.03 seconds (walltime).
  The final electronic energy is      -113.184006432137906 a.u. 
  This computation required                         2261.43 seconds (walltime).
