 --invoking executable--
/nfs/workspaces/public/cfour_mpi/bin/xjoda


   *************************************************************************
         <<<     CCCCCC     CCCCCC   |||     CCCCCC     CCCCCC   >>>
       <<<      CCC        CCC       |||    CCC        CCC         >>>
      <<<      CCC        CCC        |||   CCC        CCC            >>>
    <<<        CCC        CCC        |||   CCC        CCC              >>>
      <<<      CCC        CCC        |||   CCC        CCC            >>>
       <<<      CCC        CCC       |||    CCC        CCC         >>>
         <<<     CCCCCC     CCCCCC   |||     CCCCCC     CCCCCC   >>>
   *************************************************************************

     ****************************************************************
     * CFOUR Coupled-Cluster techniques for Computational Chemistry *
     ****************************************************************
 

   Department of Chemistry                Institut fuer Physikalische Chemie
   University of Florida                  Universitaet Mainz
   Gainesville, FL 32611, USA             D-55099 Mainz, Germany

   Department of Chemistry                Fakultaet fuer Chemie und Biowiss.
   Johns Hopkins University               Karlsruher Institut fuer Technologie
   Baltimore, MD 21218, USA               D-76131 Karlsruhe, Germany

   Department of Chemistry                Department of Physical Chemistry
   Southern Methodist University          Eotvos Lorand University
   Dallas, TX 75275, USA                  H-1053 Budapest, Hungary

 
                       Version 2.1
 
                     vincent.theory.phys.ucl.ac.uk                     
                     Tue 25 Feb 06:34:13 GMT 2025                      
                     integer*8 version is running
 
********************************************************************************
*                          Input from ZMAT file                                *
********************************************************************************
Carbon Monoxide DBOC calculation                                                
C                                                                               
O 1 r                                                                           
                                                                                
r=1.2724137931034483                                                            
                                                                                
                                                                                
*CFOUR(CALC=CCSD,BASIS=AUG-PCVQZ,SCF_CONV=10                                    
CC_CONV=14,DBOC=ON,MEMORY=500000000                                             
ZFIELD=200)                                                                     
                                                                                
%isotopes                                                                       
12                                                                              
16                                                                              
********************************************************************************
  @GTFLGS-I, Hessian will be transformed to curvilinear coordinates.
    -------------------------------------------------------------------
                    CFOUR Control Parameters 
    -------------------------------------------------------------------
        External           Internal           Value            Units
          Name               Name
    -------------------------------------------------------------------
       ABCDTYPE             IABCDT         STANDARD    [  0]    ***   
       ANHARMONIC           IANHAR         OFF         [  0]    ***   
       ANH_ALGORIT          IANALG         STANDARD    [  0]    ***   
       ANH_DERIVAT          IANDER         SECOND      [  1]    ***   
       ANH_MODE             ANHMOD         VIBRATION   [  0]    ***   
       ANH_STEPSIZ          ICUBST             50000          x 10-6  
       ANH_SYMMETR          IANHSM         ABELIAN     [  0]    ***   
       AO_LADDERS           IAOLAD         SINGLEPASS  [  1]    ***   
       AV_SCF               IAVSCF         OFF         [  0]    ***   
       BASIS                IBASIS         AUG-PCVQZ   [ 52]    ***   
       BOTHVECTORS          BOTHVC         OFF         [  0]    ***   
       BOX_POTENT           IPIAB          OFF         [  0]    ***   
       BREIT                IBREIT         OFF         [  0]    ***   
       BRUCK_CONV           IBRTOL          10D-  4             ***   
       BRUECKNER            IBRKNR         OFF         [  0]    ***   
       BUFFERSIZE           IBUFFS              4096            ***   
       CACHE_RECS           ICHREC             10               ***   
       CALCLEVEL            ICLLVL         CCSD        [ 10]    ***   
       CCORBOPT             ICCORB         OFF         [  0]  x 0.01  
       CC_CONV              ICCCNV          10D- 14             ***   
       CC_EXPORDER          ICCEOR              5               ***   
       CC_EXTRAPOL          ICCEXT         DIIS        [  1]    ***   
       CC_GUESS             ICCGES         MP2         [  0]    ***   
       CC_MAXCYC            ICCCYC            100              cycles 
       CC_PROGRAM           ICCPRO         VCC         [  0]    ***   
       CHARGE               ICHRGE              0               ***   
       CHOLESKY             ICHOLE         OFF         [  0]    ***   
       CIS_CONV             ICISTL              5               ***   
       COMM_SIZE            IPSIZE            ***               ***   
       CONSTANT             ICONST         OLD         [  1]    ***   
       CONTINUUM            ICONTU         NONE        [  0]    ***   
       CONTRACTION          ICNTYP         GENERAL     [  1]    ***   
       COORDINATES          ICOORD         INTERNAL    [  0]    ***   
       CPHF_CONVER          ICPHFT          10D- 16             ***   
       CPHF_MAXCYC          ICPHFC             64              cycles 
       CUBIC                ICUBIC         OFF         [  0]    ***   
       CURVILINEAR          ICURVY         ON          [  1]    ***   
       DBOC                 IDBOC          ON          [  1]    ***   
       DCT                  IDCT           OFF         [  0]    ***   
       DERIV_LEV            IDRLVL         SECOND      [  2]    ***   
       DEVMEM_SIZE          IDVMEM          50000000           MByte  
       DIAG_MRCC            IEOMST          10D-  0             ***   
       DIFF_TYPE            IDIFTY         RELAXED     [  0]    ***   
       DIRECT               IDIRCT         OFF         [  0]    ***   
       DROPMO               IDRPMO      NONE         
       ECP                  IECP           OFF         [  0]    ***   
       EIGENVECTOR          IVEC                1               ***   
       EL_ANHARM            IELANH         OFF         [  0]    ***   
       EOMFOLLOW            IEOMSR         ENERGY      [  0]    ***   
       EOMIP                IEOMIP         OFF         [  0]    ***   
       EOMLEVEL             HBARFM         SAME        [  0]    ***   
       EOM_MRCC             IMRCCE         NEW         [  1]    ***   
       EOM_NONIT            EOMNON         OFF         [  0]    ***   
       EOM_NSING            IEOMSI          10D-  0             ***   
       EOM_NSTATES          IMRCCD         DAVIDSON    [  0]    ***   
       EOM_NTRIP            IEOMTR          10D-  0             ***   
       EOM_ORDER            IEXORD         ENERGY      [  0]    ***   
       EOM_PROPSTA          IEOMST              0               ***   
       ESTATE_CONV          IEXTOL          10D-  5             ***   
       ESTATE_DIAG          IEXDIG         ITERATIVE   [  0]    ***   
       ESTATE_LOCK          IESLOC         ON          [  1]    ***   
       ESTATE_MAXC          IEXMXC             40               ***   
       ESTATE_PROP          IEXPRP         OFF         [  0]    ***   
       EVAL_HESS            IRECAL              0            # of cyc.
       EXCITATION           IEXCIT              0               ***   
       EXCITE               IEXCIT         NONE        [  0]    ***   
       EXTERN_POT           IEXPOT         OFF         [  0]    ***   
       FCGRADNEW            IFCGNW         OFF         [  0]    ***   
       FC_FIELD             IFINFC              0             x 10-6  
       FD_CALTYPE           IFDCAL         GRADONLY    [  0]    ***   
       FD_PROJECT           IFDPRJ         OFF         [  1]    ***   
       FD_STEPSIZE          IDISFD              0            10-4 bohr
       FD_USEGROUP          IFDGRP         FULL        [  0]    ***   
       FILE_RECSIZ          IFLREC              4096           words  
       FINITE_PERT          IFIPER              0             x 10-6  
       FIXGEOM              IFIXGM         OFF         [  0]    ***   
       FOCK                 IFOCK          AO          [  1]    ***   
       FREQ_ALGORI          IVIALG         STANDARD    [  0]    ***   
       FROZEN_CORE          IFROCO         OFF         [  0]    ***   
       GAMMA_ABCD           IGABCD         STORE       [  0]    ***   
       GAMMA_ABCI           IGABCI         STORE       [  0]    ***   
       GENBAS_1             IGNBS1              0               ***   
       GENBAS_2             IGNBS2              0               ***   
       GENBAS_3             IGNBS3              0               ***   
       GENBAS_4             IGNBS4              0               ***   
       GEO_CONV             ICONTL              5              H/bohr 
       GEO_MAXCYC           IOPTCY             50               ***   
       GEO_MAXSTEP          IMXSTP            300            millibohr
       GEO_METHOD           INR            SINGLE_POINT[  5]    ***   
       GIAO                 IGIAO          OFF         [  1]    ***   
       GIMIC                IGIMIC         OFF         [  0]    ***   
       GRID                 IGRID          OFF         [  0]    ***   
       GRID_ALGO            IGALGO         SERIAL      [  0]    ***   
       GUESS                IGUESS         MOREAD      [  0]    ***   
       HBAR                 IHBAR          OFF         [  0]    ***   
       HESS_TYPE            IHESTP         SCF         [  0]    ***   
       HF2_FILE             IHF2Fl         USE         [  1]    ***   
       HFSTABILITY          ISTABL         OFF         [  0]    ***   
       INCORE               INCORE         OFF         [  0]    ***   
       INPUT_MRCC           IMRCC          ON          [  1]    ***   
       INTEGRALS            INTTYP         VMOL        [  1]    ***   
       JODA_PRINT           IJPRNT              0               ***   
       KEYWORD_OUT          IDMPKW         NO          [  0]    ***   
       LINDEP_TOL           ILINDP              8               ***   
       LINEQ_CONV           IZTACN          10D-  7           cycles  
       LINEQ_EXPOR          ILMAXD              5               ***   
       LINEQ_MAXCY          ILMAXC            100               ***   
       LINEQ_TYPE           ILTYPE         DIIS        [  1]    ***   
       LOCK_ORBOCC          ILOCOC         OFF         [  0]    ***   
       MEMORY_SIZE          IMEMSZ         500000000           words  
       MEM_UNIT             IMEMU          INTEGERWORDS[  0]    ***   
       MRCC                 IMRCCC         OFF         [  0]    ***   
       MULTIPLICTY          IMULTP              1               ***   
       NACOUPLING           IVCOUP         OFF         [  0]    ***   
       NEGEVAL              IDIE           ABORT       [  0]    ***   
       NEWNORM              INEWNO         OFF         [  0]    ***   
       NON-HF               INONHF         OFF         [  0]    ***   
       NTOP_TAMP            ITOPT2             15               ***   
       NUC_MODEL            INUCMO         POINT       [  0]    ***   
       OCCUPATION           IOCCU   ESTIMATED BY SCF 
       OPEN-SHELL           IOPEN          SPIN-ORBITAL[  0]    ***   
       OPTVIB               IOPTVB         OFF         [  0]    ***   
       ORBITALS             IORBTP         STANDARD    [  0]    ***   
       PARALLEL             IPARAL         ON          [  1]    ***   
       PARA_INT             IPINTS         ON          [  1]    ***   
       PARA_PRINT           IPPRIN              0               ***   
       PERT_ORB             IPTORB         STANDARD    [  0]    ***   
       POINTS               IGRDFD              0               ***   
       PRINT                IPRNT               0               ***   
       PROPS                IPROPS         OFF         [  0]    ***   
       PROP_INTEGR          IINTYP         INTERNAL    [  0]    ***   
       PSI                  IPSI           OFF         [  0]    ***   
       QC_ALG               IQCALG         FLM         [  0]    ***   
       QC_LINALG            IQCLIN         TRIDIAG     [  2]    ***   
       QC_MAXCYC            IQCMAX          10D-100           cycles  
       QC_MAXSCFCY          IQCMSC          10D- 15           cycles  
       QC_RTRUST            IQCRTR          10D-  0           x 10-3  
       QC_SKIPSCF           IQCSKI         OFF         [  0]    ***   
       QC_START             IQCSTA          10D-  1             ***   
       QRHFGUESS            IQGUES         OFF         [  0]    ***   
       QUARTIC              IQUART         OFF         [  0]    ***   
       RAMAN_INT            IRAMIN         OFF         [  0]    ***   
       RAMAN_ORB            IRAMRE         UNRELAXED   [  0]    ***   
       RDO                  IRDOFM         ON          [  1]    ***   
       REDUCE_REPR          REDREP         Ir          [  0]    ***   
       REFERENCE            IREFNC         RHF         [  0]    ***   
       RELATIVIST           IRELAT         OFF         [  0]    ***   
       RELAX_DENS           IRDENS         ON          [  1]    ***   
       RESET_FLAGS          IRESET         OFF         [  0]    ***   
       RESTART_CC           ICCRES         OFF         [  0]    ***   
       ROT_EVEC             ROTVEC              0               ***   
       SAVE_INTS            ISVINT         OFF         [  0]    ***   
       SCALE_ON             ISTCRT              0               ***   
       SCF_CONV             ISCFCV          10D- 10             ***   
       SCF_DAMPING          IDAMP               0             x 10-3  
       SCF_EXPORDE          IRPPOR              6               ***   
       SCF_EXPSTAR          IRPPLS              8               ***   
       SCF_EXTRAPO          IRPP           ON          [  1]    ***   
       SCF_MAXCYC           ISCFCY            150              cycles 
       SCF_NOSTOP           ISCFST         OFF         [  0]    ***   
       SCF_PRINT            ISCFPR              0               ***   
       SCF_PROG             ISCFPR         SCF         [  0]    ***   
       SD_FIELD             IFINSD              0             x 10-6  
       SOPERT               IPERSO         OFF         [  0]    ***   
       SPHERICAL            IDFGHI         ON          [  1]    ***   
       SPINORBIT            ISOCAL         OFF         [  0]    ***   
       SPINROTATIO          ISRCON         OFF         [  0]    ***   
       SPIN_FLIP            ISPFLP         OFF         [  0]    ***   
       SPIN_ORBIT           ISPORB         OFF         [  0]    ***   
       SPIN_SCAL            ISCSMP         OFF         [  0]    ***   
       STEEPSCALE           ISTPSC              1000          x 10-3  
       SUBGROUP             ISUBGP         DEFAULT     [  0]    ***   
       SUBGRPAXIS           ISBXYZ         X           [  0]    ***   
       SYMMETRY             ISYM           ON          [  0]    ***   
       SYM_CHECK            ISYMCK         OVERRIDE    [  1]    ***   
       T3_EXTRAPOL          IT3EXT         OFF         [  0]    ***   
       T4_EXTRAPOL          IT4EXP         OFF         [  0]    ***   
       TAMP_SUM             IEVERY              5               ***   
       TESTSUITE            ITESTS         OFF         [  0]    ***   
       THERMOCH             ITHERM         OFF         [  0]    ***   
       TOL_CHOLESK          ITOLCH          10D-  4             ***   
       TRANGRAD             IRESRM         OFF         [  0]    ***   
       TRANS_INV            ITRAIN         IGNORE      [  1]    ***   
       TREAT_PERT           ITREAT         SIMULTANEOUS[  0]    ***   
       TRIP_ALGORI          ITRALG         NORMAL      [  0]    ***   
       UIJ_THRESHO          IUIJTH              1               ***   
       UNITS                IUNITS         ANGSTROM    [  0]    ***   
       UNOS                 IUNOS          OFF         [  0]    ***   
       UPDATE_HESS          IHUPDT         ON          [  1]    ***   
       VIBPHASE             ISETPH         STANDARD    [  0]    ***   
       VIBRATION            IVIB           ANALYTIC    [  1]    ***   
       VIB_ALGORIT          IGEALG         STANDARD    [  0]    ***   
       VNATORB              IVNORB         OFF         [  0]    ***   
       VTRAN                IVTRAN         FULL/PARTIAL[  0]    ***   
       XFIELD               IXEFLD              0             x 10-6  
       XFORM_TOL            IXFTOL          10D- 11             ***   
       YFIELD               IYEFLD              0             x 10-6  
       ZFIELD               IZEFLD            200             x 10-6  
       ZSCALE_EXP           IZEXPS         OFF         [  0]    ***   
    -------------------------------------------------------------------
   2 entries found in Z-matrix 
   Job Title : Carbon Monoxide DBOC calculation                                                
   There are  1 unique internal coordinates.
   Of these,  0 will be optimized.
   User supplied Z-matrix: 
--------------------------------------------------------------------------------
       SYMBOL    BOND      LENGTH    ANGLE     ANGLE     DIHED     ANGLE
                  TO      (ANGST)    WRT      (DEG)      WRT      (DEG)
--------------------------------------------------------------------------------
        C    
        O          1         r    
                  *Initial values for internal coordinates* 
                      Name             Value
                        r               1.2724137931
--------------------------------------------------------------------------------
  read isotopes from ZMAT file 
   Rotational constants (in cm-1): 
          1.5186433530             1.5186433530
   Rotational constants (in MHz): 
      45527.7887396505         45527.7887396505
********************************************************************************
   The full molecular point group is CXv .
   The largest Abelian subgroup of the full molecular point group is C2v .
   The computational point group is C2v .
********************************************************************************
--------------------------------------------------------------------------------
   Analysis of internal coordinates specified by Z-matrix 
--------------------------------------------------------------------------------
   *The nuclear repulsion energy is   19.962453203252029 a.u.
   *There is   1 degree of freedom within the tot. symm. molecular subspace.
   *Z-matrix requests optimization of   0 coordinates.
   *The optimization is constrained.
   *The following   1 parameters can have non-zero 
    derivatives within the totally symmetric subspace:
             r    [ 1]
   *The following   0 parameters are to be optimized:

   *The following coordinates must be varied in an  unconstrained optimization.
             r    [ 1]
--------------------------------------------------------------------------------


 ----------------------------------------------------------------
         Coordinates used in calculation (QCOMP) 
 ----------------------------------------------------------------
 Z-matrix   Atomic            Coordinates (in bohr)
  Symbol    Number           X              Y              Z
 ----------------------------------------------------------------
     C         6        -0.00000000     0.00000000     1.37382086
     O         8         0.00000000     0.00000000    -1.03069323
 ----------------------------------------------------------------
 
   Interatomic distance matrix (Angstroms) 
 
                 C             O    
                [ 1]        [ 2]
  C    [ 1]     0.00000
  O    [ 2]     1.27241     0.00000
 rotcon2
   Rotational constants (in cm-1): 
          1.5186433530             0.0000000000
   Rotational constants (in MHz): 
      45527.7887396505             0.0000000000
  ECPDATA file not present.   Using default ECPDATA. 
  @GTFLGS-I, Hessian will be transformed to curvilinear coordinates.
  There are  218 basis functions.
 @CHECKOUT-I, Total execution time (CPU/WALL):        0.10/       0.15 seconds.
--executable xjoda finished with status     0 in        0.16 seconds (walltime).
 --invoking executable--
/nfs/workspaces/public/cfour_mpi/bin/xvmol
 SERIAL VERSION OF MOLECULE STARTED
********************************************************************************
                    INPUT FROM MOL FILE
********************************************************************************
INTGRL        1    0    1    0    0    0    0    0    0                         
         *** CFOUR Program System (Release V0.1) ***                            
Carbon Monoxide DBOC calculation                                                
    2    2 X  Y       0.10E-08              0    0                              
   9999.00      3.00                                                            
          6.00000000    1    5    1    1    1    1    1                         
C #1  -0.000000000000000   0.000000000000000   1.373820856607352                
   16    9                                                                      
   33980.0000000000       9.100000000000000E-005 -1.900000000000000E-005        
  0.000000000000000E+000  0.000000000000000E+000  0.000000000000000E+000        
  0.000000000000000E+000  0.000000000000000E+000  0.000000000000000E+000        
  0.000000000000000E+000                                                        
   5089.00000000000       7.040000000000000E-004 -1.510000000000000E-004        
  0.000000000000000E+000  0.000000000000000E+000  0.000000000000000E+000        
  0.000000000000000E+000  0.000000000000000E+000  0.000000000000000E+000        
  0.000000000000000E+000                                                        
   1157.00000000000       3.693000000000000E-003 -7.850000000000000E-004        
  0.000000000000000E+000  0.000000000000000E+000  0.000000000000000E+000        
  0.000000000000000E+000  0.000000000000000E+000  0.000000000000000E+000        
  0.000000000000000E+000                                                        
   326.600000000000       1.536000000000000E-002 -3.324000000000000E-003        
  0.000000000000000E+000  0.000000000000000E+000  0.000000000000000E+000        
  0.000000000000000E+000  0.000000000000000E+000  0.000000000000000E+000        
  0.000000000000000E+000                                                        
   106.100000000000       5.292900000000000E-002 -1.151200000000000E-002        
  0.000000000000000E+000  0.000000000000000E+000  0.000000000000000E+000        
  0.000000000000000E+000  0.000000000000000E+000  0.000000000000000E+000        
  0.000000000000000E+000                                                        
   38.1100000000000       0.147043000000000      -3.416000000000000E-002        
  0.000000000000000E+000  0.000000000000000E+000  0.000000000000000E+000        
  0.000000000000000E+000  0.000000000000000E+000  0.000000000000000E+000        
  0.000000000000000E+000                                                        
   14.7500000000000       0.305631000000000      -7.717300000000001E-002        
  0.000000000000000E+000  0.000000000000000E+000  0.000000000000000E+000        
  0.000000000000000E+000  0.000000000000000E+000  0.000000000000000E+000        
  0.000000000000000E+000                                                        
   6.03500000000000       0.399345000000000      -0.141493000000000             
  0.000000000000000E+000  0.000000000000000E+000  0.000000000000000E+000        
  0.000000000000000E+000  0.000000000000000E+000  0.000000000000000E+000        
  0.000000000000000E+000                                                        
   2.53000000000000       0.217051000000000      -0.118019000000000             
  0.000000000000000E+000  0.000000000000000E+000  0.000000000000000E+000        
  0.000000000000000E+000  0.000000000000000E+000  0.000000000000000E+000        
  0.000000000000000E+000                                                        
  0.735500000000000       1.589400000000000E-002  0.273806000000000             
   1.00000000000000       0.000000000000000E+000  0.000000000000000E+000        
  0.000000000000000E+000  0.000000000000000E+000  0.000000000000000E+000        
  0.000000000000000E+000                                                        
  0.290500000000000      -3.084000000000000E-003  0.586510000000000             
  0.000000000000000E+000   1.00000000000000       0.000000000000000E+000        
  0.000000000000000E+000  0.000000000000000E+000  0.000000000000000E+000        
  0.000000000000000E+000                                                        
  0.111100000000000       9.779999999999999E-004  0.285430000000000             
  0.000000000000000E+000  0.000000000000000E+000   1.00000000000000             
  0.000000000000000E+000  0.000000000000000E+000  0.000000000000000E+000        
  0.000000000000000E+000                                                        
   7.21600000000000       0.000000000000000E+000  0.000000000000000E+000        
  0.000000000000000E+000  0.000000000000000E+000  0.000000000000000E+000        
   1.00000000000000       0.000000000000000E+000  0.000000000000000E+000        
  0.000000000000000E+000                                                        
   19.5700000000000       0.000000000000000E+000  0.000000000000000E+000        
  0.000000000000000E+000  0.000000000000000E+000  0.000000000000000E+000        
  0.000000000000000E+000   1.00000000000000       0.000000000000000E+000        
  0.000000000000000E+000                                                        
   53.0730000000000       0.000000000000000E+000  0.000000000000000E+000        
  0.000000000000000E+000  0.000000000000000E+000  0.000000000000000E+000        
  0.000000000000000E+000  0.000000000000000E+000   1.00000000000000             
  0.000000000000000E+000                                                        
  4.145000000000000E-002  0.000000000000000E+000  0.000000000000000E+000        
  0.000000000000000E+000  0.000000000000000E+000  0.000000000000000E+000        
  0.000000000000000E+000  0.000000000000000E+000  0.000000000000000E+000        
   1.00000000000000                                                             
   10    8                                                                      
   34.5100000000000       5.378000000000000E-003  0.000000000000000E+000        
  0.000000000000000E+000  0.000000000000000E+000  0.000000000000000E+000        
  0.000000000000000E+000  0.000000000000000E+000  0.000000000000000E+000        
   7.91500000000000       3.613200000000000E-002  0.000000000000000E+000        
  0.000000000000000E+000  0.000000000000000E+000  0.000000000000000E+000        
  0.000000000000000E+000  0.000000000000000E+000  0.000000000000000E+000        
   2.36800000000000       0.142493000000000       0.000000000000000E+000        
  0.000000000000000E+000  0.000000000000000E+000  0.000000000000000E+000        
  0.000000000000000E+000  0.000000000000000E+000  0.000000000000000E+000        
  0.813200000000000       0.342150000000000        1.00000000000000             
  0.000000000000000E+000  0.000000000000000E+000  0.000000000000000E+000        
  0.000000000000000E+000  0.000000000000000E+000  0.000000000000000E+000        
  0.289000000000000       0.463864000000000       0.000000000000000E+000        
   1.00000000000000       0.000000000000000E+000  0.000000000000000E+000        
  0.000000000000000E+000  0.000000000000000E+000  0.000000000000000E+000        
  0.100700000000000       0.250028000000000       0.000000000000000E+000        
  0.000000000000000E+000   1.00000000000000       0.000000000000000E+000        
  0.000000000000000E+000  0.000000000000000E+000  0.000000000000000E+000        
   8.18200000000000       0.000000000000000E+000  0.000000000000000E+000        
  0.000000000000000E+000  0.000000000000000E+000   1.00000000000000             
  0.000000000000000E+000  0.000000000000000E+000  0.000000000000000E+000        
   24.1860000000000       0.000000000000000E+000  0.000000000000000E+000        
  0.000000000000000E+000  0.000000000000000E+000  0.000000000000000E+000        
   1.00000000000000       0.000000000000000E+000  0.000000000000000E+000        
   71.4940000000000       0.000000000000000E+000  0.000000000000000E+000        
  0.000000000000000E+000  0.000000000000000E+000  0.000000000000000E+000        
  0.000000000000000E+000   1.00000000000000       0.000000000000000E+000        
  3.218000000000000E-002  0.000000000000000E+000  0.000000000000000E+000        
  0.000000000000000E+000  0.000000000000000E+000  0.000000000000000E+000        
  0.000000000000000E+000  0.000000000000000E+000   1.00000000000000             
    6    6                                                                      
   1.84800000000000        1.00000000000000       0.000000000000000E+000        
  0.000000000000000E+000  0.000000000000000E+000  0.000000000000000E+000        
  0.000000000000000E+000                                                        
  0.649000000000000       0.000000000000000E+000   1.00000000000000             
  0.000000000000000E+000  0.000000000000000E+000  0.000000000000000E+000        
  0.000000000000000E+000                                                        
  0.228000000000000       0.000000000000000E+000  0.000000000000000E+000        
   1.00000000000000       0.000000000000000E+000  0.000000000000000E+000        
  0.000000000000000E+000                                                        
   8.65600000000000       0.000000000000000E+000  0.000000000000000E+000        
  0.000000000000000E+000   1.00000000000000       0.000000000000000E+000        
  0.000000000000000E+000                                                        
   33.2130000000000       0.000000000000000E+000  0.000000000000000E+000        
  0.000000000000000E+000  0.000000000000000E+000   1.00000000000000             
  0.000000000000000E+000                                                        
  7.660000000000000E-002  0.000000000000000E+000  0.000000000000000E+000        
  0.000000000000000E+000  0.000000000000000E+000  0.000000000000000E+000        
   1.00000000000000                                                             
    4    4                                                                      
   1.41900000000000        1.00000000000000       0.000000000000000E+000        
  0.000000000000000E+000  0.000000000000000E+000                                
  0.485000000000000       0.000000000000000E+000   1.00000000000000             
  0.000000000000000E+000  0.000000000000000E+000                                
   24.6940000000000       0.000000000000000E+000  0.000000000000000E+000        
   1.00000000000000       0.000000000000000E+000                                
  0.187000000000000       0.000000000000000E+000  0.000000000000000E+000        
  0.000000000000000E+000   1.00000000000000                                     
    2    2                                                                      
   1.01100000000000        1.00000000000000       0.000000000000000E+000        
  0.424000000000000       0.000000000000000E+000   1.00000000000000             
          8.00000000    1    5    1    1    1    1    1                         
O #2   0.000000000000000   0.000000000000000  -1.030693233483561                
   16    9                                                                      
   61420.0000000000       9.000000000000001E-005 -2.000000000000000E-005        
  0.000000000000000E+000  0.000000000000000E+000  0.000000000000000E+000        
  0.000000000000000E+000  0.000000000000000E+000  0.000000000000000E+000        
  0.000000000000000E+000                                                        
   9199.00000000000       6.980000000000001E-004 -1.590000000000000E-004        
  0.000000000000000E+000  0.000000000000000E+000  0.000000000000000E+000        
  0.000000000000000E+000  0.000000000000000E+000  0.000000000000000E+000        
  0.000000000000000E+000                                                        
   2091.00000000000       3.664000000000000E-003 -8.290000000000000E-004        
  0.000000000000000E+000  0.000000000000000E+000  0.000000000000000E+000        
  0.000000000000000E+000  0.000000000000000E+000  0.000000000000000E+000        
  0.000000000000000E+000                                                        
   590.900000000000       1.521800000000000E-002 -3.508000000000000E-003        
  0.000000000000000E+000  0.000000000000000E+000  0.000000000000000E+000        
  0.000000000000000E+000  0.000000000000000E+000  0.000000000000000E+000        
  0.000000000000000E+000                                                        
   192.300000000000       5.242300000000000E-002 -1.215600000000000E-002        
  0.000000000000000E+000  0.000000000000000E+000  0.000000000000000E+000        
  0.000000000000000E+000  0.000000000000000E+000  0.000000000000000E+000        
  0.000000000000000E+000                                                        
   69.3200000000000       0.145921000000000      -3.626100000000000E-002        
  0.000000000000000E+000  0.000000000000000E+000  0.000000000000000E+000        
  0.000000000000000E+000  0.000000000000000E+000  0.000000000000000E+000        
  0.000000000000000E+000                                                        
   26.9700000000000       0.305258000000000      -8.299200000000000E-002        
  0.000000000000000E+000  0.000000000000000E+000  0.000000000000000E+000        
  0.000000000000000E+000  0.000000000000000E+000  0.000000000000000E+000        
  0.000000000000000E+000                                                        
   11.1000000000000       0.398508000000000      -0.152090000000000             
  0.000000000000000E+000  0.000000000000000E+000  0.000000000000000E+000        
  0.000000000000000E+000  0.000000000000000E+000  0.000000000000000E+000        
  0.000000000000000E+000                                                        
   4.68200000000000       0.216980000000000      -0.115331000000000             
  0.000000000000000E+000  0.000000000000000E+000  0.000000000000000E+000        
  0.000000000000000E+000  0.000000000000000E+000  0.000000000000000E+000        
  0.000000000000000E+000                                                        
   1.42800000000000       1.759400000000000E-002  0.288979000000000             
   1.00000000000000       0.000000000000000E+000  0.000000000000000E+000        
  0.000000000000000E+000  0.000000000000000E+000  0.000000000000000E+000        
  0.000000000000000E+000                                                        
  0.554700000000000      -2.502000000000000E-003  0.586128000000000             
  0.000000000000000E+000   1.00000000000000       0.000000000000000E+000        
  0.000000000000000E+000  0.000000000000000E+000  0.000000000000000E+000        
  0.000000000000000E+000                                                        
  0.206700000000000       9.540000000000000E-004  0.277624000000000             
  0.000000000000000E+000  0.000000000000000E+000   1.00000000000000             
  0.000000000000000E+000  0.000000000000000E+000  0.000000000000000E+000        
  0.000000000000000E+000                                                        
   12.9740000000000       0.000000000000000E+000  0.000000000000000E+000        
  0.000000000000000E+000  0.000000000000000E+000  0.000000000000000E+000        
   1.00000000000000       0.000000000000000E+000  0.000000000000000E+000        
  0.000000000000000E+000                                                        
   34.9000000000000       0.000000000000000E+000  0.000000000000000E+000        
  0.000000000000000E+000  0.000000000000000E+000  0.000000000000000E+000        
  0.000000000000000E+000   1.00000000000000       0.000000000000000E+000        
  0.000000000000000E+000                                                        
   93.8810000000000       0.000000000000000E+000  0.000000000000000E+000        
  0.000000000000000E+000  0.000000000000000E+000  0.000000000000000E+000        
  0.000000000000000E+000  0.000000000000000E+000   1.00000000000000             
  0.000000000000000E+000                                                        
  6.959000000000000E-002  0.000000000000000E+000  0.000000000000000E+000        
  0.000000000000000E+000  0.000000000000000E+000  0.000000000000000E+000        
  0.000000000000000E+000  0.000000000000000E+000  0.000000000000000E+000        
   1.00000000000000                                                             
   10    8                                                                      
   63.4200000000000       6.044000000000000E-003  0.000000000000000E+000        
  0.000000000000000E+000  0.000000000000000E+000  0.000000000000000E+000        
  0.000000000000000E+000  0.000000000000000E+000  0.000000000000000E+000        
   14.6600000000000       4.179900000000000E-002  0.000000000000000E+000        
  0.000000000000000E+000  0.000000000000000E+000  0.000000000000000E+000        
  0.000000000000000E+000  0.000000000000000E+000  0.000000000000000E+000        
   4.45900000000000       0.161143000000000       0.000000000000000E+000        
  0.000000000000000E+000  0.000000000000000E+000  0.000000000000000E+000        
  0.000000000000000E+000  0.000000000000000E+000  0.000000000000000E+000        
   1.53100000000000       0.356731000000000        1.00000000000000             
  0.000000000000000E+000  0.000000000000000E+000  0.000000000000000E+000        
  0.000000000000000E+000  0.000000000000000E+000  0.000000000000000E+000        
  0.530200000000000       0.448309000000000       0.000000000000000E+000        
   1.00000000000000       0.000000000000000E+000  0.000000000000000E+000        
  0.000000000000000E+000  0.000000000000000E+000  0.000000000000000E+000        
  0.175000000000000       0.244940000000000       0.000000000000000E+000        
  0.000000000000000E+000   1.00000000000000       0.000000000000000E+000        
  0.000000000000000E+000  0.000000000000000E+000  0.000000000000000E+000        
   14.4750000000000       0.000000000000000E+000  0.000000000000000E+000        
  0.000000000000000E+000  0.000000000000000E+000   1.00000000000000             
  0.000000000000000E+000  0.000000000000000E+000  0.000000000000000E+000        
   42.7300000000000       0.000000000000000E+000  0.000000000000000E+000        
  0.000000000000000E+000  0.000000000000000E+000  0.000000000000000E+000        
   1.00000000000000       0.000000000000000E+000  0.000000000000000E+000        
   126.140000000000       0.000000000000000E+000  0.000000000000000E+000        
  0.000000000000000E+000  0.000000000000000E+000  0.000000000000000E+000        
  0.000000000000000E+000   1.00000000000000       0.000000000000000E+000        
  5.348000000000000E-002  0.000000000000000E+000  0.000000000000000E+000        
  0.000000000000000E+000  0.000000000000000E+000  0.000000000000000E+000        
  0.000000000000000E+000  0.000000000000000E+000   1.00000000000000             
    6    6                                                                      
   3.77500000000000        1.00000000000000       0.000000000000000E+000        
  0.000000000000000E+000  0.000000000000000E+000  0.000000000000000E+000        
  0.000000000000000E+000                                                        
   1.30000000000000       0.000000000000000E+000   1.00000000000000             
  0.000000000000000E+000  0.000000000000000E+000  0.000000000000000E+000        
  0.000000000000000E+000                                                        
  0.444000000000000       0.000000000000000E+000  0.000000000000000E+000        
   1.00000000000000       0.000000000000000E+000  0.000000000000000E+000        
  0.000000000000000E+000                                                        
   14.9270000000000       0.000000000000000E+000  0.000000000000000E+000        
  0.000000000000000E+000   1.00000000000000       0.000000000000000E+000        
  0.000000000000000E+000                                                        
   57.5440000000000       0.000000000000000E+000  0.000000000000000E+000        
  0.000000000000000E+000  0.000000000000000E+000   1.00000000000000             
  0.000000000000000E+000                                                        
  0.154000000000000       0.000000000000000E+000  0.000000000000000E+000        
  0.000000000000000E+000  0.000000000000000E+000  0.000000000000000E+000        
   1.00000000000000                                                             
    4    4                                                                      
   2.66600000000000        1.00000000000000       0.000000000000000E+000        
  0.000000000000000E+000  0.000000000000000E+000                                
  0.859000000000000       0.000000000000000E+000   1.00000000000000             
  0.000000000000000E+000  0.000000000000000E+000                                
   26.4830000000000       0.000000000000000E+000  0.000000000000000E+000        
   1.00000000000000       0.000000000000000E+000                                
  0.324000000000000       0.000000000000000E+000  0.000000000000000E+000        
  0.000000000000000E+000   1.00000000000000                                     
    2    2                                                                      
   1.84600000000000        1.00000000000000       0.000000000000000E+000        
  0.714000000000000       0.000000000000000E+000   1.00000000000000             
FINISH                                                                          
 
********************************************************************************
 ONE- AND TWO-ELECTRON INTEGRALS OVER SYMMETRY-ADAPTED AOS ARE CALCULATED.

  SPHERICAL HARMONICS ARE USED.
  
  INTEGRALS LESS THAN  0.10E-13 ARE NEGLECTED.

  NUCLEAR REPULSION ENERGY :   19.9624532033 A.U.
  @MOLECU-I, ONE ELECTRON INTEGRALS (CPU/WALL):        0.06/       0.07 SECONDS.
  @TWOEL-I,    4537871 INTEGRALS OF SYMMETRY TYPE  I I I I
  @TWOEL-I,   19512967 INTEGRALS OF SYMMETRY TYPE  I J I J
  @TWOEL-I,   10281506 INTEGRALS OF SYMMETRY TYPE  I I J J
  @TWOEL-I,   14441773 INTEGRALS OF SYMMETRY TYPE  I J K L
  @TWOEL-I, TOTAL NUMBER OF 2-E INTEGRALS   48774117.
  @MOLECU-I, TWO ELECTRON INTEGRALS (CPU/WALL):      195.71/      24.93 SECONDS.
 @CHECKOUT-I, Total execution time (CPU/WALL):      195.77/      25.02 seconds.

Running with 14 threads/proc

--executable xvmol finished with status     0 in       25.05 seconds (walltime).
 --invoking executable--
/nfs/workspaces/public/cfour_mpi/bin/xvmol2ja
 @GETMEM-I,  Allocated    3814 MB of main memory.
 @CHECKOUT-I, Total execution time (CPU/WALL):        0.14/       0.06 seconds.
--executable xvmol2ja finished with status     0 in        0.07 seconds (walltime).
 --invoking executable--
/nfs/workspaces/public/cfour_mpi/bin/xvprop
 @GETMEM-I,  Allocated    3814 MB of main memory.
   Property integrals will be calculated.
    --------------------------------------------------------------
                                   Property evaluated at 
    Property type                X             Y             Z
    --------------------------------------------------------------
    Dipole moment               ----          ----          ----  
    Quadrupole moment           ----          ----          ----  
    Octopole moment             ----          ----          ----  
    Relativisitic corr.         ----          ----          ----  
    Second moment            0.0000000     0.0000000     0.0000000
    Electron density         0.0000000     0.0000000     1.3738209
    Electron density         0.0000000     0.0000000    -1.0306932
    Field gradient           0.0000000     0.0000000     1.3738209
    Field gradient           0.0000000     0.0000000    -1.0306932
    Potential                0.0000000     0.0000000     1.3738209
    Potential                0.0000000     0.0000000    -1.0306932
    --------------------------------------------------------------
 @CHECKOUT-I, Total execution time (CPU/WALL):        1.37/       1.41 seconds.
--executable xvprop finished with status     0 in        1.42 seconds (walltime).
 --invoking executable--
/nfs/workspaces/public/cfour_mpi/bin/xvscf
  There are  218 functions in the AO basis.

  There are 4 irreducible representations.

       Irrep        # of functions
         1                 86
         2                 52
         3                 52
         4                 28


  Parameters for SCF calculation: 
        SCF reference function:  RHF  
  Maximum number of iterations:  150
     Full symmetry point group: CXv 
     Computational point group: C2v 
        Initial density matrix: MOREAD                 
     SCF convergence tolerance: 10**(-10)
  DIIS convergence acceleration:  ON
          Latest start for DIIS:   8
                     DIIS order:   6

  Memory information:    2523578 words required.
  Fock matrices are constructed from AO integral file.
 @GETMEM-I,  Allocated      19 MB of main memory.
  Initialization and symmetry analysis required      0.002 seconds.

  Adding electric field perturbation to one-electron Hamiltonian.
  Field direction     : Z
  Field strength      :  0.0002000 a.u.

  @INITGES-I, Occupancies from core Hamiltonian:

          Alpha population by irrep:   5    1    1    0
           Beta population by irrep:   5    1    1    0


 total no. of electrons in initial guess :  0.000000000000000E+000
  --------------------------------------------------------------------
  Iteration         Total Energy            Largest Density Difference
  --------------------------------------------------------------------
       0            19.962453727397676              0.0000000000D+00
   current occupation vector 
     5  1  1  0
     5  1  1  0
       1           -92.679202288930497              0.1801229811D+02
   current occupation vector 
     5  1  1  0
     5  1  1  0
       2           -98.191371579990872              0.1800821318D+02
   current occupation vector 
     5  1  1  0
     5  1  1  0
       3          -103.521102893032221              0.7903430668D+01
   current occupation vector 
     5  1  1  0
     5  1  1  0
       4           -99.555817038935501              0.7142015983D+01
   current occupation vector 
     5  1  1  0
     5  1  1  0
       5          -102.120154847590513              0.5970407135D+01
   current occupation vector 
     5  1  1  0
     5  1  1  0
       6           -98.540658374811315              0.5939548361D+01
   current occupation vector 
     5  1  1  0
     5  1  1  0
       7          -102.135905583889951              0.6142852433D+01
   current occupation vector 
     5  1  1  0
     5  1  1  0
       8           -98.444142015278075              0.6140339932D+01
   current occupation vector 
     5  1  1  0
     5  1  1  0
       9          -109.438814491302537              0.4623747711D+01
   current occupation vector 
     5  1  1  0
     5  1  1  0
      10          -111.470299928480443              0.1128527701D+01
   current occupation vector 
     5  1  1  0
     5  1  1  0
      11          -112.642421769749802              0.7768965819D+00
   current occupation vector 
     5  1  1  0
     5  1  1  0
      12          -112.734208713704334              0.2842872506D+00
   current occupation vector 
     5  1  1  0
     5  1  1  0
      13          -112.735827923236741              0.4462474864D-01
   current occupation vector 
     5  1  1  0
     5  1  1  0
      14          -112.736024907897132              0.1635020702D-01
   current occupation vector 
     5  1  1  0
     5  1  1  0
      15          -112.736058494744043              0.1069398025D-01
   current occupation vector 
     5  1  1  0
     5  1  1  0
      16          -112.736058973429749              0.9740673864D-03
   current occupation vector 
     5  1  1  0
     5  1  1  0
      17          -112.736059001913475              0.2958105731D-03
   current occupation vector 
     5  1  1  0
     5  1  1  0
      18          -112.736059004383861              0.9747384256D-04
   current occupation vector 
     5  1  1  0
     5  1  1  0
      19          -112.736059004441984              0.1595435486D-04
   current occupation vector 
     5  1  1  0
     5  1  1  0
      20          -112.736059004445281              0.2531771546D-05
   current occupation vector 
     5  1  1  0
     5  1  1  0
      21          -112.736059004443717              0.3812130349D-06
   current occupation vector 
     5  1  1  0
     5  1  1  0
      22          -112.736059004443916              0.7632750032D-07
   current occupation vector 
     5  1  1  0
     5  1  1  0
      23          -112.736059004443348              0.2282307188D-07
   current occupation vector 
     5  1  1  0
     5  1  1  0
      24          -112.736059004443689              0.4853955016D-09
   current occupation vector 
     5  1  1  0
     5  1  1  0
      25          -112.736059004445138              0.3428228812D-09
   current occupation vector 
     5  1  1  0
     5  1  1  0
      26          -112.736059004443689              0.2691846746D-09
   current occupation vector 
     5  1  1  0
     5  1  1  0
      27          -112.736059004443462              0.1197433264D-09
   current occupation vector 
     5  1  1  0
     5  1  1  0

  SCF has converged.

 Density matrix saved to file den.dat
 total electron number:   13.9999999999999     
     E(SCF)=      -112.736059004443831              0.4365879880D-10

  Eigenvector printing suppressed.

 @PUTMOS-I, Writing converged MOs to NEWMOS. 
 @PUTMOS-I, Symmetry   1 Full Blocks 21 Partial Blocksize   2
 @PUTMOS-I, Symmetry   2 Full Blocks 13 Partial Blocksize   0
 @PUTMOS-I, Symmetry   3 Full Blocks 13 Partial Blocksize   0
 @PUTMOS-I, Symmetry   4 Full Blocks  7 Partial Blocksize   0
 @PUTFOCK-I, Writing converged Fock matrix to NEWFOCK. 
 @PUTFOCK-I, Symmetry   1 Full Blocks 21 Partial Blocksize   2
 @PUTFOCK-I, Symmetry   2 Full Blocks 13 Partial Blocksize   0
 @PUTFOCK-I, Symmetry   3 Full Blocks 13 Partial Blocksize   0
 @PUTFOCK-I, Symmetry   4 Full Blocks  7 Partial Blocksize   0


 
  ORBITAL EIGENVALUES (ALPHA)  (1H = 27.2113834 eV)

       MO #        E(hartree)               E(eV)           FULLSYM    COMPSYM
       ----   --------------------   --------------------   -------   ---------
    1     1         -20.6661538318        -562.3546353201     SG+        A1 (1)
    2     2         -11.4221693486        -310.8130294056     SG+        A1 (1)
    3     3          -1.4285832602         -38.8737268108     SG+        A1 (1)
    4     4          -0.7946911332         -21.6246451104     SG+        A1 (1)
    5    87          -0.5840306524         -15.8922820007      PI        B1 (2)
    6   139          -0.5840306524         -15.8922820007      PI        B2 (3)
    7     5          -0.5652841946         -15.3821649485     SG+        A1 (1)
  +++++++++++++++++++++++++++++++++++++++++++++++++++++++++++++++++++++++++++++
    8   140           0.0536548814           1.4600235492      PI        B2 (3)
    9    88           0.0536548814           1.4600235492      PI        B1 (2)
   10     6           0.0621514360           1.6912265541     SG+        A1 (1)
   11     7           0.0725234925           1.9734645592     SG+        A1 (1)
   12   141           0.1070431827           2.9127930844      PI        B2 (3)
   13    89           0.1070431827           2.9127930844      PI        B1 (2)
   14     8           0.1562985810           4.2531006132     SG+        A1 (1)
   15    90           0.1679063570           4.5689642551      PI        B1 (2)
   16   142           0.1679063570           4.5689642551      PI        B2 (3)
   17   191           0.2272571436           6.1839812660      DE        A2 (4)
   18     9           0.2272571436           6.1839812660      DE        A1 (1)
   19    10           0.2281847583           6.2092229442     SG+        A1 (1)
   20    11           0.3000296317           8.1642213387     SG+        A1 (1)
   21    91           0.3075213394           8.3680810689      PI        B1 (2)
   22   143           0.3075213394           8.3680810689      PI        B2 (3)
   23    12           0.3845945894          10.4653508246     SG+        A1 (1)
   24    92           0.3959602435          10.7746259965      PI        B1 (2)
   25   144           0.3959602435          10.7746259965      PI        B2 (3)
   26    13           0.5090500849          13.8519570287     SG+        A1 (1)
   27   192           0.5422701938          14.7559221504      DE        A2 (4)
   28    14           0.5422701938          14.7559221504      DE        A1 (1)
   29    15           0.5786406345          15.7456121552     SG+        A1 (1)
   30    93           0.6253752341          17.0173252635      PI        B1 (2)
   31   145           0.6253752341          17.0173252635      PI        B2 (3)
   32   146           0.7452048721          20.2780554852      PH        B2 (3)
   33    94           0.7452048721          20.2780554852      PH        B1 (2)
   34   193           0.7613470494          20.7173064613      DE        A2 (4)
   35    16           0.7613470494          20.7173064613      DE        A1 (1)
   36    17           0.7680834528          20.9006133165     SG+        A1 (1)
   37    95           0.8066333713          21.9496099309      PI        B1 (2)
   38   147           0.8066333713          21.9496099309      PI        B2 (3)
   39    18           0.8349949176          22.7213668389     SG+        A1 (1)
   40    19           0.8707406564          23.6940578426     SG+        A1 (1)
   41   194           0.8826644723          24.0185213700      DE        A2 (4)
   42    20           0.8826644723          24.0185213700      DE        A1 (1)
   43    96           0.8923299543          24.2815325049      PI        B1 (2)
   44   148           0.8923299543          24.2815325049      PI        B2 (3)
   45    97           1.0485782754          28.5332654770      PI        B1 (2)
   46   149           1.0485782754          28.5332654770      PI        B2 (3)
   47    21           1.1320427925          30.8044504528     SG+        A1 (1)
   48    22           1.4289973171          38.8849938745     SG+        A1 (1)
   49   150           1.4369977312          39.1026962099      PH        B2 (3)
   50    98           1.4369977312          39.1026962099      PH        B1 (2)
   51   195           1.5417075758          41.9519959355      DE        A2 (4)
   52    23           1.5417075758          41.9519959355      DE        A1 (1)
   53   151           1.5694820971          42.7077790837      PI        B2 (3)
   54    99           1.5694820971          42.7077790837      PI        B1 (2)
   55    24           1.6577770681          45.1104073915     SG+        A1 (1)
   56   152           1.7021218293          46.3170896907      PI        B2 (3)
   57   100           1.7021218293          46.3170896907      PI        B1 (2)
   58   196           1.7451165661          47.4870359567      DE        A2 (4)
   59    25           1.7451165661          47.4870359568      DE        A1 (1)
   60    26           1.8266188329          49.7048253877     SG+        A1 (1)
   61   153           2.0380575252          55.4583647085      PI        B2 (3)
   62   101           2.0380575252          55.4583647085      PI        B1 (2)
   63    27           2.0569816769          55.9733170557     SG+        A1 (1)
   64   197           2.0952444879          57.0145010770      PI        A2 (4)
   65    28           2.0952444879          57.0145010770      PI        A1 (1)
   66   198           2.1695535215          59.0365526808      DE        A2 (4)
   67    29           2.1695535215          59.0365526809      DE        A1 (1)
   68   154           2.2389368075          60.9245678778      PH        B2 (3)
   69   102           2.2389368075          60.9245678778      PH        B1 (2)
   70   103           2.2941285046          62.4264103088      PI        B1 (2)
   71   155           2.2941285046          62.4264103088      PI        B2 (3)
   72    30           2.3004221862          62.5976700893     SG+        A1 (1)
   73   156           2.3115347168          62.9000574224      PH        B2 (3)
   74   104           2.3115347168          62.9000574224      PH        B1 (2)
   75   199           2.3402306376          63.6809131247      DE        A2 (4)
   76    31           2.3402306376          63.6809131247      DE        A1 (1)
   77    32           2.4885785890          67.7176661070     SG+        A1 (1)
   78   157           2.5577817112          69.6007787968      PI        B2 (3)
   79   105           2.5577817112          69.6007787968      PI        B1 (2)
   80   158           2.7197057734          74.0069565351      PI        B2 (3)
   81   106           2.7197057734          74.0069565351      PI        B1 (2)
   82    33           2.7448223926          74.6904144889     SG+        A1 (1)
   83   200           2.8861551921          78.5362754838      DE        A2 (4)
   84    34           2.8861551921          78.5362754840      DE        A1 (1)
   85    35           3.4333874319          93.4272217712     SG+        A1 (1)
   86   159           3.6750743295         100.0038566038      PI        B2 (3)
   87   107           3.6750743295         100.0038566039      PI        B1 (2)
   88   201           3.7054729312         100.8310446092      PI        A2 (4)
   89    36           3.7054729312         100.8310446093      PI        A1 (1)
   90    37           3.9027398872         106.1989513818     SG+        A1 (1)
   91   160           4.0840047110         111.1314179995      PH        B2 (3)
   92   108           4.0840047110         111.1314179995      PH        B1 (2)
   93   161           4.1529601173         113.0077899981      PH        B2 (3)
   94   109           4.1529601173         113.0077899981      PH        B1 (2)
   95   162           4.1896822421         114.0070498132      PI        B2 (3)
   96   110           4.1896822421         114.0070498132      PI        B1 (2)
   97   202           4.1977805081         114.2274148362      DE        A2 (4)
   98    38           4.1977805081         114.2274148363      DE        A1 (1)
   99    39           4.2278696412         115.0461817717     SG+        A1 (1)
  100   203           4.3207113292         117.5725325386      DE        A2 (4)
  101    40           4.3207113292         117.5725325386      DE        A1 (1)
  102    41           4.3883208584         119.4122813600     SG+        A1 (1)
  103   163           4.8874363829         132.9939052576      PI        B2 (3)
  104   111           4.8874363829         132.9939052576      PI        B1 (2)
  105   164           4.9072825625         133.5339472595      PI        B2 (3)
  106   112           4.9072825625         133.5339472596      PI        B1 (2)
  107   204           5.0286347940         136.8361093592      DE        A2 (4)
  108    42           5.0286347940         136.8361093594      DE        A1 (1)
  109    43           5.1834948885         141.0500667632     SG+        A1 (1)
  110    44           5.3796768075         146.3884481760     SG+        A1 (1)
  111   113           5.6428439703         153.5495907432      PI        B1 (2)
  112   165           5.6428439703         153.5495907432      PI        B2 (3)
  113   205           5.8788144086         159.9706728105      PI        A2 (4)
  114    45           5.8788144086         159.9706728105      PI        A1 (1)
  115   166           6.0192969350         163.7933966960      PH        B2 (3)
  116   114           6.0192969350         163.7933966960      PH        B1 (2)
  117    46           6.2276027908         169.4616872023     SG+        A1 (1)
  118   206           6.2479323684         170.0148831340      DE        A2 (4)
  119    47           6.2479323684         170.0148831341      DE        A1 (1)
  120   167           6.2796885045         170.8790115287      PI        B2 (3)
  121   115           6.2796885045         170.8790115287      PI        B1 (2)
  122   168           6.4170352404         174.6164062168      PH        B2 (3)
  123   116           6.4170352404         174.6164062168      PH        B1 (2)
  124   207           6.5459131424         178.1233522202      DE        A2 (4)
  125    48           6.5459131424         178.1233522202      DE        A1 (1)
  126    49           6.6345718818         180.5358791708     SG+        A1 (1)
  127   208           6.8688565714         186.9110896851      DE        A2 (4)
  128    50           6.8688565714         186.9110896851      DE        A1 (1)
  129   169           7.1863249765         195.5498441713      PI        B2 (3)
  130   117           7.1863249765         195.5498441713      PI        B1 (2)
  131    51           7.5318146574         204.9510963405     SG+        A1 (1)
  132   170           8.0454703430         218.9283781358      PI        B2 (3)
  133   118           8.0454703430         218.9283781358      PI        B1 (2)
  134    52           8.2022732688         223.1952026688     SG+        A1 (1)
  135   171          10.0865848556         274.4699277028      PI        B2 (3)
  136   119          10.0865848556         274.4699277031      PI        B1 (2)
  137    53          10.2285391170         278.3326995355     SG+        A1 (1)
  138   209          10.6124764243         288.7801648045      PI        A2 (4)
  139    54          10.6124764243         288.7801648045      PI        A1 (1)
  140   120          10.8064649850         294.0588619051      PH        B1 (2)
  141   172          10.8064649850         294.0588619051      PH        B2 (3)
  142    55          10.9086708099         296.8400237915     SG+        A1 (1)
  143   210          11.0407136700         300.4330926850      DE        A2 (4)
  144    56          11.0407136700         300.4330926851      DE        A1 (1)
  145   173          11.2360229250         305.7477277034      PI        B2 (3)
  146   121          11.2360229250         305.7477277034      PI        B1 (2)
  147    57          11.5180746451         313.4227451985     SG+        A1 (1)
  148   122          11.8590207291         322.7003598076      PH        B1 (2)
  149   174          11.8590207291         322.7003598076      PH        B2 (3)
  150   211          12.1548197621         330.7494607036      DE        A2 (4)
  151    58          12.1548197621         330.7494607038      DE        A1 (1)
  152   175          12.5750925505         342.1856646823      PI        B2 (3)
  153   123          12.5750925505         342.1856646824      PI        B1 (2)
  154   212          12.8022412953         348.3666962658      DE        A2 (4)
  155    59          12.8022412953         348.3666962658      DE        A1 (1)
  156    60          12.9986978717         353.7125514883     SG+        A1 (1)
  157   124          13.4768530956         366.7238166105      PI        B1 (2)
  158   176          13.4768530956         366.7238166105      PI        B2 (3)
  159    61          14.6210732937         397.8596311142     SG+        A1 (1)
  160    62          17.7833075352         483.9083994593     SG+        A1 (1)
  161   125          19.1141445396         520.1223154302      PI        B1 (2)
  162   177          19.1141445396         520.1223154303      PI        B2 (3)
  163    63          20.5137838199         558.2084365070     SG+        A1 (1)
  164   213          26.4115761475         718.6955247468      DE        A2 (4)
  165    64          26.4115761475         718.6955247469      DE        A1 (1)
  166   178          26.8421631745         730.4123934280      PI        B2 (3)
  167   126          26.8421631745         730.4123934280      PI        B1 (2)
  168    65          27.5974098989         750.9637016069     SG+        A1 (1)
  169   179          33.7329294473         917.9196763946      PI        B2 (3)
  170   127          33.7329294473         917.9196763955      PI        B1 (2)
  171    66          34.6353822324         942.4766651301     SG+        A1 (1)
  172    67          36.3297097072         988.5816596529     SG+        A1 (1)
  173   214          47.0935630062        1281.4809986351      DE        A2 (4)
  174    68          47.0935630062        1281.4809986351      DE        A1 (1)
  175   128          47.3953115048        1289.6919927185      PI        B1 (2)
  176   180          47.3953115048        1289.6919927185      PI        B2 (3)
  177    69          48.1334323269        1309.7772814066     SG+        A1 (1)
  178    70          64.0379589302        1742.5614526028     SG+        A1 (1)
  179   129          66.6142084346        1812.6647656019      PI        B1 (2)
  180   181          66.6142084346        1812.6647656020      PI        B2 (3)
  181    71          67.6586602646        1841.0857447911     SG+        A1 (1)
  182   182          98.6109860461        2683.3413487524      PH        B2 (3)
  183   130          98.6109860461        2683.3413487524      PH        B1 (2)
  184   215          98.6263690271        2683.7599409464      DE        A2 (4)
  185    72          98.6263690271        2683.7599409464      DE        A1 (1)
  186   131          98.6649683466        2684.8102818271      PI        B1 (2)
  187   183          98.6649683466        2684.8102818271      PI        B2 (3)
  188    73          98.6862376073        2685.3890478370     SG+        A1 (1)
  189   184         103.2838216201        2810.4956691209      PH        B2 (3)
  190   132         103.2838216201        2810.4956691210      PH        B1 (2)
  191    74         103.3147769332        2811.3380060148      DE        A1 (1)
  192   216         103.3147769332        2811.3380060151      DE        A2 (4)
  193   185         103.3535912715        2812.3941978545      PI        B2 (3)
  194   133         103.3535912715        2812.3941978546      PI        B1 (2)
  195    75         103.3748065817        2812.9714957949     SG+        A1 (1)
  196   217         115.0905667536        3131.7735376561      DE        A2 (4)
  197    76         115.0905667536        3131.7735376562      DE        A1 (1)
  198   186         115.2997689444        3137.4662186767      PI        B2 (3)
  199   134         115.2997689444        3137.4662186767      PI        B1 (2)
  200    77         115.6739394240        3147.6479150547     SG+        A1 (1)
  201   187         116.9919073024        3183.5116443032      PI        B2 (3)
  202   135         116.9919073025        3183.5116443042      PI        B1 (2)
  203    78         117.7048603326        3202.9120825550     SG+        A1 (1)
  204    79         122.5385637170        3334.4438385881     SG+        A1 (1)
  205   218         198.5597063171        5403.0842963858      DE        A2 (4)
  206    80         198.5597063171        5403.0842963859      DE        A1 (1)
  207   136         198.7207578664        5407.4667318418      PI        B1 (2)
  208   188         198.7207578664        5407.4667318419      PI        B2 (3)
  209    81         199.0992491681        5417.7660037650     SG+        A1 (1)
  210    82         216.5414743855        5892.3930815041     SG+        A1 (1)
  211   189         225.0537783853        6124.0246492605      PI        B2 (3)
  212   137         225.0537783853        6124.0246492605      PI        B1 (2)
  213    83         225.8910626966        6146.8083136719     SG+        A1 (1)
  214   190         395.4523471393       10760.8054344363      PI        B2 (3)
  215   138         395.4523471393       10760.8054344384      PI        B1 (2)
  216    84         396.0367245517       10776.7071522576     SG+        A1 (1)
  217    85         509.1298686228       13854.1280554874     SG+        A1 (1)
  218    86         895.3725143886       24364.3247748509     SG+        A1 (1)


  VSCF finished.

 @CHECKOUT-I, Total execution time (CPU/WALL):       49.36/       9.74 seconds.
--executable xvscf finished with status     0 in        9.77 seconds (walltime).
 --invoking executable--
/nfs/workspaces/public/cfour_mpi/bin/xvtran
 @GETMEM-I,  Allocated    3814 MB of main memory.
  Full RHF integral transformation
  Transformation of IIII integrals :
  1 pass through the AO integral file was required.
     4537871 AO integrals were read.
     8774049 MO integrals were written to HF2.
  Transformation of IIJJ integrals :
  1 pass through the AO integral file was required.
    10281506 AO integrals were read.
    14564873 MO integrals were written to HF2.
  Transformation of IJIJ integrals :
  1 pass through the AO integral file was required.
    19512967 AO integrals were read.
    27322438 MO integrals were written to HF2.
  Transformation of IJKL integrals :
  1 pass through the AO integral file was required.
    14441773 AO integrals were read.
    18475850 MO integrals were written to HF2.
  Summary of active molecular orbitals: 
------------------------------------------------------------------------
 
  Index      Eigenvalue    Symmetry    Index      Eigenvalue    Symmetry
------------------------------------------------------------------------
     1       -20.6661538        1       110         4.1529601        2
     2       -11.4221693        1       111         4.1896822        2
     3        -1.4285833        1       112         4.8874364        2
     4        -0.7946911        1       113         4.9072826        2
     5        -0.5652842        1       114         5.6428440        2
     6        -0.5840307        2       115         6.0192969        2
     7        -0.5840307        3       116         6.2796885        2
     8         0.0621514        1       117         6.4170352        2
     9         0.0725235        1       118         7.1863250        2
    10         0.1562986        1       119         8.0454703        2
    11         0.2272571        1       120        10.0865849        2
    12         0.2281848        1       121        10.8064650        2
    13         0.3000296        1       122        11.2360229        2
    14         0.3845946        1       123        11.8590207        2
    15         0.5090501        1       124        12.5750926        2
    16         0.5422702        1       125        13.4768531        2
    17         0.5786406        1       126        19.1141445        2
    18         0.7613470        1       127        26.8421632        2
    19         0.7680835        1       128        33.7329294        2
    20         0.8349949        1       129        47.3953115        2
    21         0.8707407        1       130        66.6142084        2
    22         0.8826645        1       131        98.6109860        2
    23         1.1320428        1       132        98.6649683        2
    24         1.4289973        1       133       103.2838216        2
    25         1.5417076        1       134       103.3535913        2
    26         1.6577771        1       135       115.2997689        2
    27         1.7451166        1       136       116.9919073        2
    28         1.8266188        1       137       198.7207579        2
    29         2.0569817        1       138       225.0537784        2
    30         2.0952445        1       139       395.4523471        2
    31         2.1695535        1       140         0.0536549        3
    32         2.3004222        1       141         0.1070432        3
    33         2.3402306        1       142         0.1679064        3
    34         2.4885786        1       143         0.3075213        3
    35         2.7448224        1       144         0.3959602        3
    36         2.8861552        1       145         0.6253752        3
    37         3.4333874        1       146         0.7452049        3
    38         3.7054729        1       147         0.8066334        3
    39         3.9027399        1       148         0.8923300        3
    40         4.1977805        1       149         1.0485783        3
    41         4.2278696        1       150         1.4369977        3
    42         4.3207113        1       151         1.5694821        3
    43         4.3883209        1       152         1.7021218        3
    44         5.0286348        1       153         2.0380575        3
    45         5.1834949        1       154         2.2389368        3
    46         5.3796768        1       155         2.2941285        3
    47         5.8788144        1       156         2.3115347        3
    48         6.2276028        1       157         2.5577817        3
    49         6.2479324        1       158         2.7197058        3
    50         6.5459131        1       159         3.6750743        3
    51         6.6345719        1       160         4.0840047        3
    52         6.8688566        1       161         4.1529601        3
    53         7.5318147        1       162         4.1896822        3
    54         8.2022733        1       163         4.8874364        3
    55        10.2285391        1       164         4.9072826        3
    56        10.6124764        1       165         5.6428440        3
    57        10.9086708        1       166         6.0192969        3
    58        11.0407137        1       167         6.2796885        3
    59        11.5180746        1       168         6.4170352        3
    60        12.1548198        1       169         7.1863250        3
    61        12.8022413        1       170         8.0454703        3
    62        12.9986979        1       171        10.0865849        3
    63        14.6210733        1       172        10.8064650        3
    64        17.7833075        1       173        11.2360229        3
    65        20.5137838        1       174        11.8590207        3
    66        26.4115761        1       175        12.5750926        3
    67        27.5974099        1       176        13.4768531        3
    68        34.6353822        1       177        19.1141445        3
    69        36.3297097        1       178        26.8421632        3
    70        47.0935630        1       179        33.7329294        3
    71        48.1334323        1       180        47.3953115        3
    72        64.0379589        1       181        66.6142084        3
    73        67.6586603        1       182        98.6109860        3
    74        98.6263690        1       183        98.6649683        3
    75        98.6862376        1       184       103.2838216        3
    76       103.3147769        1       185       103.3535913        3
    77       103.3748066        1       186       115.2997689        3
    78       115.0905668        1       187       116.9919073        3
    79       115.6739394        1       188       198.7207579        3
    80       117.7048603        1       189       225.0537784        3
    81       122.5385637        1       190       395.4523471        3
    82       198.5597063        1       191         0.2272571        4
    83       199.0992492        1       192         0.5422702        4
    84       216.5414744        1       193         0.7613470        4
    85       225.8910627        1       194         0.8826645        4
    86       396.0367246        1       195         1.5417076        4
    87       509.1298686        1       196         1.7451166        4
    88       895.3725144        1       197         2.0952445        4
    89         0.0536549        2       198         2.1695535        4
    90         0.1070432        2       199         2.3402306        4
    91         0.1679064        2       200         2.8861552        4
    92         0.3075213        2       201         3.7054729        4
    93         0.3959602        2       202         4.1977805        4
    94         0.6253752        2       203         4.3207113        4
    95         0.7452049        2       204         5.0286348        4
    96         0.8066334        2       205         5.8788144        4
    97         0.8923300        2       206         6.2479324        4
    98         1.0485783        2       207         6.5459131        4
    99         1.4369977        2       208         6.8688566        4
   100         1.5694821        2       209        10.6124764        4
   101         1.7021218        2       210        11.0407137        4
   102         2.0380575        2       211        12.1548198        4
   103         2.2389368        2       212        12.8022413        4
   104         2.2941285        2       213        26.4115761        4
   105         2.3115347        2       214        47.0935630        4
   106         2.5577817        2       215        98.6263690        4
   107         2.7197058        2       216       103.3147769        4
   108         3.6750743        2       217       115.0905668        4
   109         4.0840047        2       218       198.5597063        4
------------------------------------------------------------------------
  -20.6661538317858       -11.4221693486413       -1.42858326015250     
 -0.794691133210648      -0.565284194571955      -0.584030652433999     
 -0.584030652433992       6.215143600714759E-002  7.252349247430834E-002
  0.156298581028571       0.227257143641797       0.228184758300572     
  0.300029631669111       0.384594589356694       0.509050084851980     
  0.542270193820269       0.578640634463537       0.761347049385671     
  0.768083452769901       0.834994917565436       0.870740656373804     
  0.882664472326358        1.13204279253158        1.42899731714810     
   1.54170757578968        1.65777706808922        1.74511656606106     
   1.82661883289847        2.05698167685650        2.09524448790206     
   2.16955352151865        2.30042218615269        2.34023063762111     
   2.48857858902461        2.74482239256143        2.88615519209452     
   3.43338743193726        3.70547293120167        3.90273988722622     
   4.19778050814776        4.22786964119203        4.32071132916309     
   4.38832085839604        5.02863479404657        5.18349488851112     
   5.37967680746258        5.87881440862352        6.22760279075990     
   6.24793236840930        6.54591314237170        6.63457188181016     
   6.86885657144241        7.53181465740791        8.20227326879631     
   10.2285391170355        10.6124764242789        10.9086708098596     
   11.0407136700391        11.5180746451326        12.1548197620787     
   12.8022412953032        12.9986978717256        14.6210732936922     
[...]
 Convergence information after    10 iterations: 
 Largest element of residual vector : -0.77638772E-05.
 Largest element of DIIS residual   : -0.59602331E-05.
 Convergence information after    11 iterations: 
 Largest element of residual vector : -0.37820095E-05.
 Largest element of DIIS residual   : -0.13319251E-05.
 Convergence information after    12 iterations: 
 Largest element of residual vector : -0.19271958E-05.
 Largest element of DIIS residual   :  0.76557454E-06.
 Convergence information after    13 iterations: 
 Largest element of residual vector :  0.65389634E-06.
 Largest element of DIIS residual   :  0.18603238E-06.
 Convergence information after    14 iterations: 
 Largest element of residual vector :  0.25407312E-06.
 Largest element of DIIS residual   :  0.10001612E-06.
 Convergence information after    15 iterations: 
 Largest element of residual vector :  0.61773222E-07.
 Largest element of DIIS residual   :  0.36623887E-07.
 Perturbed amplitude equations converged in    15 iterations.
  Dominant contributions to perturbed wavefunction:
    7    7  141   28  -0.2180325279 ABAB
    7    7   28  141  -0.2180325279 ABAB
    7    7  140   28  -0.1983467976 ABAB
    7    7   28  140  -0.1983467976 ABAB
    7    7  141   39   0.1770493372 ABAB
    7    7   39  141   0.1770493372 ABAB
    7    7  140   39   0.1550568148 ABAB
    7    7   39  140   0.1550568148 ABAB
    7    7  141   37  -0.1409723041 ABAB
    7    7   37  141  -0.1409723041 ABAB
    7    6   28   90  -0.1399185181 ABAB
    6    7   90   28  -0.1399185181 ABAB
    7    7  141   45   0.1378532002 ABAB
    7    7   45  141   0.1378532002 ABAB
    7    7  141   54  -0.1375311465 ABAB
    7    7   54  141  -0.1375311465 ABAB
    7    6   28   89  -0.1293814064 ABAB
    6    7   89   28  -0.1293814064 ABAB
    7    7  141   20  -0.1284848549 ABAB
    7    7   20  141  -0.1284848549 ABAB
  norm of converged amps    2.11790947345599     
 Starting iterative solution of the perturbed Lambda equations.
 The DIIS procedure is used to accelerate convergence.
 Convergence criterion is 10**(-7).
 Maximum number of iterations is 100.
 Convergence information after     1 iterations: 
 Largest element of residual vector :  0.59627003E-01.
 Largest element of DIIS residual   :  0.59627003E-01.
 Convergence information after     2 iterations: 
 Largest element of residual vector : -0.10652384E-01.
 Largest element of DIIS residual   :  0.67655520E-02.
 Convergence information after     3 iterations: 
 Largest element of residual vector : -0.48666149E-02.
 Largest element of DIIS residual   : -0.43158179E-02.
 Convergence information after     4 iterations: 
 Largest element of residual vector : -0.29965118E-02.
 Largest element of DIIS residual   : -0.24812509E-02.
 Convergence information after     5 iterations: 
 Largest element of residual vector : -0.19839553E-02.
 Largest element of DIIS residual   : -0.10577577E-02.
 Convergence information after     6 iterations: 
 Largest element of residual vector : -0.70908337E-03.
 Largest element of DIIS residual   : -0.23342867E-03.
 Convergence information after     7 iterations: 
 Largest element of residual vector : -0.21415753E-03.
 Largest element of DIIS residual   :  0.10367043E-03.
 Convergence information after     8 iterations: 
 Largest element of residual vector :  0.63635329E-04.
 Largest element of DIIS residual   :  0.33615905E-04.
 Convergence information after     9 iterations: 
 Largest element of residual vector :  0.20287029E-04.
 Largest element of DIIS residual   : -0.66352289E-05.
 Convergence information after    10 iterations: 
 Largest element of residual vector : -0.56378776E-05.
 Largest element of DIIS residual   : -0.49147544E-05.
 Convergence information after    11 iterations: 
 Largest element of residual vector : -0.27150952E-05.
 Largest element of DIIS residual   : -0.12703180E-05.
 Convergence information after    12 iterations: 
 Largest element of residual vector : -0.15684316E-05.
 Largest element of DIIS residual   :  0.11096193E-05.
 Convergence information after    13 iterations: 
 Largest element of residual vector :  0.84126198E-06.
 Largest element of DIIS residual   :  0.47685126E-06.
 Convergence information after    14 iterations: 
 Largest element of residual vector :  0.47910678E-06.
 Largest element of DIIS residual   :  0.25802564E-06.
 Convergence information after    15 iterations: 
 Largest element of residual vector :  0.17025701E-06.
 Largest element of DIIS residual   :  0.86407223E-07.
 Perturbed Lambda equations converged in    15 iterations.
  Dominant contributions to perturbed wavefunction:
    7    7  141   28  -0.2010587906 ABAB
    7    7   28  141  -0.2010587906 ABAB
    7    7  140   28  -0.1841213333 ABAB
    7    7   28  140  -0.1841213333 ABAB
    7    7  141   39   0.1616544661 ABAB
    7    7   39  141   0.1616544661 ABAB
    7    7  140   39   0.1424855321 ABAB
    7    7   39  140   0.1424855321 ABAB
    7    7  141   37  -0.1316532472 ABAB
    7    7   37  141  -0.1316532472 ABAB
    7    7  141   54  -0.1285601895 ABAB
    7    7   54  141  -0.1285601895 ABAB
    7    6   28   90  -0.1269950692 ABAB
    6    7   90   28  -0.1269950692 ABAB
    7    7  141   45   0.1234486938 ABAB
    7    7   45  141   0.1234486938 ABAB
    7    6   28   89  -0.1180618346 ABAB
    6    7   89   28  -0.1180618346 ABAB
    7    7  140   37  -0.1174951737 ABAB
    7    7   37  140  -0.1174951737 ABAB
        The DBOC first-order density matrix is being calculated 
             (Symmetry block 3, perturbation   2)
 term   5.13143145073612     
 final tnorm  0.867618892070194     
  norm contr. I: |<0|L dT/dx|0>|^2   0.000000000000000E+000
  norm contr. II: <0|[nabla(1+L)e-T][nabla e^T]|0>   5.13143145073612     
  total norm contribution   5.13143145073612     
 oo  9.241490361050250E-003
 vv  -38.4890291175833     
 vo  6.238671857892315E-002
  Correlated perturbed 1-el contribution to DBOC  -38.4174009086434       cm**-1
  SUM_I |dc_I/dx|^2 contribution to DBOC   19.3183492823726       cm**-1
 
 
  The total diagonal Born-Oppenheimer correction (DBOC) is:      0.0041390307 a.u.
  The total diagonal Born-Oppenheimer correction (DBOC) is:        908.412228 cm-1
 
 Total CC energy including DBOC  -113.244004598044     
 First-order density matrix is being calculated  (Symmetry block 3, perturbation   2)
 Calculation of the contributions of <pq||rs> to dI(i,j)/dx required   1.5 seconds.
 Calculation of the contributions of <pq||rs> to dI(a,b)/dx required  15.6 seconds.
 Calculation of the contributions of <pq||rs> to dI(i,a)/dx required   9.7 seconds.
 First-order Z-vector equations are solved for 1 perturbation.
 Convergence reached after  18 iterations.
        U*G(pq,rs) contribution is being calculated
             (Symmetry block 3, perturbation   2)

 CCSD contribution to force constants 

        0.0000000000        0.0000000000        0.0000000000
        0.0000000000        0.0000000000        0.0000000000
        0.0000000000        0.0000000000        0.0000000000
        0.0000000000        0.0000000000        0.0000000000
        0.0000000000        0.0000000000        0.0000000000
        0.0000000000        0.0000000000        0.0000000000
        0.0000000000        0.0000000000        0.0000000000
        0.0000000000        0.0000000000        0.0000000000
        0.0000000000        0.0000000000        0.0000000000
        0.0000000000        0.0000000000        0.0000000000
        0.0000000000        0.0000000000        0.0000000000
        0.0000000000        1.4623136881       -1.4623136881

 CCSD contribution to dipole derivatives 

        0.0000000000        0.0000000000        0.0000000000
        0.0000000000        0.0000000000        0.0000000000
        0.0000000000        0.0000000000        0.0000000000
        0.0000000000        0.0000000000       -0.0503990615
        0.0000000000        0.0000000000        0.0000000000
        0.0000000000        0.0000000000        0.0000000000
 @CHECKOUT-I, Total execution time (CPU/WALL):     1005.06/     238.79 seconds.
--executable xsdcc finished with status     0 in      238.82 seconds (walltime).
 --invoking executable--
/nfs/workspaces/public/cfour_mpi/bin/xanti
 @GETMEM-I,  Allocated    3814 MB of main memory.
 CCSD MO derivative gammas will be sorted to Mulliken order.
 @CHECKOUT-I, Total execution time (CPU/WALL):        9.39/       8.53 seconds.
--executable xanti finished with status     0 in        8.55 seconds (walltime).
 --invoking executable--
/nfs/workspaces/public/cfour_mpi/bin/xbcktrn
 @GETMEM-I,  Allocated    3814 MB of main memory.
 CCSD MO derivative gammas will be transformed to the AO basis.
 @CHECKOUT-I, Total execution time (CPU/WALL):       21.18/       5.84 seconds.
--executable xbcktrn finished with status     0 in        5.85 seconds (walltime).
 --invoking executable--
/nfs/workspaces/public/cfour_mpi/bin/xvdint
 @GETMEM-I,  Allocated    3814 MB of main memory.
 One- and two-electron integral derivatives are calculated
 for RHF-CC/MBPT hessians and dipole derivatives.
 Spherical gaussians are used.
  magnet F F
                    8722  records have been written to the Sort file.
  Total length of Sort file :             178609116  words.
 Evaluation of 2el integral derivatives

                      Two-electron integral gradient
                      ------------------------------

                         C #1 z     0.0000000000
                         O #2 z     0.0000000000


 C #1       0.0000000000           -0.2501190650            0.0000000000
 O #2       0.0000000000            0.2501190650            0.0000000000


 Evaluation of 2e integral derivatives required  356.49 seconds.
  contribution to Hessian
        0.0000000000        0.0000000000        0.0000000000
        0.0000000000       -0.2501190650        0.2501190650
 @CHECKOUT-I, Total execution time (CPU/WALL):      356.48/      72.17 seconds.
--executable xvdint finished with status     0 in       72.19 seconds (walltime).
 --invoking executable--
/nfs/workspaces/public/cfour_mpi/bin/xanti
 @GETMEM-I,  Allocated    3814 MB of main memory.
 CCSD MO gammas will be sorted to Mulliken order.
 @CHECKOUT-I, Total execution time (CPU/WALL):       11.45/      10.05 seconds.
--executable xanti finished with status     0 in       10.07 seconds (walltime).
 --invoking executable--
/nfs/workspaces/public/cfour_mpi/bin/xbcktrn
 @GETMEM-I,  Allocated    3814 MB of main memory.
 CCSD MO gammas will be transformed to the AO basis.
 @CHECKOUT-I, Total execution time (CPU/WALL):       29.07/       5.42 seconds.
--executable xbcktrn finished with status     0 in        5.44 seconds (walltime).
 --invoking executable--
/nfs/workspaces/public/cfour_mpi/bin/xvdint
 @GETMEM-I,  Allocated    3814 MB of main memory.
 One- and two-electron integral derivatives are calculated
 for RHF-CC/MBPT hessians and dipole derivatives.
 Spherical gaussians are used.
  magnet F F

                     Kinetic energy integral gradient
                     --------------------------------

                         C #1 z    -1.0985709397
                         O #2 z     1.0985709397


 C #1       0.0000000000            0.0000000000           -1.0985709397
 O #2       0.0000000000            0.0000000000            1.0985709397



                   Nuclear attraction integral gradient
                   ------------------------------------

                         C #1 z    19.9520163479
                         O #2 z   -19.9520163479


 C #1       0.0000000000            0.0000000000           19.9520163479
 O #2       0.0000000000            0.0000000000          -19.9520163479



                      Reorthonormalization gradient
                      -----------------------------

                         C #1 z     0.0000000000
                         O #2 z     0.0000000000


 C #1       0.0000000000            0.0000000000            0.0000000000
 O #2       0.0000000000            0.0000000000            0.0000000000



                     Kinetic energy integral Hessian
                     -------------------------------


           Symmetry 1

           C #1 z      O #2 z

 C #1 z    1.002695
 O #2 z   -1.002695    1.002695


           Symmetry 2

           C #1 x      O #2 x

 C #1 x   -1.195356
 O #2 x    1.195356   -1.195356


           Symmetry 3

           C #1 y      O #2 y

 C #1 y   -1.195356
 O #2 y    1.195356   -1.195356




           C #1 x      C #1 y      C #1 z      O #2 x      O #2 y      O #2 z

 C #1 x   -1.195356
 C #1 y    0.000000   -1.195356
 C #1 z    0.000000    0.000000    1.002695

 O #2 x    1.195356    0.000000    0.000000   -1.195356
 O #2 y    0.000000    1.195356    0.000000    0.000000   -1.195356
 O #2 z    0.000000    0.000000   -1.002695    0.000000    0.000000    1.002695




                   Nuclear attraction integral Hessian
                   -----------------------------------


           Symmetry 1

           C #1 z      O #2 z

 C #1 z  -12.128807
 O #2 z   12.128807  -12.128807


           Symmetry 2

           C #1 x      O #2 x

 C #1 x   14.898368
 O #2 x  -14.898368   14.898368


           Symmetry 3

           C #1 y      O #2 y

 C #1 y   14.898368
 O #2 y  -14.898368   14.898368




           C #1 x      C #1 y      C #1 z      O #2 x      O #2 y      O #2 z

 C #1 x   14.898368
 C #1 y    0.000000   14.898368
 C #1 z    0.000000    0.000000  -12.128807

 O #2 x  -14.898368    0.000000    0.000000   14.898368
 O #2 y    0.000000  -14.898368    0.000000    0.000000   14.898368
 O #2 z    0.000000    0.000000   12.128807    0.000000    0.000000  -12.128807




                Highest order reorthonormalization Hessian
                ------------------------------------------


           Symmetry 1

           C #1 z      O #2 z

 C #1 z    0.000000
 O #2 z    0.000000    0.000000


           Symmetry 2

           C #1 x      O #2 x

 C #1 x    0.000000
 O #2 x    0.000000    0.000000


           Symmetry 3

           C #1 y      O #2 y

 C #1 y    0.000000
 O #2 y    0.000000    0.000000




           C #1 x      C #1 y      C #1 z      O #2 x      O #2 y      O #2 z




                Electronic contributions to dipole moment
                -----------------------------------------

                               au             Debye

                    z      0.13789220      0.35048707

  Conversion factor used: 1 a.u. =   2.54174691 Debye 



   Electronic contributions to static part of dipole moment derivatives
   --------------------------------------------------------------------


                     Total dipole moment derivatives
                     -------------------------------


           Symmetry 1
                              Ez

               C #1 z    -5.67441275
               O #2 z    -8.32558725

           Symmetry 2
                              Ex

               C #1 x    -5.71780328
               O #2 x    -8.28219672

           Symmetry 3
                              Ey

               C #1 y    -5.71780328
               O #2 y    -8.28219672



                       Ex          Ey          Ez

      C #1    x   -5.717803    0.000000    0.000000
      C #1    y    0.000000   -5.717803    0.000000
      C #1    z    0.000000    0.000000   -5.674413

      O #2    x   -8.282197    0.000000    0.000000
      O #2    y    0.000000   -8.282197    0.000000
      O #2    z    0.000000    0.000000   -8.325587

 Evaluation of 1e integral derivatives required    1.68 seconds.
                    8815  records have been written to the Sort file.
  Total length of Sort file :             180513570  words.
 Evaluation of 2el integral derivatives

                      Two-electron integral gradient
                      ------------------------------

                         C #1 z    -9.8934105314
                         O #2 z     9.8934105314


 C #1       0.0000000000            0.0000000000           -9.8934105314
 O #2       0.0000000000            0.0000000000            9.8934105314


 Evaluation of 2e integral derivatives required  675.76 seconds.

                            Molecular gradient
                            ------------------

                         C #1 z     0.6579611708
                         O #2 z    -0.6579611708


 C #1       0.0000000000            0.0000000000            0.6579611708
 O #2       0.0000000000            0.0000000000           -0.6579611708


  Molecular gradient norm 0.930E+00

                            Molecular hessian
                            -----------------


           Symmetry 1

           C #1 z      O #2 z

 C #1 z   44.512027
 O #2 z  -44.512027   44.512027


           Symmetry 2

           C #1 x      O #2 x

 C #1 x   -0.935546
 O #2 x    0.935546   -0.935546


           Symmetry 3

           C #1 y      O #2 y

 C #1 y   -0.935546
 O #2 y    0.935546   -0.935546




           C #1 x      C #1 y      C #1 z      O #2 x      O #2 y      O #2 z

 C #1 x   -0.935546
 C #1 y    0.000000   -0.935546
 C #1 z    0.000000    0.000000   44.512027

 O #2 x    0.935546    0.000000    0.000000   -0.935546
 O #2 y    0.000000    0.935546    0.000000    0.000000   -0.935546
 O #2 z    0.000000    0.000000  -44.512027    0.000000    0.000000   44.512027




                           Total dipole moment
                           -------------------

                               au             Debye

                    z      0.13527147      0.34382584

  Conversion factor used: 1 a.u. =   2.54174691 Debye 



                     Total dipole moment derivatives
                     -------------------------------


           Symmetry 1
                              Ez

               C #1 z     0.70969661
               O #2 z    -0.70969661

           Symmetry 2
                              Ex

               C #1 x     0.05490432
               O #2 x    -0.05490432

           Symmetry 3
                              Ey

               C #1 y     0.05490432
               O #2 y    -0.05490432



                       Ex          Ey          Ez

      C #1    x    0.054904    0.000000    0.000000
      C #1    y    0.000000    0.054904    0.000000
      C #1    z    0.000000    0.000000    0.709697

      O #2    x   -0.054904    0.000000    0.000000
      O #2    y    0.000000   -0.054904    0.000000
      O #2    z    0.000000    0.000000   -0.709697

 @CHECKOUT-I, Total execution time (CPU/WALL):      677.44/     113.82 seconds.
--executable xvdint finished with status     0 in      113.84 seconds (walltime).
 --invoking executable--
/nfs/workspaces/public/cfour_mpi/bin/xjoda
  @GTFLGS-I, Hessian will be transformed to curvilinear coordinates.
  @GTFLGS-I, Hessian will be transformed to curvilinear coordinates.
  igrd and ihes are                      0                     1
  gradient from JOBARC 
   0.000000000000000   0.000000000000000   0.657961170755028
   0.000000000000000   0.000000000000000  -0.657961170755028
 
  @PROJFCM-I, Projecting force constant matrix onto totally symmetric subspace.
  Largest difference between matrix elements of symmetrized
  and unsymmetrized FCM :     0.5435096817E-11.
  read isotopes from ZMAT file 
 
  Summary of diagonal Born-Oppenheimer correction at the correlated level
  The total diagonal Born-Oppenheimer correction (DBOC) is:      0.0041390307 a.u.
  The total diagonal Born-Oppenheimer correction (DBOC) is:        908.412228 cm-1
  The total diagonal Born-Oppenheimer correction (DBOC) is:            10.867 kJ/mole
  hellooooooo 
  readis is  F
 
 @CHECKOUT-I, Total execution time (CPU/WALL):        0.01/       0.04 seconds.
--executable xjoda finished with status     0 in        0.06 seconds (walltime).
  The final electronic energy is      -113.244004598044143 a.u. 
  This computation required                         2527.72 seconds (walltime).
