 --invoking executable--
/nfs/workspaces/public/cfour_mpi/bin/xjoda


   *************************************************************************
         <<<     CCCCCC     CCCCCC   |||     CCCCCC     CCCCCC   >>>
       <<<      CCC        CCC       |||    CCC        CCC         >>>
      <<<      CCC        CCC        |||   CCC        CCC            >>>
    <<<        CCC        CCC        |||   CCC        CCC              >>>
      <<<      CCC        CCC        |||   CCC        CCC            >>>
       <<<      CCC        CCC       |||    CCC        CCC         >>>
         <<<     CCCCCC     CCCCCC   |||     CCCCCC     CCCCCC   >>>
   *************************************************************************

     ****************************************************************
     * CFOUR Coupled-Cluster techniques for Computational Chemistry *
     ****************************************************************
 

   Department of Chemistry                Institut fuer Physikalische Chemie
   University of Florida                  Universitaet Mainz
   Gainesville, FL 32611, USA             D-55099 Mainz, Germany

   Department of Chemistry                Fakultaet fuer Chemie und Biowiss.
   Johns Hopkins University               Karlsruher Institut fuer Technologie
   Baltimore, MD 21218, USA               D-76131 Karlsruhe, Germany

   Department of Chemistry                Department of Physical Chemistry
   Southern Methodist University          Eotvos Lorand University
   Dallas, TX 75275, USA                  H-1053 Budapest, Hungary

 
                       Version 2.1
 
                     vincent.theory.phys.ucl.ac.uk                     
                     Tue 25 Feb 03:02:29 GMT 2025                      
                     integer*8 version is running
 
********************************************************************************
*                          Input from ZMAT file                                *
********************************************************************************
Carbon Monoxide DBOC calculation                                                
C                                                                               
O 1 r                                                                           
                                                                                
r=1.1793103448275861                                                            
                                                                                
                                                                                
*CFOUR(CALC=CCSD,BASIS=AUG-PCVQZ,SCF_CONV=10                                    
CC_CONV=14,DBOC=ON,MEMORY=500000000                                             
ZFIELD=-200)                                                                    
                                                                                
%isotopes                                                                       
12                                                                              
16                                                                              
********************************************************************************
  @GTFLGS-I, Hessian will be transformed to curvilinear coordinates.
    -------------------------------------------------------------------
                    CFOUR Control Parameters 
    -------------------------------------------------------------------
        External           Internal           Value            Units
          Name               Name
    -------------------------------------------------------------------
       ABCDTYPE             IABCDT         STANDARD    [  0]    ***   
       ANHARMONIC           IANHAR         OFF         [  0]    ***   
       ANH_ALGORIT          IANALG         STANDARD    [  0]    ***   
       ANH_DERIVAT          IANDER         SECOND      [  1]    ***   
       ANH_MODE             ANHMOD         VIBRATION   [  0]    ***   
       ANH_STEPSIZ          ICUBST             50000          x 10-6  
       ANH_SYMMETR          IANHSM         ABELIAN     [  0]    ***   
       AO_LADDERS           IAOLAD         SINGLEPASS  [  1]    ***   
       AV_SCF               IAVSCF         OFF         [  0]    ***   
       BASIS                IBASIS         AUG-PCVQZ   [ 52]    ***   
       BOTHVECTORS          BOTHVC         OFF         [  0]    ***   
       BOX_POTENT           IPIAB          OFF         [  0]    ***   
       BREIT                IBREIT         OFF         [  0]    ***   
       BRUCK_CONV           IBRTOL          10D-  4             ***   
       BRUECKNER            IBRKNR         OFF         [  0]    ***   
       BUFFERSIZE           IBUFFS              4096            ***   
       CACHE_RECS           ICHREC             10               ***   
       CALCLEVEL            ICLLVL         CCSD        [ 10]    ***   
       CCORBOPT             ICCORB         OFF         [  0]  x 0.01  
       CC_CONV              ICCCNV          10D- 14             ***   
       CC_EXPORDER          ICCEOR              5               ***   
       CC_EXTRAPOL          ICCEXT         DIIS        [  1]    ***   
       CC_GUESS             ICCGES         MP2         [  0]    ***   
       CC_MAXCYC            ICCCYC            100              cycles 
       CC_PROGRAM           ICCPRO         VCC         [  0]    ***   
       CHARGE               ICHRGE              0               ***   
       CHOLESKY             ICHOLE         OFF         [  0]    ***   
       CIS_CONV             ICISTL              5               ***   
       COMM_SIZE            IPSIZE            ***               ***   
       CONSTANT             ICONST         OLD         [  1]    ***   
       CONTINUUM            ICONTU         NONE        [  0]    ***   
       CONTRACTION          ICNTYP         GENERAL     [  1]    ***   
       COORDINATES          ICOORD         INTERNAL    [  0]    ***   
       CPHF_CONVER          ICPHFT          10D- 16             ***   
       CPHF_MAXCYC          ICPHFC             64              cycles 
       CUBIC                ICUBIC         OFF         [  0]    ***   
       CURVILINEAR          ICURVY         ON          [  1]    ***   
       DBOC                 IDBOC          ON          [  1]    ***   
       DCT                  IDCT           OFF         [  0]    ***   
       DERIV_LEV            IDRLVL         SECOND      [  2]    ***   
       DEVMEM_SIZE          IDVMEM          50000000           MByte  
       DIAG_MRCC            IEOMST          10D-  0             ***   
       DIFF_TYPE            IDIFTY         RELAXED     [  0]    ***   
       DIRECT               IDIRCT         OFF         [  0]    ***   
       DROPMO               IDRPMO      NONE         
       ECP                  IECP           OFF         [  0]    ***   
       EIGENVECTOR          IVEC                1               ***   
       EL_ANHARM            IELANH         OFF         [  0]    ***   
       EOMFOLLOW            IEOMSR         ENERGY      [  0]    ***   
       EOMIP                IEOMIP         OFF         [  0]    ***   
       EOMLEVEL             HBARFM         SAME        [  0]    ***   
       EOM_MRCC             IMRCCE         NEW         [  1]    ***   
       EOM_NONIT            EOMNON         OFF         [  0]    ***   
       EOM_NSING            IEOMSI          10D-  0             ***   
       EOM_NSTATES          IMRCCD         DAVIDSON    [  0]    ***   
       EOM_NTRIP            IEOMTR          10D-  0             ***   
       EOM_ORDER            IEXORD         ENERGY      [  0]    ***   
       EOM_PROPSTA          IEOMST              0               ***   
       ESTATE_CONV          IEXTOL          10D-  5             ***   
       ESTATE_DIAG          IEXDIG         ITERATIVE   [  0]    ***   
       ESTATE_LOCK          IESLOC         ON          [  1]    ***   
       ESTATE_MAXC          IEXMXC             40               ***   
       ESTATE_PROP          IEXPRP         OFF         [  0]    ***   
       EVAL_HESS            IRECAL              0            # of cyc.
       EXCITATION           IEXCIT              0               ***   
       EXCITE               IEXCIT         NONE        [  0]    ***   
       EXTERN_POT           IEXPOT         OFF         [  0]    ***   
       FCGRADNEW            IFCGNW         OFF         [  0]    ***   
       FC_FIELD             IFINFC              0             x 10-6  
       FD_CALTYPE           IFDCAL         GRADONLY    [  0]    ***   
       FD_PROJECT           IFDPRJ         OFF         [  1]    ***   
       FD_STEPSIZE          IDISFD              0            10-4 bohr
       FD_USEGROUP          IFDGRP         FULL        [  0]    ***   
       FILE_RECSIZ          IFLREC              4096           words  
       FINITE_PERT          IFIPER              0             x 10-6  
       FIXGEOM              IFIXGM         OFF         [  0]    ***   
       FOCK                 IFOCK          AO          [  1]    ***   
       FREQ_ALGORI          IVIALG         STANDARD    [  0]    ***   
       FROZEN_CORE          IFROCO         OFF         [  0]    ***   
       GAMMA_ABCD           IGABCD         STORE       [  0]    ***   
       GAMMA_ABCI           IGABCI         STORE       [  0]    ***   
       GENBAS_1             IGNBS1              0               ***   
       GENBAS_2             IGNBS2              0               ***   
       GENBAS_3             IGNBS3              0               ***   
       GENBAS_4             IGNBS4              0               ***   
       GEO_CONV             ICONTL              5              H/bohr 
       GEO_MAXCYC           IOPTCY             50               ***   
       GEO_MAXSTEP          IMXSTP            300            millibohr
       GEO_METHOD           INR            SINGLE_POINT[  5]    ***   
       GIAO                 IGIAO          OFF         [  1]    ***   
       GIMIC                IGIMIC         OFF         [  0]    ***   
       GRID                 IGRID          OFF         [  0]    ***   
       GRID_ALGO            IGALGO         SERIAL      [  0]    ***   
       GUESS                IGUESS         MOREAD      [  0]    ***   
       HBAR                 IHBAR          OFF         [  0]    ***   
       HESS_TYPE            IHESTP         SCF         [  0]    ***   
       HF2_FILE             IHF2Fl         USE         [  1]    ***   
       HFSTABILITY          ISTABL         OFF         [  0]    ***   
       INCORE               INCORE         OFF         [  0]    ***   
       INPUT_MRCC           IMRCC          ON          [  1]    ***   
       INTEGRALS            INTTYP         VMOL        [  1]    ***   
       JODA_PRINT           IJPRNT              0               ***   
       KEYWORD_OUT          IDMPKW         NO          [  0]    ***   
       LINDEP_TOL           ILINDP              8               ***   
       LINEQ_CONV           IZTACN          10D-  7           cycles  
       LINEQ_EXPOR          ILMAXD              5               ***   
       LINEQ_MAXCY          ILMAXC            100               ***   
       LINEQ_TYPE           ILTYPE         DIIS        [  1]    ***   
       LOCK_ORBOCC          ILOCOC         OFF         [  0]    ***   
       MEMORY_SIZE          IMEMSZ         500000000           words  
       MEM_UNIT             IMEMU          INTEGERWORDS[  0]    ***   
       MRCC                 IMRCCC         OFF         [  0]    ***   
       MULTIPLICTY          IMULTP              1               ***   
       NACOUPLING           IVCOUP         OFF         [  0]    ***   
       NEGEVAL              IDIE           ABORT       [  0]    ***   
       NEWNORM              INEWNO         OFF         [  0]    ***   
       NON-HF               INONHF         OFF         [  0]    ***   
       NTOP_TAMP            ITOPT2             15               ***   
       NUC_MODEL            INUCMO         POINT       [  0]    ***   
       OCCUPATION           IOCCU   ESTIMATED BY SCF 
       OPEN-SHELL           IOPEN          SPIN-ORBITAL[  0]    ***   
       OPTVIB               IOPTVB         OFF         [  0]    ***   
       ORBITALS             IORBTP         STANDARD    [  0]    ***   
       PARALLEL             IPARAL         ON          [  1]    ***   
       PARA_INT             IPINTS         ON          [  1]    ***   
       PARA_PRINT           IPPRIN              0               ***   
       PERT_ORB             IPTORB         STANDARD    [  0]    ***   
       POINTS               IGRDFD              0               ***   
       PRINT                IPRNT               0               ***   
       PROPS                IPROPS         OFF         [  0]    ***   
       PROP_INTEGR          IINTYP         INTERNAL    [  0]    ***   
       PSI                  IPSI           OFF         [  0]    ***   
       QC_ALG               IQCALG         FLM         [  0]    ***   
       QC_LINALG            IQCLIN         TRIDIAG     [  2]    ***   
       QC_MAXCYC            IQCMAX          10D-100           cycles  
       QC_MAXSCFCY          IQCMSC          10D- 15           cycles  
       QC_RTRUST            IQCRTR          10D-  0           x 10-3  
       QC_SKIPSCF           IQCSKI         OFF         [  0]    ***   
       QC_START             IQCSTA          10D-  1             ***   
       QRHFGUESS            IQGUES         OFF         [  0]    ***   
       QUARTIC              IQUART         OFF         [  0]    ***   
       RAMAN_INT            IRAMIN         OFF         [  0]    ***   
       RAMAN_ORB            IRAMRE         UNRELAXED   [  0]    ***   
       RDO                  IRDOFM         ON          [  1]    ***   
       REDUCE_REPR          REDREP         Ir          [  0]    ***   
       REFERENCE            IREFNC         RHF         [  0]    ***   
       RELATIVIST           IRELAT         OFF         [  0]    ***   
       RELAX_DENS           IRDENS         ON          [  1]    ***   
       RESET_FLAGS          IRESET         OFF         [  0]    ***   
       RESTART_CC           ICCRES         OFF         [  0]    ***   
       ROT_EVEC             ROTVEC              0               ***   
       SAVE_INTS            ISVINT         OFF         [  0]    ***   
       SCALE_ON             ISTCRT              0               ***   
       SCF_CONV             ISCFCV          10D- 10             ***   
       SCF_DAMPING          IDAMP               0             x 10-3  
       SCF_EXPORDE          IRPPOR              6               ***   
       SCF_EXPSTAR          IRPPLS              8               ***   
       SCF_EXTRAPO          IRPP           ON          [  1]    ***   
       SCF_MAXCYC           ISCFCY            150              cycles 
       SCF_NOSTOP           ISCFST         OFF         [  0]    ***   
       SCF_PRINT            ISCFPR              0               ***   
       SCF_PROG             ISCFPR         SCF         [  0]    ***   
       SD_FIELD             IFINSD              0             x 10-6  
       SOPERT               IPERSO         OFF         [  0]    ***   
       SPHERICAL            IDFGHI         ON          [  1]    ***   
       SPINORBIT            ISOCAL         OFF         [  0]    ***   
       SPINROTATIO          ISRCON         OFF         [  0]    ***   
       SPIN_FLIP            ISPFLP         OFF         [  0]    ***   
       SPIN_ORBIT           ISPORB         OFF         [  0]    ***   
       SPIN_SCAL            ISCSMP         OFF         [  0]    ***   
       STEEPSCALE           ISTPSC              1000          x 10-3  
       SUBGROUP             ISUBGP         DEFAULT     [  0]    ***   
       SUBGRPAXIS           ISBXYZ         X           [  0]    ***   
       SYMMETRY             ISYM           ON          [  0]    ***   
       SYM_CHECK            ISYMCK         OVERRIDE    [  1]    ***   
       T3_EXTRAPOL          IT3EXT         OFF         [  0]    ***   
       T4_EXTRAPOL          IT4EXP         OFF         [  0]    ***   
       TAMP_SUM             IEVERY              5               ***   
       TESTSUITE            ITESTS         OFF         [  0]    ***   
       THERMOCH             ITHERM         OFF         [  0]    ***   
       TOL_CHOLESK          ITOLCH          10D-  4             ***   
       TRANGRAD             IRESRM         OFF         [  0]    ***   
       TRANS_INV            ITRAIN         IGNORE      [  1]    ***   
       TREAT_PERT           ITREAT         SIMULTANEOUS[  0]    ***   
       TRIP_ALGORI          ITRALG         NORMAL      [  0]    ***   
       UIJ_THRESHO          IUIJTH              1               ***   
       UNITS                IUNITS         ANGSTROM    [  0]    ***   
       UNOS                 IUNOS          OFF         [  0]    ***   
       UPDATE_HESS          IHUPDT         ON          [  1]    ***   
       VIBPHASE             ISETPH         STANDARD    [  0]    ***   
       VIBRATION            IVIB           ANALYTIC    [  1]    ***   
       VIB_ALGORIT          IGEALG         STANDARD    [  0]    ***   
       VNATORB              IVNORB         OFF         [  0]    ***   
       VTRAN                IVTRAN         FULL/PARTIAL[  0]    ***   
       XFIELD               IXEFLD              0             x 10-6  
       XFORM_TOL            IXFTOL          10D- 11             ***   
       YFIELD               IYEFLD              0             x 10-6  
       ZFIELD               IZEFLD            ***             x 10-6  
       ZSCALE_EXP           IZEXPS         OFF         [  0]    ***   
    -------------------------------------------------------------------
   2 entries found in Z-matrix 
   Job Title : Carbon Monoxide DBOC calculation                                                
   There are  1 unique internal coordinates.
   Of these,  0 will be optimized.
   User supplied Z-matrix: 
--------------------------------------------------------------------------------
       SYMBOL    BOND      LENGTH    ANGLE     ANGLE     DIHED     ANGLE
                  TO      (ANGST)    WRT      (DEG)      WRT      (DEG)
--------------------------------------------------------------------------------
        C    
        O          1         r    
                  *Initial values for internal coordinates* 
                      Name             Value
                        r               1.1793103448
--------------------------------------------------------------------------------
  read isotopes from ZMAT file 
   Rotational constants (in cm-1): 
          1.7678943742             1.7678943742
   Rotational constants (in MHz): 
      53000.1474178342         53000.1474178342
********************************************************************************
   The full molecular point group is CXv .
   The largest Abelian subgroup of the full molecular point group is C2v .
   The computational point group is C2v .
********************************************************************************
--------------------------------------------------------------------------------
   Analysis of internal coordinates specified by Z-matrix 
--------------------------------------------------------------------------------
   *The nuclear repulsion energy is   21.538436350877191 a.u.
   *There is   1 degree of freedom within the tot. symm. molecular subspace.
   *Z-matrix requests optimization of   0 coordinates.
   *The optimization is constrained.
   *The following   1 parameters can have non-zero 
    derivatives within the totally symmetric subspace:
             r    [ 1]
   *The following   0 parameters are to be optimized:

   *The following coordinates must be varied in an  unconstrained optimization.
             r    [ 1]
--------------------------------------------------------------------------------


 ----------------------------------------------------------------
         Coordinates used in calculation (QCOMP) 
 ----------------------------------------------------------------
 Z-matrix   Atomic            Coordinates (in bohr)
  Symbol    Number           X              Y              Z
 ----------------------------------------------------------------
     C         6        -0.00000000     0.00000000     1.27329738
     O         8         0.00000000     0.00000000    -0.95527666
 ----------------------------------------------------------------
 
   Interatomic distance matrix (Angstroms) 
 
                 C             O    
                [ 1]        [ 2]
  C    [ 1]     0.00000
  O    [ 2]     1.17931     0.00000
 rotcon2
   Rotational constants (in cm-1): 
          1.7678943742             0.0000000000
   Rotational constants (in MHz): 
      53000.1474178342             0.0000000000
  ECPDATA file not present.   Using default ECPDATA. 
  @GTFLGS-I, Hessian will be transformed to curvilinear coordinates.
  There are  218 basis functions.
 @CHECKOUT-I, Total execution time (CPU/WALL):        0.11/       0.17 seconds.
--executable xjoda finished with status     0 in        0.18 seconds (walltime).
 --invoking executable--
/nfs/workspaces/public/cfour_mpi/bin/xvmol
 SERIAL VERSION OF MOLECULE STARTED
********************************************************************************
                    INPUT FROM MOL FILE
********************************************************************************
INTGRL        1    0    1    0    0    0    0    0    0                         
         *** CFOUR Program System (Release V0.1) ***                            
Carbon Monoxide DBOC calculation                                                
    2    2 X  Y       0.10E-08              0    0                              
   9999.00      3.00                                                            
          6.00000000    1    5    1    1    1    1    1                         
C #1  -0.000000000000000   0.000000000000000   1.273297379294619                
   16    9                                                                      
   33980.0000000000       9.100000000000000E-005 -1.900000000000000E-005        
  0.000000000000000E+000  0.000000000000000E+000  0.000000000000000E+000        
  0.000000000000000E+000  0.000000000000000E+000  0.000000000000000E+000        
  0.000000000000000E+000                                                        
   5089.00000000000       7.040000000000000E-004 -1.510000000000000E-004        
  0.000000000000000E+000  0.000000000000000E+000  0.000000000000000E+000        
  0.000000000000000E+000  0.000000000000000E+000  0.000000000000000E+000        
  0.000000000000000E+000                                                        
   1157.00000000000       3.693000000000000E-003 -7.850000000000000E-004        
  0.000000000000000E+000  0.000000000000000E+000  0.000000000000000E+000        
  0.000000000000000E+000  0.000000000000000E+000  0.000000000000000E+000        
  0.000000000000000E+000                                                        
   326.600000000000       1.536000000000000E-002 -3.324000000000000E-003        
  0.000000000000000E+000  0.000000000000000E+000  0.000000000000000E+000        
  0.000000000000000E+000  0.000000000000000E+000  0.000000000000000E+000        
  0.000000000000000E+000                                                        
   106.100000000000       5.292900000000000E-002 -1.151200000000000E-002        
  0.000000000000000E+000  0.000000000000000E+000  0.000000000000000E+000        
  0.000000000000000E+000  0.000000000000000E+000  0.000000000000000E+000        
  0.000000000000000E+000                                                        
   38.1100000000000       0.147043000000000      -3.416000000000000E-002        
  0.000000000000000E+000  0.000000000000000E+000  0.000000000000000E+000        
  0.000000000000000E+000  0.000000000000000E+000  0.000000000000000E+000        
  0.000000000000000E+000                                                        
   14.7500000000000       0.305631000000000      -7.717300000000001E-002        
  0.000000000000000E+000  0.000000000000000E+000  0.000000000000000E+000        
  0.000000000000000E+000  0.000000000000000E+000  0.000000000000000E+000        
  0.000000000000000E+000                                                        
   6.03500000000000       0.399345000000000      -0.141493000000000             
  0.000000000000000E+000  0.000000000000000E+000  0.000000000000000E+000        
  0.000000000000000E+000  0.000000000000000E+000  0.000000000000000E+000        
  0.000000000000000E+000                                                        
   2.53000000000000       0.217051000000000      -0.118019000000000             
  0.000000000000000E+000  0.000000000000000E+000  0.000000000000000E+000        
  0.000000000000000E+000  0.000000000000000E+000  0.000000000000000E+000        
  0.000000000000000E+000                                                        
  0.735500000000000       1.589400000000000E-002  0.273806000000000             
   1.00000000000000       0.000000000000000E+000  0.000000000000000E+000        
  0.000000000000000E+000  0.000000000000000E+000  0.000000000000000E+000        
  0.000000000000000E+000                                                        
  0.290500000000000      -3.084000000000000E-003  0.586510000000000             
  0.000000000000000E+000   1.00000000000000       0.000000000000000E+000        
  0.000000000000000E+000  0.000000000000000E+000  0.000000000000000E+000        
  0.000000000000000E+000                                                        
  0.111100000000000       9.779999999999999E-004  0.285430000000000             
  0.000000000000000E+000  0.000000000000000E+000   1.00000000000000             
  0.000000000000000E+000  0.000000000000000E+000  0.000000000000000E+000        
  0.000000000000000E+000                                                        
   7.21600000000000       0.000000000000000E+000  0.000000000000000E+000        
  0.000000000000000E+000  0.000000000000000E+000  0.000000000000000E+000        
   1.00000000000000       0.000000000000000E+000  0.000000000000000E+000        
  0.000000000000000E+000                                                        
   19.5700000000000       0.000000000000000E+000  0.000000000000000E+000        
  0.000000000000000E+000  0.000000000000000E+000  0.000000000000000E+000        
  0.000000000000000E+000   1.00000000000000       0.000000000000000E+000        
  0.000000000000000E+000                                                        
   53.0730000000000       0.000000000000000E+000  0.000000000000000E+000        
  0.000000000000000E+000  0.000000000000000E+000  0.000000000000000E+000        
  0.000000000000000E+000  0.000000000000000E+000   1.00000000000000             
  0.000000000000000E+000                                                        
  4.145000000000000E-002  0.000000000000000E+000  0.000000000000000E+000        
  0.000000000000000E+000  0.000000000000000E+000  0.000000000000000E+000        
  0.000000000000000E+000  0.000000000000000E+000  0.000000000000000E+000        
   1.00000000000000                                                             
   10    8                                                                      
   34.5100000000000       5.378000000000000E-003  0.000000000000000E+000        
  0.000000000000000E+000  0.000000000000000E+000  0.000000000000000E+000        
  0.000000000000000E+000  0.000000000000000E+000  0.000000000000000E+000        
   7.91500000000000       3.613200000000000E-002  0.000000000000000E+000        
  0.000000000000000E+000  0.000000000000000E+000  0.000000000000000E+000        
  0.000000000000000E+000  0.000000000000000E+000  0.000000000000000E+000        
   2.36800000000000       0.142493000000000       0.000000000000000E+000        
  0.000000000000000E+000  0.000000000000000E+000  0.000000000000000E+000        
  0.000000000000000E+000  0.000000000000000E+000  0.000000000000000E+000        
  0.813200000000000       0.342150000000000        1.00000000000000             
  0.000000000000000E+000  0.000000000000000E+000  0.000000000000000E+000        
  0.000000000000000E+000  0.000000000000000E+000  0.000000000000000E+000        
  0.289000000000000       0.463864000000000       0.000000000000000E+000        
   1.00000000000000       0.000000000000000E+000  0.000000000000000E+000        
  0.000000000000000E+000  0.000000000000000E+000  0.000000000000000E+000        
  0.100700000000000       0.250028000000000       0.000000000000000E+000        
  0.000000000000000E+000   1.00000000000000       0.000000000000000E+000        
  0.000000000000000E+000  0.000000000000000E+000  0.000000000000000E+000        
   8.18200000000000       0.000000000000000E+000  0.000000000000000E+000        
  0.000000000000000E+000  0.000000000000000E+000   1.00000000000000             
  0.000000000000000E+000  0.000000000000000E+000  0.000000000000000E+000        
   24.1860000000000       0.000000000000000E+000  0.000000000000000E+000        
  0.000000000000000E+000  0.000000000000000E+000  0.000000000000000E+000        
   1.00000000000000       0.000000000000000E+000  0.000000000000000E+000        
   71.4940000000000       0.000000000000000E+000  0.000000000000000E+000        
  0.000000000000000E+000  0.000000000000000E+000  0.000000000000000E+000        
  0.000000000000000E+000   1.00000000000000       0.000000000000000E+000        
  3.218000000000000E-002  0.000000000000000E+000  0.000000000000000E+000        
  0.000000000000000E+000  0.000000000000000E+000  0.000000000000000E+000        
  0.000000000000000E+000  0.000000000000000E+000   1.00000000000000             
    6    6                                                                      
   1.84800000000000        1.00000000000000       0.000000000000000E+000        
  0.000000000000000E+000  0.000000000000000E+000  0.000000000000000E+000        
  0.000000000000000E+000                                                        
  0.649000000000000       0.000000000000000E+000   1.00000000000000             
  0.000000000000000E+000  0.000000000000000E+000  0.000000000000000E+000        
  0.000000000000000E+000                                                        
  0.228000000000000       0.000000000000000E+000  0.000000000000000E+000        
   1.00000000000000       0.000000000000000E+000  0.000000000000000E+000        
  0.000000000000000E+000                                                        
   8.65600000000000       0.000000000000000E+000  0.000000000000000E+000        
  0.000000000000000E+000   1.00000000000000       0.000000000000000E+000        
  0.000000000000000E+000                                                        
   33.2130000000000       0.000000000000000E+000  0.000000000000000E+000        
  0.000000000000000E+000  0.000000000000000E+000   1.00000000000000             
  0.000000000000000E+000                                                        
  7.660000000000000E-002  0.000000000000000E+000  0.000000000000000E+000        
  0.000000000000000E+000  0.000000000000000E+000  0.000000000000000E+000        
   1.00000000000000                                                             
    4    4                                                                      
   1.41900000000000        1.00000000000000       0.000000000000000E+000        
  0.000000000000000E+000  0.000000000000000E+000                                
  0.485000000000000       0.000000000000000E+000   1.00000000000000             
  0.000000000000000E+000  0.000000000000000E+000                                
   24.6940000000000       0.000000000000000E+000  0.000000000000000E+000        
   1.00000000000000       0.000000000000000E+000                                
  0.187000000000000       0.000000000000000E+000  0.000000000000000E+000        
  0.000000000000000E+000   1.00000000000000                                     
    2    2                                                                      
   1.01100000000000        1.00000000000000       0.000000000000000E+000        
  0.424000000000000       0.000000000000000E+000   1.00000000000000             
          8.00000000    1    5    1    1    1    1    1                         
O #2   0.000000000000000   0.000000000000000  -0.955276655423789                
   16    9                                                                      
   61420.0000000000       9.000000000000001E-005 -2.000000000000000E-005        
  0.000000000000000E+000  0.000000000000000E+000  0.000000000000000E+000        
  0.000000000000000E+000  0.000000000000000E+000  0.000000000000000E+000        
  0.000000000000000E+000                                                        
   9199.00000000000       6.980000000000001E-004 -1.590000000000000E-004        
  0.000000000000000E+000  0.000000000000000E+000  0.000000000000000E+000        
  0.000000000000000E+000  0.000000000000000E+000  0.000000000000000E+000        
  0.000000000000000E+000                                                        
   2091.00000000000       3.664000000000000E-003 -8.290000000000000E-004        
  0.000000000000000E+000  0.000000000000000E+000  0.000000000000000E+000        
  0.000000000000000E+000  0.000000000000000E+000  0.000000000000000E+000        
  0.000000000000000E+000                                                        
   590.900000000000       1.521800000000000E-002 -3.508000000000000E-003        
  0.000000000000000E+000  0.000000000000000E+000  0.000000000000000E+000        
  0.000000000000000E+000  0.000000000000000E+000  0.000000000000000E+000        
  0.000000000000000E+000                                                        
   192.300000000000       5.242300000000000E-002 -1.215600000000000E-002        
  0.000000000000000E+000  0.000000000000000E+000  0.000000000000000E+000        
  0.000000000000000E+000  0.000000000000000E+000  0.000000000000000E+000        
  0.000000000000000E+000                                                        
   69.3200000000000       0.145921000000000      -3.626100000000000E-002        
  0.000000000000000E+000  0.000000000000000E+000  0.000000000000000E+000        
  0.000000000000000E+000  0.000000000000000E+000  0.000000000000000E+000        
  0.000000000000000E+000                                                        
   26.9700000000000       0.305258000000000      -8.299200000000000E-002        
  0.000000000000000E+000  0.000000000000000E+000  0.000000000000000E+000        
  0.000000000000000E+000  0.000000000000000E+000  0.000000000000000E+000        
  0.000000000000000E+000                                                        
   11.1000000000000       0.398508000000000      -0.152090000000000             
  0.000000000000000E+000  0.000000000000000E+000  0.000000000000000E+000        
  0.000000000000000E+000  0.000000000000000E+000  0.000000000000000E+000        
  0.000000000000000E+000                                                        
   4.68200000000000       0.216980000000000      -0.115331000000000             
  0.000000000000000E+000  0.000000000000000E+000  0.000000000000000E+000        
  0.000000000000000E+000  0.000000000000000E+000  0.000000000000000E+000        
  0.000000000000000E+000                                                        
   1.42800000000000       1.759400000000000E-002  0.288979000000000             
   1.00000000000000       0.000000000000000E+000  0.000000000000000E+000        
  0.000000000000000E+000  0.000000000000000E+000  0.000000000000000E+000        
  0.000000000000000E+000                                                        
  0.554700000000000      -2.502000000000000E-003  0.586128000000000             
  0.000000000000000E+000   1.00000000000000       0.000000000000000E+000        
  0.000000000000000E+000  0.000000000000000E+000  0.000000000000000E+000        
  0.000000000000000E+000                                                        
  0.206700000000000       9.540000000000000E-004  0.277624000000000             
  0.000000000000000E+000  0.000000000000000E+000   1.00000000000000             
  0.000000000000000E+000  0.000000000000000E+000  0.000000000000000E+000        
  0.000000000000000E+000                                                        
   12.9740000000000       0.000000000000000E+000  0.000000000000000E+000        
  0.000000000000000E+000  0.000000000000000E+000  0.000000000000000E+000        
   1.00000000000000       0.000000000000000E+000  0.000000000000000E+000        
  0.000000000000000E+000                                                        
   34.9000000000000       0.000000000000000E+000  0.000000000000000E+000        
  0.000000000000000E+000  0.000000000000000E+000  0.000000000000000E+000        
  0.000000000000000E+000   1.00000000000000       0.000000000000000E+000        
  0.000000000000000E+000                                                        
   93.8810000000000       0.000000000000000E+000  0.000000000000000E+000        
  0.000000000000000E+000  0.000000000000000E+000  0.000000000000000E+000        
  0.000000000000000E+000  0.000000000000000E+000   1.00000000000000             
  0.000000000000000E+000                                                        
  6.959000000000000E-002  0.000000000000000E+000  0.000000000000000E+000        
  0.000000000000000E+000  0.000000000000000E+000  0.000000000000000E+000        
  0.000000000000000E+000  0.000000000000000E+000  0.000000000000000E+000        
   1.00000000000000                                                             
   10    8                                                                      
   63.4200000000000       6.044000000000000E-003  0.000000000000000E+000        
  0.000000000000000E+000  0.000000000000000E+000  0.000000000000000E+000        
  0.000000000000000E+000  0.000000000000000E+000  0.000000000000000E+000        
   14.6600000000000       4.179900000000000E-002  0.000000000000000E+000        
  0.000000000000000E+000  0.000000000000000E+000  0.000000000000000E+000        
  0.000000000000000E+000  0.000000000000000E+000  0.000000000000000E+000        
   4.45900000000000       0.161143000000000       0.000000000000000E+000        
  0.000000000000000E+000  0.000000000000000E+000  0.000000000000000E+000        
  0.000000000000000E+000  0.000000000000000E+000  0.000000000000000E+000        
   1.53100000000000       0.356731000000000        1.00000000000000             
  0.000000000000000E+000  0.000000000000000E+000  0.000000000000000E+000        
  0.000000000000000E+000  0.000000000000000E+000  0.000000000000000E+000        
  0.530200000000000       0.448309000000000       0.000000000000000E+000        
   1.00000000000000       0.000000000000000E+000  0.000000000000000E+000        
  0.000000000000000E+000  0.000000000000000E+000  0.000000000000000E+000        
  0.175000000000000       0.244940000000000       0.000000000000000E+000        
  0.000000000000000E+000   1.00000000000000       0.000000000000000E+000        
  0.000000000000000E+000  0.000000000000000E+000  0.000000000000000E+000        
   14.4750000000000       0.000000000000000E+000  0.000000000000000E+000        
  0.000000000000000E+000  0.000000000000000E+000   1.00000000000000             
  0.000000000000000E+000  0.000000000000000E+000  0.000000000000000E+000        
   42.7300000000000       0.000000000000000E+000  0.000000000000000E+000        
  0.000000000000000E+000  0.000000000000000E+000  0.000000000000000E+000        
   1.00000000000000       0.000000000000000E+000  0.000000000000000E+000        
   126.140000000000       0.000000000000000E+000  0.000000000000000E+000        
  0.000000000000000E+000  0.000000000000000E+000  0.000000000000000E+000        
  0.000000000000000E+000   1.00000000000000       0.000000000000000E+000        
  5.348000000000000E-002  0.000000000000000E+000  0.000000000000000E+000        
  0.000000000000000E+000  0.000000000000000E+000  0.000000000000000E+000        
  0.000000000000000E+000  0.000000000000000E+000   1.00000000000000             
    6    6                                                                      
   3.77500000000000        1.00000000000000       0.000000000000000E+000        
  0.000000000000000E+000  0.000000000000000E+000  0.000000000000000E+000        
  0.000000000000000E+000                                                        
   1.30000000000000       0.000000000000000E+000   1.00000000000000             
  0.000000000000000E+000  0.000000000000000E+000  0.000000000000000E+000        
  0.000000000000000E+000                                                        
  0.444000000000000       0.000000000000000E+000  0.000000000000000E+000        
   1.00000000000000       0.000000000000000E+000  0.000000000000000E+000        
  0.000000000000000E+000                                                        
   14.9270000000000       0.000000000000000E+000  0.000000000000000E+000        
  0.000000000000000E+000   1.00000000000000       0.000000000000000E+000        
  0.000000000000000E+000                                                        
   57.5440000000000       0.000000000000000E+000  0.000000000000000E+000        
  0.000000000000000E+000  0.000000000000000E+000   1.00000000000000             
  0.000000000000000E+000                                                        
  0.154000000000000       0.000000000000000E+000  0.000000000000000E+000        
  0.000000000000000E+000  0.000000000000000E+000  0.000000000000000E+000        
   1.00000000000000                                                             
    4    4                                                                      
   2.66600000000000        1.00000000000000       0.000000000000000E+000        
  0.000000000000000E+000  0.000000000000000E+000                                
  0.859000000000000       0.000000000000000E+000   1.00000000000000             
  0.000000000000000E+000  0.000000000000000E+000                                
   26.4830000000000       0.000000000000000E+000  0.000000000000000E+000        
   1.00000000000000       0.000000000000000E+000                                
  0.324000000000000       0.000000000000000E+000  0.000000000000000E+000        
  0.000000000000000E+000   1.00000000000000                                     
    2    2                                                                      
   1.84600000000000        1.00000000000000       0.000000000000000E+000        
  0.714000000000000       0.000000000000000E+000   1.00000000000000             
FINISH                                                                          
 
********************************************************************************
 ONE- AND TWO-ELECTRON INTEGRALS OVER SYMMETRY-ADAPTED AOS ARE CALCULATED.

  SPHERICAL HARMONICS ARE USED.
  
  INTEGRALS LESS THAN  0.10E-13 ARE NEGLECTED.

  NUCLEAR REPULSION ENERGY :   21.5384363509 A.U.
  @MOLECU-I, ONE ELECTRON INTEGRALS (CPU/WALL):        0.05/       0.06 SECONDS.
  @TWOEL-I,    4573485 INTEGRALS OF SYMMETRY TYPE  I I I I
  @TWOEL-I,   19644783 INTEGRALS OF SYMMETRY TYPE  I J I J
  @TWOEL-I,   10352282 INTEGRALS OF SYMMETRY TYPE  I I J J
  @TWOEL-I,   14534063 INTEGRALS OF SYMMETRY TYPE  I J K L
  @TWOEL-I, TOTAL NUMBER OF 2-E INTEGRALS   49104613.
  @MOLECU-I, TWO ELECTRON INTEGRALS (CPU/WALL):      186.55/      26.68 SECONDS.
 @CHECKOUT-I, Total execution time (CPU/WALL):      186.62/      26.78 seconds.

Running with 14 threads/proc

--executable xvmol finished with status     0 in       26.82 seconds (walltime).
 --invoking executable--
/nfs/workspaces/public/cfour_mpi/bin/xvmol2ja
 @GETMEM-I,  Allocated    3814 MB of main memory.
 @CHECKOUT-I, Total execution time (CPU/WALL):        0.10/       0.05 seconds.
--executable xvmol2ja finished with status     0 in        0.06 seconds (walltime).
 --invoking executable--
/nfs/workspaces/public/cfour_mpi/bin/xvprop
 @GETMEM-I,  Allocated    3814 MB of main memory.
   Property integrals will be calculated.
    --------------------------------------------------------------
                                   Property evaluated at 
    Property type                X             Y             Z
    --------------------------------------------------------------
    Dipole moment               ----          ----          ----  
    Quadrupole moment           ----          ----          ----  
    Octopole moment             ----          ----          ----  
    Relativisitic corr.         ----          ----          ----  
    Second moment            0.0000000     0.0000000     0.0000000
    Electron density         0.0000000     0.0000000     1.2732974
    Electron density         0.0000000     0.0000000    -0.9552767
    Field gradient           0.0000000     0.0000000     1.2732974
    Field gradient           0.0000000     0.0000000    -0.9552767
    Potential                0.0000000     0.0000000     1.2732974
    Potential                0.0000000     0.0000000    -0.9552767
    --------------------------------------------------------------
 @CHECKOUT-I, Total execution time (CPU/WALL):        1.29/       1.32 seconds.
--executable xvprop finished with status     0 in        1.34 seconds (walltime).
 --invoking executable--
/nfs/workspaces/public/cfour_mpi/bin/xvscf
  There are  218 functions in the AO basis.

  There are 4 irreducible representations.

       Irrep        # of functions
         1                 86
         2                 52
         3                 52
         4                 28


  Parameters for SCF calculation: 
        SCF reference function:  RHF  
  Maximum number of iterations:  150
     Full symmetry point group: CXv 
     Computational point group: C2v 
        Initial density matrix: MOREAD                 
     SCF convergence tolerance: 10**(-10)
  DIIS convergence acceleration:  ON
          Latest start for DIIS:   8
                     DIIS order:   6

  Memory information:    2523578 words required.
  Fock matrices are constructed from AO integral file.
 @GETMEM-I,  Allocated      19 MB of main memory.
  Initialization and symmetry analysis required      0.001 seconds.

  Adding electric field perturbation to one-electron Hamiltonian.
  Field direction     : Z
  Field strength      : -0.0002000 a.u.

  @INITGES-I, Occupancies from core Hamiltonian:

          Alpha population by irrep:   5    1    1    0
           Beta population by irrep:   5    1    1    0


 total no. of electrons in initial guess :  0.000000000000000E+000
  --------------------------------------------------------------------
  Iteration         Total Energy            Largest Density Difference
  --------------------------------------------------------------------
       0            21.538435865083667              0.0000000000D+00
   current occupation vector 
     5  1  1  0
     5  1  1  0
       1           -92.154405430305133              0.1842215906D+02
   current occupation vector 
     5  1  1  0
     5  1  1  0
       2           -97.391163964408932              0.1841761121D+02
   current occupation vector 
     5  1  1  0
     5  1  1  0
       3          -103.467662027053819              0.1171887837D+02
   current occupation vector 
     5  1  1  0
     5  1  1  0
       4          -100.161448561767358              0.7412195449D+01
   current occupation vector 
     5  1  1  0
     5  1  1  0
       5          -102.910823974432361              0.6524974448D+01
   current occupation vector 
     5  1  1  0
     5  1  1  0
       6           -99.784308999447020              0.5855208214D+01
   current occupation vector 
     5  1  1  0
     5  1  1  0
       7          -102.849192646873078              0.5783440638D+01
   current occupation vector 
     5  1  1  0
     5  1  1  0
       8           -99.635552988050605              0.5775265067D+01
   current occupation vector 
     5  1  1  0
     5  1  1  0
       9          -110.412887330242739              0.4366065731D+01
   current occupation vector 
     5  1  1  0
     5  1  1  0
      10          -112.096727419872565              0.9863663258D+00
   current occupation vector 
     5  1  1  0
     5  1  1  0
      11          -112.748462625573950              0.5590880838D+00
   current occupation vector 
     5  1  1  0
     5  1  1  0
      12          -112.776373250389014              0.1345683272D+00
   current occupation vector 
     5  1  1  0
     5  1  1  0
      13          -112.777104958568202              0.3328214988D-01
   current occupation vector 
     5  1  1  0
     5  1  1  0
      14          -112.777231440641117              0.1632993201D-01
   current occupation vector 
     5  1  1  0
     5  1  1  0
      15          -112.777243763098625              0.6966385445D-02
   current occupation vector 
     5  1  1  0
     5  1  1  0
      16          -112.777243884089330              0.5853390021D-03
   current occupation vector 
     5  1  1  0
     5  1  1  0
      17          -112.777243888132318              0.7646471966D-04
   current occupation vector 
     5  1  1  0
     5  1  1  0
      18          -112.777243888247654              0.1650745706D-04
   current occupation vector 
     5  1  1  0
     5  1  1  0
      19          -112.777243888254361              0.3282693754D-05
   current occupation vector 
     5  1  1  0
     5  1  1  0
      20          -112.777243888254276              0.6172250693D-06
   current occupation vector 
     5  1  1  0
     5  1  1  0
      21          -112.777243888253480              0.7062751139D-07
   current occupation vector 
     5  1  1  0
     5  1  1  0
      22          -112.777243888253196              0.1627849833D-07
   current occupation vector 
     5  1  1  0
     5  1  1  0
      23          -112.777243888253935              0.9677775692D-08
   current occupation vector 
     5  1  1  0
     5  1  1  0
      24          -112.777243888253849              0.1797526572D-09
   current occupation vector 
     5  1  1  0
     5  1  1  0
      25          -112.777243888253878              0.1452389320D-09
   current occupation vector 
     5  1  1  0
     5  1  1  0
      26          -112.777243888253366              0.1193301014D-09
   current occupation vector 
     5  1  1  0
     5  1  1  0

  SCF has converged.

 Density matrix saved to file den.dat
 total electron number:   14.0000000000000     
     E(SCF)=      -112.777243888253167              0.7375527966D-10

  Eigenvector printing suppressed.

 @PUTMOS-I, Writing converged MOs to NEWMOS. 
 @PUTMOS-I, Symmetry   1 Full Blocks 21 Partial Blocksize   2
 @PUTMOS-I, Symmetry   2 Full Blocks 13 Partial Blocksize   0
 @PUTMOS-I, Symmetry   3 Full Blocks 13 Partial Blocksize   0
 @PUTMOS-I, Symmetry   4 Full Blocks  7 Partial Blocksize   0
 @PUTFOCK-I, Writing converged Fock matrix to NEWFOCK. 
 @PUTFOCK-I, Symmetry   1 Full Blocks 21 Partial Blocksize   2
 @PUTFOCK-I, Symmetry   2 Full Blocks 13 Partial Blocksize   0
 @PUTFOCK-I, Symmetry   3 Full Blocks 13 Partial Blocksize   0
 @PUTFOCK-I, Symmetry   4 Full Blocks  7 Partial Blocksize   0


 
  ORBITAL EIGENVALUES (ALPHA)  (1H = 27.2113834 eV)

       MO #        E(hartree)               E(eV)           FULLSYM    COMPSYM
       ----   --------------------   --------------------   -------   ---------
    1     1         -20.6666908686        -562.3692488340     SG+        A1 (1)
    2     2         -11.3832713488        -309.7545610177     SG+        A1 (1)
    3     3          -1.4871344449         -40.4669855472     SG+        A1 (1)
    4     4          -0.8004093672         -21.7802461673     SG+        A1 (1)
    5    87          -0.6189373698         -16.8421420690      PI        B1 (2)
    6   139          -0.6189373698         -16.8421420690      PI        B2 (3)
    7     5          -0.5604154199         -15.2496788533     SG+        A1 (1)
  +++++++++++++++++++++++++++++++++++++++++++++++++++++++++++++++++++++++++++++
    8   140           0.0602716411           1.6400747340      PI        B2 (3)
    9    88           0.0602716411           1.6400747340      PI        B1 (2)
   10     6           0.0613877855           1.6704465661     SG+        A1 (1)
   11     7           0.0727151659           1.9786802579     SG+        A1 (1)
   12   141           0.1283040100           3.4913296089      PI        B2 (3)
   13    89           0.1283040100           3.4913296089      PI        B1 (2)
   14     8           0.1568168521           4.2672034864     SG+        A1 (1)
   15   142           0.1664951014           4.5305620373      PI        B2 (3)
   16    90           0.1664951014           4.5305620373      PI        B1 (2)
   17   191           0.2274319952           6.1887392183      DE        A2 (4)
   18     9           0.2274319952           6.1887392183      DE        A1 (1)
   19    10           0.2283662295           6.2141610276     SG+        A1 (1)
   20    11           0.3004889814           8.1767208810     SG+        A1 (1)
   21   143           0.3150181350           8.5720792505      PI        B2 (3)
   22    91           0.3150181350           8.5720792505      PI        B1 (2)
   23    12           0.3891482023          10.5892609322     SG+        A1 (1)
   24   144           0.3952517838          10.7553478286      PI        B2 (3)
   25    92           0.3952517838          10.7553478286      PI        B1 (2)
   26    13           0.5089348953          13.8488225608     SG+        A1 (1)
   27    14           0.5378690302          14.6361604005      DE        A1 (1)
   28   192           0.5378690302          14.6361604005      DE        A2 (4)
   29   145           0.6247937358          17.0015018920      PI        B2 (3)
   30    93           0.6247937358          17.0015018920      PI        B1 (2)
   31    15           0.6278435639          17.0844919323     SG+        A1 (1)
   32    94           0.7474234989          20.3384273907      PH        B1 (2)
   33   146           0.7474234989          20.3384273907      PH        B2 (3)
   34   193           0.7661547181          20.8481297785      DE        A2 (4)
   35    16           0.7661547181          20.8481297785      DE        A1 (1)
   36    17           0.7785517235          21.1854694443     SG+        A1 (1)
   37   147           0.8167820485          22.2257694760      PI        B2 (3)
   38    95           0.8167820485          22.2257694760      PI        B1 (2)
   39    18           0.8675696121          23.6077693410     SG+        A1 (1)
   40    19           0.8846440252          24.0723877432     SG+        A1 (1)
   41   148           0.8850366526          24.0830716763      PI        B2 (3)
   42    96           0.8850366526          24.0830716764      PI        B1 (2)
   43    20           0.8877571598          24.1571004422      DE        A1 (1)
   44   194           0.8877571598          24.1571004422      DE        A2 (4)
   45   149           1.0653229080          28.9889100948      PI        B2 (3)
   46    97           1.0653229080          28.9889100948      PI        B1 (2)
   47    21           1.1625068294          31.6334190392     SG+        A1 (1)
   48   150           1.4438826372          39.2900440244      PH        B2 (3)
   49    98           1.4438826372          39.2900440244      PH        B1 (2)
   50    22           1.4551966513          39.5979140008     SG+        A1 (1)
   51    23           1.5260263946          41.5252893022      DE        A1 (1)
   52   195           1.5260263946          41.5252893022      DE        A2 (4)
   53    99           1.5613844857          42.4874318759      PI        B1 (2)
   54   151           1.5613844857          42.4874318759      PI        B2 (3)
   55    24           1.6673477703          45.3708394401     SG+        A1 (1)
   56    25           1.7620178883          47.9469443149      DE        A1 (1)
   57   196           1.7620178883          47.9469443149      DE        A2 (4)
   58   100           1.7662368384          48.0617477841      PI        B1 (2)
   59   152           1.7662368384          48.0617477841      PI        B2 (3)
   60    26           1.7885022902          48.6676215314     SG+        A1 (1)
   61   101           1.9922001703          54.2105226442      PI        B1 (2)
   62   153           1.9922001703          54.2105226442      PI        B2 (3)
   63   197           2.1019007706          57.1956277385      PI        A2 (4)
   64    27           2.1019007706          57.1956277385      PI        A1 (1)
   65    28           2.1045088752          57.2665978716     SG+        A1 (1)
   66   198           2.1856378080          59.4742283677      DE        A2 (4)
   67    29           2.1856378080          59.4742283677      DE        A1 (1)
   68   154           2.2472448899          61.1506422937      PH        B2 (3)
   69   102           2.2472448899          61.1506422937      PH        B1 (2)
   70    30           2.3110552088          62.8870093442     SG+        A1 (1)
   71   103           2.3140489160          62.9684722586      PI        B1 (2)
   72   155           2.3140489160          62.9684722586      PI        B2 (3)
   73   104           2.3443169306          63.7921068090      PH        B1 (2)
   74   156           2.3443169306          63.7921068090      PH        B2 (3)
   75   199           2.3559589523          64.1089023247      DE        A2 (4)
   76    31           2.3559589523          64.1089023247      DE        A1 (1)
   77    32           2.4807838664          67.5055609200     SG+        A1 (1)
   78   157           2.5860062026          70.3688062542      PI        B2 (3)
   79   105           2.5860062026          70.3688062542      PI        B1 (2)
   80   106           2.7869152285          75.8358187857      PI        B1 (2)
   81   158           2.7869152285          75.8358187857      PI        B2 (3)
   82    33           2.8711701160          78.1285108322     SG+        A1 (1)
   83    34           2.9658423288          80.7046727139      DE        A1 (1)
   84   200           2.9658423288          80.7046727139      DE        A2 (4)
   85    35           3.4813923918          94.7335031395     SG+        A1 (1)
   86    36           3.7154439989         101.1023711556      PI        A1 (1)
   87   201           3.7154439989         101.1023711556      PI        A2 (4)
   88   159           3.7310692733         101.5275564882      PI        B2 (3)
   89   107           3.7310692733         101.5275564883      PI        B1 (2)
   90    37           3.9287678798         106.9072090661     SG+        A1 (1)
   91   160           4.0865838861         111.2016009205      PH        B2 (3)
   92   108           4.0865838861         111.2016009205      PH        B1 (2)
   93    38           4.1814249211         113.7823566863      DE        A1 (1)
   94   202           4.1814249211         113.7823566864      DE        A2 (4)
   95   109           4.2063810024         114.4614461818      PI        B1 (2)
   96   161           4.2063810024         114.4614461818      PI        B2 (3)
   97   162           4.2310106050         115.1316517412      PH        B2 (3)
   98   110           4.2310106050         115.1316517412      PH        B1 (2)
   99    39           4.2564977436         115.8251920413     SG+        A1 (1)
  100    40           4.3596300210         118.6315639829      DE        A1 (1)
  101   203           4.3596300210         118.6315639830      DE        A2 (4)
  102    41           4.4603429865         121.3721031012     SG+        A1 (1)
  103   163           4.7868522904         130.2568729531      PI        B2 (3)
  104   111           4.7868522904         130.2568729531      PI        B1 (2)
  105   112           5.0505550528         137.4325899232      PI        B1 (2)
  106   164           5.0505550528         137.4325899232      PI        B2 (3)
  107    42           5.0833227916         138.3242454276     SG+        A1 (1)
  108   204           5.1165596087         139.2286652005      DE        A2 (4)
  109    43           5.1165596087         139.2286652005      DE        A1 (1)
  110    44           5.6685510409         154.2491156957     SG+        A1 (1)
  111   113           5.7567049612         156.6479058201      PI        B1 (2)
  112   165           5.7567049612         156.6479058201      PI        B2 (3)
  113   205           5.8930956851         160.3592861013      PI        A2 (4)
  114    45           5.8930956851         160.3592861013      PI        A1 (1)
  115   114           6.0889744556         165.6894184250      PH        B1 (2)
  116   166           6.0889744556         165.6894184250      PH        B2 (3)
  117    46           6.2376222110         169.7343294887     SG+        A1 (1)
  118    47           6.2875288499         171.0923581731      DE        A1 (1)
  119   206           6.2875288499         171.0923581732      DE        A2 (4)
  120   167           6.3131711085         171.7901195043      PI        B2 (3)
  121   115           6.3131711085         171.7901195044      PI        B1 (2)
  122   116           6.4339002394         175.0753261723      PH        B1 (2)
  123   168           6.4339002394         175.0753261723      PH        B2 (3)
  124    48           6.5684842649         178.7375436904      DE        A1 (1)
  125   207           6.5684842649         178.7375436904      DE        A2 (4)
  126    49           6.9265849167         188.4819578198     SG+        A1 (1)
  127   208           7.1628708609         194.9116252417      DE        A2 (4)
  128    50           7.1628708609         194.9116252418      DE        A1 (1)
  129   117           7.3746701208         200.6749761067      PI        B1 (2)
  130   169           7.3746701208         200.6749761067      PI        B2 (3)
  131    51           7.7157715263         209.9568172285     SG+        A1 (1)
  132    52           8.1559000428         221.9333230375     SG+        A1 (1)
  133   170           8.3297101929         226.6629376692      PI        B2 (3)
  134   118           8.3297101929         226.6629376693      PI        B1 (2)
  135   171          10.1195025769         275.3656644385      PI        B2 (3)
  136   119          10.1195025769         275.3656644386      PI        B1 (2)
  137    53          10.5680795926         287.5720655953     SG+        A1 (1)
  138    54          10.6045983139         288.5657905215      PI        A1 (1)
  139   209          10.6045983139         288.5657905215      PI        A2 (4)
  140   172          10.8501515402         295.2476335098      PH        B2 (3)
  141   120          10.8501515402         295.2476335098      PH        B1 (2)
  142    55          11.0757894930         301.3875543526     SG+        A1 (1)
  143    56          11.0929105065         301.8534408149      DE        A1 (1)
  144   210          11.0929105065         301.8534408149      DE        A2 (4)
  145   173          11.3394603917         308.5624042668      PI        B2 (3)
  146   121          11.3394603917         308.5624042668      PI        B1 (2)
  147    57          11.4850826060         312.5249861728     SG+        A1 (1)
  148   122          11.8551451931         322.5949011132      PH        B1 (2)
  149   174          11.8551451931         322.5949011132      PH        B2 (3)
  150   211          12.2409744005         333.0938476017      DE        A2 (4)
  151    58          12.2409744005         333.0938476020      DE        A1 (1)
  152   175          12.5838275446         342.4233559564      PI        B2 (3)
  153   123          12.5838275446         342.4233559564      PI        B1 (2)
  154   212          12.8458226421         349.5526050013      DE        A2 (4)
  155    59          12.8458226421         349.5526050013      DE        A1 (1)
  156    60          13.1469503416         357.7467062868     SG+        A1 (1)
  157   124          13.9121657561         378.5692763124      PI        B1 (2)
  158   176          13.9121657561         378.5692763125      PI        B2 (3)
  159    61          15.2716514553         415.5627629026     SG+        A1 (1)
  160    62          17.9812296222         489.2941332534     SG+        A1 (1)
  161   125          19.3103799542         525.4621525336      PI        B1 (2)
  162   177          19.3103799542         525.4621525336      PI        B2 (3)
  163    63          20.5658233175         559.6245032295     SG+        A1 (1)
  164    64          26.4882734193         720.7825636166      DE        A1 (1)
  165   213          26.4882734193         720.7825636166      DE        A2 (4)
  166   178          26.9343720871         732.9215254994      PI        B2 (3)
  167   126          26.9343720871         732.9215254994      PI        B1 (2)
  168    65          28.0104358119         762.2027080778     SG+        A1 (1)
  169   179          33.7765963242         919.1079125244      PI        B2 (3)
  170   127          33.7765963242         919.1079125249      PI        B1 (2)
  171    66          34.8806723395         949.1513482806     SG+        A1 (1)
  172    67          36.6187431954         996.4466607160     SG+        A1 (1)
  173    68          47.1103930563        1281.9389675783      DE        A1 (1)
  174   214          47.1103930563        1281.9389675783      DE        A2 (4)
  175   180          47.5901763854        1294.9945356980      PI        B2 (3)
  176   128          47.5901763854        1294.9945356980      PI        B1 (2)
  177    69          48.4419592226        1318.1727250536     SG+        A1 (1)
  178    70          64.1571279344        1745.8042060657     SG+        A1 (1)
  179   181          66.7707618817        1816.9248014729      PI        B2 (3)
  180   129          66.7707618817        1816.9248014729      PI        B1 (2)
  181    71          67.7476630972        1843.5076349919     SG+        A1 (1)
  182   182          98.6522302506        2684.4636606140      PH        B2 (3)
  183   130          98.6522302506        2684.4636606140      PH        B1 (2)
  184   215          98.6713863948        2684.9849257972      DE        A2 (4)
  185    72          98.6713863948        2684.9849257972      DE        A1 (1)
  186   183          98.7303010079        2686.5880739236      PI        B2 (3)
  187   131          98.7303010079        2686.5880739236      PI        B1 (2)
  188    73          98.7445251122        2686.9751314782     SG+        A1 (1)
  189   132         103.2827320207        2810.4660196147      PH        B1 (2)
  190   184         103.2827320207        2810.4660196147      PH        B2 (3)
  191   216         103.3265250684        2811.6576890246      DE        A2 (4)
  192    74         103.3265250684        2811.6576890255      DE        A1 (1)
  193   185         103.3561562522        2812.4639945301      PI        B2 (3)
  194   133         103.3561562522        2812.4639945301      PI        B1 (2)
  195    75         103.4038793422        2813.7626058283     SG+        A1 (1)
  196   217         115.1518912524        3133.4422621055      DE        A2 (4)
  197    76         115.1518912525        3133.4422621055      DE        A1 (1)
  198   186         115.3702777016        3139.3848595015      PI        B2 (3)
  199   134         115.3702777016        3139.3848595015      PI        B1 (2)
  200    77         115.9168745171        3154.2585150141     SG+        A1 (1)
  201   187         117.0285473491        3184.5086706614      PI        B2 (3)
  202   135         117.0285473491        3184.5086706620      PI        B1 (2)
  203    78         117.9118013634        3208.5432342841     SG+        A1 (1)
  204    79         122.7952697904        3341.4291659739     SG+        A1 (1)
  205   218         198.5706966360        5403.3833581677      DE        A2 (4)
  206    80         198.5706966360        5403.3833581677      DE        A1 (1)
  207   188         198.8289564967        5410.4109662525      PI        B2 (3)
  208   136         198.8289564967        5410.4109662528      PI        B1 (2)
  209    81         199.2540782370        5421.9791169198     SG+        A1 (1)
  210    82         216.6391472335        5895.0508948190     SG+        A1 (1)
  211   189         225.1915822189        6127.7744822107      PI        B2 (3)
  212   137         225.1915822189        6127.7744822108      PI        B1 (2)
  213    83         225.9930319947        6149.5830393349     SG+        A1 (1)
  214   190         395.4868709432       10761.7448749020      PI        B2 (3)
  215   138         395.4868709432       10761.7448749027      PI        B1 (2)
  216    84         396.2199964939       10781.6942353426     SG+        A1 (1)
  217    85         509.3571772686       13860.3134381965     SG+        A1 (1)
  218    86         895.4672119364       24366.9016261303     SG+        A1 (1)


  VSCF finished.

 @CHECKOUT-I, Total execution time (CPU/WALL):       47.32/       9.27 seconds.
--executable xvscf finished with status     0 in        9.29 seconds (walltime).
 --invoking executable--
/nfs/workspaces/public/cfour_mpi/bin/xvtran
 @GETMEM-I,  Allocated    3814 MB of main memory.
  Full RHF integral transformation
  Transformation of IIII integrals :
  1 pass through the AO integral file was required.
     4573485 AO integrals were read.
     8801542 MO integrals were written to HF2.
  Transformation of IIJJ integrals :
  1 pass through the AO integral file was required.
    10352282 AO integrals were read.
    14612335 MO integrals were written to HF2.
  Transformation of IJIJ integrals :
  1 pass through the AO integral file was required.
    19644783 AO integrals were read.
    27450406 MO integrals were written to HF2.
  Transformation of IJKL integrals :
  1 pass through the AO integral file was required.
    14534063 AO integrals were read.
    18539407 MO integrals were written to HF2.
  Summary of active molecular orbitals: 
------------------------------------------------------------------------
 
  Index      Eigenvalue    Symmetry    Index      Eigenvalue    Symmetry
------------------------------------------------------------------------
     1       -20.6666909        1       110         4.2063810        2
     2       -11.3832713        1       111         4.2310106        2
     3        -1.4871344        1       112         4.7868523        2
     4        -0.8004094        1       113         5.0505551        2
     5        -0.5604154        1       114         5.7567050        2
     6        -0.6189374        2       115         6.0889745        2
     7        -0.6189374        3       116         6.3131711        2
     8         0.0613878        1       117         6.4339002        2
     9         0.0727152        1       118         7.3746701        2
    10         0.1568169        1       119         8.3297102        2
    11         0.2274320        1       120        10.1195026        2
    12         0.2283662        1       121        10.8501515        2
    13         0.3004890        1       122        11.3394604        2
    14         0.3891482        1       123        11.8551452        2
    15         0.5089349        1       124        12.5838275        2
    16         0.5378690        1       125        13.9121658        2
    17         0.6278436        1       126        19.3103800        2
    18         0.7661547        1       127        26.9343721        2
    19         0.7785517        1       128        33.7765963        2
    20         0.8675696        1       129        47.5901764        2
    21         0.8846440        1       130        66.7707619        2
    22         0.8877572        1       131        98.6522303        2
    23         1.1625068        1       132        98.7303010        2
    24         1.4551967        1       133       103.2827320        2
    25         1.5260264        1       134       103.3561563        2
    26         1.6673478        1       135       115.3702777        2
    27         1.7620179        1       136       117.0285473        2
    28         1.7885023        1       137       198.8289565        2
    29         2.1019008        1       138       225.1915822        2
    30         2.1045089        1       139       395.4868709        2
    31         2.1856378        1       140         0.0602716        3
    32         2.3110552        1       141         0.1283040        3
    33         2.3559590        1       142         0.1664951        3
    34         2.4807839        1       143         0.3150181        3
    35         2.8711701        1       144         0.3952518        3
    36         2.9658423        1       145         0.6247937        3
    37         3.4813924        1       146         0.7474235        3
    38         3.7154440        1       147         0.8167820        3
    39         3.9287679        1       148         0.8850367        3
    40         4.1814249        1       149         1.0653229        3
    41         4.2564977        1       150         1.4438826        3
    42         4.3596300        1       151         1.5613845        3
    43         4.4603430        1       152         1.7662368        3
    44         5.0833228        1       153         1.9922002        3
    45         5.1165596        1       154         2.2472449        3
    46         5.6685510        1       155         2.3140489        3
    47         5.8930957        1       156         2.3443169        3
    48         6.2376222        1       157         2.5860062        3
    49         6.2875288        1       158         2.7869152        3
    50         6.5684843        1       159         3.7310693        3
    51         6.9265849        1       160         4.0865839        3
    52         7.1628709        1       161         4.2063810        3
    53         7.7157715        1       162         4.2310106        3
    54         8.1559000        1       163         4.7868523        3
    55        10.5680796        1       164         5.0505551        3
    56        10.6045983        1       165         5.7567050        3
    57        11.0757895        1       166         6.0889745        3
    58        11.0929105        1       167         6.3131711        3
    59        11.4850826        1       168         6.4339002        3
    60        12.2409744        1       169         7.3746701        3
    61        12.8458226        1       170         8.3297102        3
    62        13.1469503        1       171        10.1195026        3
    63        15.2716515        1       172        10.8501515        3
    64        17.9812296        1       173        11.3394604        3
    65        20.5658233        1       174        11.8551452        3
    66        26.4882734        1       175        12.5838275        3
    67        28.0104358        1       176        13.9121658        3
    68        34.8806723        1       177        19.3103800        3
    69        36.6187432        1       178        26.9343721        3
    70        47.1103931        1       179        33.7765963        3
    71        48.4419592        1       180        47.5901764        3
    72        64.1571279        1       181        66.7707619        3
    73        67.7476631        1       182        98.6522303        3
    74        98.6713864        1       183        98.7303010        3
    75        98.7445251        1       184       103.2827320        3
    76       103.3265251        1       185       103.3561563        3
    77       103.4038793        1       186       115.3702777        3
    78       115.1518913        1       187       117.0285473        3
    79       115.9168745        1       188       198.8289565        3
    80       117.9118014        1       189       225.1915822        3
    81       122.7952698        1       190       395.4868709        3
    82       198.5706966        1       191         0.2274320        4
    83       199.2540782        1       192         0.5378690        4
    84       216.6391472        1       193         0.7661547        4
    85       225.9930320        1       194         0.8877572        4
    86       396.2199965        1       195         1.5260264        4
    87       509.3571773        1       196         1.7620179        4
    88       895.4672119        1       197         2.1019008        4
    89         0.0602716        2       198         2.1856378        4
    90         0.1283040        2       199         2.3559590        4
    91         0.1664951        2       200         2.9658423        4
    92         0.3150181        2       201         3.7154440        4
    93         0.3952518        2       202         4.1814249        4
    94         0.6247937        2       203         4.3596300        4
    95         0.7474235        2       204         5.1165596        4
    96         0.8167820        2       205         5.8930957        4
    97         0.8850367        2       206         6.2875288        4
    98         1.0653229        2       207         6.5684843        4
    99         1.4438826        2       208         7.1628709        4
   100         1.5613845        2       209        10.6045983        4
   101         1.7662368        2       210        11.0929105        4
   102         1.9922002        2       211        12.2409744        4
   103         2.2472449        2       212        12.8458226        4
   104         2.3140489        2       213        26.4882734        4
   105         2.3443169        2       214        47.1103931        4
   106         2.5860062        2       215        98.6713864        4
   107         2.7869152        2       216       103.3265251        4
   108         3.7310693        2       217       115.1518913        4
   109         4.0865839        2       218       198.5706966        4
------------------------------------------------------------------------
  -20.6666908685733       -11.3832713487714       -1.48713444488832     
 -0.800409367180387      -0.560415419869208      -0.618937369754996     
 -0.618937369754994       6.138778545558569E-002  7.271516588462362E-002
  0.156816852111641       0.227431995179572       0.228366229538644     
  0.300488981424530       0.389148202300329       0.508934895270001     
  0.537869030227594       0.627843563892238       0.766154718121924     
  0.778551723479100       0.867569612097433       0.884644025234122     
  0.887757159828312        1.16250682937453        1.45519665129431     
   1.52602639460636        1.66734777034777        1.76201788825238     
   1.78850229023553        2.10190077063330        2.10450887519372     
   2.18563780802601        2.31105520876158        2.35595895226464     
   2.48078386635712        2.87117011596648        2.96584232883470     
   3.48139239181484        3.71544399891016        3.92876787977227     
   4.18142492109911        4.25649774356096        4.35963002097653     
   4.46034298650223        5.08332279157863        5.11655960867225     
   5.66855104087380        5.89309568514232        6.23762221102947     
   6.28752884989840        6.56848426494811        6.92658491665795     
   7.16287086094242        7.71577152628164        8.15590004283028     
   10.5680795925756        10.6045983138633        11.0757894930313     
   11.0929105065230        11.4850826060104        12.2409744005138     
   12.8458226420536        13.1469503416294        15.2716514553475     
   17.9812296222111        20.5658233175116        26.4882734193012     
   28.0104358118673        34.8806723395255        36.6187431953939     
[...]
 Convergence information after     9 iterations: 
 Largest element of residual vector : -0.11693523E-04.
 Largest element of DIIS residual   : -0.60243704E-05.
 Convergence information after    10 iterations: 
 Largest element of residual vector : -0.66967591E-05.
 Largest element of DIIS residual   : -0.46167518E-05.
 Convergence information after    11 iterations: 
 Largest element of residual vector : -0.28656002E-05.
 Largest element of DIIS residual   : -0.89006784E-06.
 Convergence information after    12 iterations: 
 Largest element of residual vector : -0.12108556E-05.
 Largest element of DIIS residual   :  0.49267810E-06.
 Convergence information after    13 iterations: 
 Largest element of residual vector :  0.39271477E-06.
 Largest element of DIIS residual   :  0.19738629E-06.
 Convergence information after    14 iterations: 
 Largest element of residual vector :  0.17744313E-06.
 Largest element of DIIS residual   :  0.83894746E-07.
 Perturbed amplitude equations converged in    14 iterations.
  Dominant contributions to perturbed wavefunction:
    7    7  141   28   0.2395151648 ABAB
    7    7   28  141   0.2395151648 ABAB
    7    7  141   37  -0.2033744251 ABAB
    7    7   37  141  -0.2033744251 ABAB
    7    7  141   39   0.1598525177 ABAB
    7    7   39  141   0.1598525177 ABAB
    7    7  141   55   0.1596414874 ABAB
    7    7   55  141   0.1596414874 ABAB
    7    6   28   90   0.1563488503 ABAB
    6    7   90   28   0.1563488503 ABAB
    7    7  141   53  -0.1490145770 ABAB
    7    7   53  141  -0.1490145770 ABAB
    7    7  141   44   0.1434516398 ABAB
    7    7   44  141   0.1434516398 ABAB
    7    7  140   28   0.1399980323 ABAB
    7    7   28  140   0.1399980323 ABAB
    5    5  141   44   0.1349089716 ABAB
    5    5   44  141   0.1349089716 ABAB
    7    6   37   90  -0.1331066358 ABAB
    6    7   90   37  -0.1331066358 ABAB
  norm of converged amps    2.32000860926445     
 Starting iterative solution of the perturbed Lambda equations.
 The DIIS procedure is used to accelerate convergence.
 Convergence criterion is 10**(-7).
 Maximum number of iterations is 100.
 Convergence information after     1 iterations: 
 Largest element of residual vector :  0.66184454E-01.
 Largest element of DIIS residual   :  0.66184454E-01.
 Convergence information after     2 iterations: 
 Largest element of residual vector : -0.85497800E-02.
 Largest element of DIIS residual   : -0.48657909E-02.
 Convergence information after     3 iterations: 
 Largest element of residual vector : -0.48915256E-02.
 Largest element of DIIS residual   : -0.42823162E-02.
 Convergence information after     4 iterations: 
 Largest element of residual vector : -0.30341768E-02.
 Largest element of DIIS residual   : -0.24397486E-02.
 Convergence information after     5 iterations: 
 Largest element of residual vector : -0.18531399E-02.
 Largest element of DIIS residual   : -0.89699930E-03.
 Convergence information after     6 iterations: 
 Largest element of residual vector : -0.62019760E-03.
 Largest element of DIIS residual   : -0.15688582E-03.
 Convergence information after     7 iterations: 
 Largest element of residual vector : -0.13632033E-03.
 Largest element of DIIS residual   :  0.53751455E-04.
 Convergence information after     8 iterations: 
 Largest element of residual vector :  0.30202341E-04.
 Largest element of DIIS residual   : -0.24493376E-04.
 Convergence information after     9 iterations: 
 Largest element of residual vector : -0.87515961E-05.
 Largest element of DIIS residual   : -0.58703091E-05.
 Convergence information after    10 iterations: 
 Largest element of residual vector : -0.52244083E-05.
 Largest element of DIIS residual   : -0.39741289E-05.
 Convergence information after    11 iterations: 
 Largest element of residual vector : -0.21775559E-05.
 Largest element of DIIS residual   : -0.85636470E-06.
 Convergence information after    12 iterations: 
 Largest element of residual vector : -0.10731713E-05.
 Largest element of DIIS residual   :  0.69730366E-06.
 Convergence information after    13 iterations: 
 Largest element of residual vector :  0.52815002E-06.
 Largest element of DIIS residual   :  0.35141367E-06.
 Convergence information after    14 iterations: 
 Largest element of residual vector :  0.29375396E-06.
 Largest element of DIIS residual   :  0.14252819E-06.
 Convergence information after    15 iterations: 
 Largest element of residual vector :  0.96126028E-07.
 Largest element of DIIS residual   :  0.44626011E-07.
 Perturbed Lambda equations converged in    15 iterations.
  Dominant contributions to perturbed wavefunction:
    7    7  141   28   0.2244715190 ABAB
    7    7   28  141   0.2244715190 ABAB
    7    7  141   37  -0.1918844867 ABAB
    7    7   37  141  -0.1918844867 ABAB
    7    7  141   39   0.1483291798 ABAB
    7    7   39  141   0.1483291798 ABAB
    7    7  141   55   0.1479078366 ABAB
    7    7   55  141   0.1479078366 ABAB
    7    6   28   90   0.1443485422 ABAB
    6    7   90   28   0.1443485422 ABAB
    7    7  141   53  -0.1388002013 ABAB
    7    7   53  141  -0.1388002013 ABAB
    7    7  140   28   0.1320168095 ABAB
    7    7   28  140   0.1320168095 ABAB
    7    7  141   44   0.1309794222 ABAB
    7    7   44  141   0.1309794222 ABAB
    5    5  141   44   0.1293637768 ABAB
    5    5   44  141   0.1293637768 ABAB
    7    7  141   19  -0.1242071606 ABAB
    7    7   19  141  -0.1242071606 ABAB
        The DBOC first-order density matrix is being calculated 
             (Symmetry block 3, perturbation   2)
 term   6.26262413128538     
 final tnorm  0.880826001358173     
  norm contr. I: |<0|L dT/dx|0>|^2   0.000000000000000E+000
  norm contr. II: <0|[nabla(1+L)e-T][nabla e^T]|0>   6.26262413128538     
  total norm contribution   6.26262413128538     
 oo  1.094969287524961E-002
 vv  -47.0087799678858     
 vo  4.673051316574476E-002
  Correlated perturbed 1-el contribution to DBOC  -46.9510997618448       cm**-1
  SUM_I |dc_I/dx|^2 contribution to DBOC   23.5769612346728       cm**-1
 
 
  The total diagonal Born-Oppenheimer correction (DBOC) is:      0.0041407887 a.u.
  The total diagonal Born-Oppenheimer correction (DBOC) is:        908.798067 cm-1
 
 Total CC energy including DBOC  -113.275004425150     
 First-order density matrix is being calculated  (Symmetry block 3, perturbation   2)
 Calculation of the contributions of <pq||rs> to dI(i,j)/dx required   2.0 seconds.
 Calculation of the contributions of <pq||rs> to dI(a,b)/dx required  15.7 seconds.
 Calculation of the contributions of <pq||rs> to dI(i,a)/dx required   9.4 seconds.
 First-order Z-vector equations are solved for 1 perturbation.
 Convergence reached after  18 iterations.
        U*G(pq,rs) contribution is being calculated
             (Symmetry block 3, perturbation   2)

 CCSD contribution to force constants 

        0.0000000000        0.0000000000        0.0000000000
        0.0000000000        0.0000000000        0.0000000000
        0.0000000000        0.0000000000        0.0000000000
        0.0000000000        0.0000000000        0.0000000000
        0.0000000000        0.0000000000        0.0000000000
        0.0000000000        0.0000000000        0.0000000000
        0.0000000000        0.0000000000        0.0000000000
        0.0000000000        0.0000000000        0.0000000000
        0.0000000000        0.0000000000        0.0000000000
        0.0000000000        0.0000000000        0.0000000000
        0.0000000000        0.0000000000        0.0000000000
        0.0000000000        0.1401251499       -0.1401251499

 CCSD contribution to dipole derivatives 

        0.0000000000        0.0000000000        0.0000000000
        0.0000000000        0.0000000000        0.0000000000
        0.0000000000        0.0000000000        0.0000000000
        0.0000000000        0.0000000000       -0.0466481646
        0.0000000000        0.0000000000        0.0000000000
        0.0000000000        0.0000000000        0.0000000000
 @CHECKOUT-I, Total execution time (CPU/WALL):     1004.09/     244.96 seconds.
--executable xsdcc finished with status     0 in      244.99 seconds (walltime).
 --invoking executable--
/nfs/workspaces/public/cfour_mpi/bin/xanti
 @GETMEM-I,  Allocated    3814 MB of main memory.
 CCSD MO derivative gammas will be sorted to Mulliken order.
 @CHECKOUT-I, Total execution time (CPU/WALL):        9.99/      18.60 seconds.
--executable xanti finished with status     0 in       18.63 seconds (walltime).
 --invoking executable--
/nfs/workspaces/public/cfour_mpi/bin/xbcktrn
 @GETMEM-I,  Allocated    3814 MB of main memory.
 CCSD MO derivative gammas will be transformed to the AO basis.
 @CHECKOUT-I, Total execution time (CPU/WALL):       20.15/       5.68 seconds.
--executable xbcktrn finished with status     0 in        5.70 seconds (walltime).
 --invoking executable--
/nfs/workspaces/public/cfour_mpi/bin/xvdint
 @GETMEM-I,  Allocated    3814 MB of main memory.
 One- and two-electron integral derivatives are calculated
 for RHF-CC/MBPT hessians and dipole derivatives.
 Spherical gaussians are used.
  magnet F F
                    8722  records have been written to the Sort file.
  Total length of Sort file :             178609116  words.
 Evaluation of 2el integral derivatives

                      Two-electron integral gradient
                      ------------------------------

                         C #1 z     0.0000000000
                         O #2 z     0.0000000000


 C #1       0.0000000000           -0.4755554147            0.0000000000
 O #2       0.0000000000            0.4755554147            0.0000000000


 Evaluation of 2e integral derivatives required  324.56 seconds.
  contribution to Hessian
        0.0000000000        0.0000000000        0.0000000000
        0.0000000000       -0.4755554147        0.4755554147
 @CHECKOUT-I, Total execution time (CPU/WALL):      324.56/      66.31 seconds.
--executable xvdint finished with status     0 in       66.33 seconds (walltime).
 --invoking executable--
/nfs/workspaces/public/cfour_mpi/bin/xanti
 @GETMEM-I,  Allocated    3814 MB of main memory.
 CCSD MO gammas will be sorted to Mulliken order.
 @CHECKOUT-I, Total execution time (CPU/WALL):       10.68/       9.30 seconds.
--executable xanti finished with status     0 in        9.32 seconds (walltime).
 --invoking executable--
/nfs/workspaces/public/cfour_mpi/bin/xbcktrn
 @GETMEM-I,  Allocated    3814 MB of main memory.
 CCSD MO gammas will be transformed to the AO basis.
 @CHECKOUT-I, Total execution time (CPU/WALL):       26.65/       4.12 seconds.
--executable xbcktrn finished with status     0 in        4.14 seconds (walltime).
 --invoking executable--
/nfs/workspaces/public/cfour_mpi/bin/xvdint
 @GETMEM-I,  Allocated    3814 MB of main memory.
 One- and two-electron integral derivatives are calculated
 for RHF-CC/MBPT hessians and dipole derivatives.
 Spherical gaussians are used.
  magnet F F

                     Kinetic energy integral gradient
                     --------------------------------

                         C #1 z    -1.3532879725
                         O #2 z     1.3532879725


 C #1       0.0000000000            0.0000000000           -1.3532879725
 O #2       0.0000000000            0.0000000000            1.3532879725



                   Nuclear attraction integral gradient
                   ------------------------------------

                         C #1 z    22.3224602323
                         O #2 z   -22.3224602323


 C #1       0.0000000000            0.0000000000           22.3224602323
 O #2       0.0000000000            0.0000000000          -22.3224602323



                      Reorthonormalization gradient
                      -----------------------------

                         C #1 z     0.0000000000
                         O #2 z     0.0000000000


 C #1       0.0000000000            0.0000000000            0.0000000000
 O #2       0.0000000000            0.0000000000            0.0000000000



                     Kinetic energy integral Hessian
                     -------------------------------


           Symmetry 1

           C #1 z      O #2 z

 C #1 z    1.091046
 O #2 z   -1.091046    1.091046


           Symmetry 2

           C #1 x      O #2 x

 C #1 x   -1.669757
 O #2 x    1.669757   -1.669757


           Symmetry 3

           C #1 y      O #2 y

 C #1 y   -1.669757
 O #2 y    1.669757   -1.669757




           C #1 x      C #1 y      C #1 z      O #2 x      O #2 y      O #2 z

 C #1 x   -1.669757
 C #1 y    0.000000   -1.669757
 C #1 z    0.000000    0.000000    1.091046

 O #2 x    1.669757    0.000000    0.000000   -1.669757
 O #2 y    0.000000    1.669757    0.000000    0.000000   -1.669757
 O #2 z    0.000000    0.000000   -1.091046    0.000000    0.000000    1.091046




                   Nuclear attraction integral Hessian
                   -----------------------------------


           Symmetry 1

           C #1 z      O #2 z

 C #1 z  -13.023959
 O #2 z   13.023959  -13.023959


           Symmetry 2

           C #1 x      O #2 x

 C #1 x   18.704094
 O #2 x  -18.704094   18.704094


           Symmetry 3

           C #1 y      O #2 y

 C #1 y   18.704094
 O #2 y  -18.704094   18.704094




           C #1 x      C #1 y      C #1 z      O #2 x      O #2 y      O #2 z

 C #1 x   18.704094
 C #1 y    0.000000   18.704094
 C #1 z    0.000000    0.000000  -13.023959

 O #2 x  -18.704094    0.000000    0.000000   18.704094
 O #2 y    0.000000  -18.704094    0.000000    0.000000   18.704094
 O #2 z    0.000000    0.000000   13.023959    0.000000    0.000000  -13.023959




                Highest order reorthonormalization Hessian
                ------------------------------------------


           Symmetry 1

           C #1 z      O #2 z

 C #1 z    0.000000
 O #2 z    0.000000    0.000000


           Symmetry 2

           C #1 x      O #2 x

 C #1 x    0.000000
 O #2 x    0.000000    0.000000


           Symmetry 3

           C #1 y      O #2 y

 C #1 y    0.000000
 O #2 y    0.000000    0.000000




           C #1 x      C #1 y      C #1 z      O #2 x      O #2 y      O #2 z




                Electronic contributions to dipole moment
                -----------------------------------------

                               au             Debye

                    z      0.01404001      0.03568616

  Conversion factor used: 1 a.u. =   2.54174691 Debye 



   Electronic contributions to static part of dipole moment derivatives
   --------------------------------------------------------------------


                     Total dipole moment derivatives
                     -------------------------------


           Symmetry 1
                              Ez

               C #1 z    -5.71260664
               O #2 z    -8.28739336

           Symmetry 2
                              Ex

               C #1 x    -5.76761680
               O #2 x    -8.23238320

           Symmetry 3
                              Ey

               C #1 y    -5.76761680
               O #2 y    -8.23238320



                       Ex          Ey          Ez

      C #1    x   -5.767617    0.000000    0.000000
      C #1    y    0.000000   -5.767617    0.000000
      C #1    z    0.000000    0.000000   -5.712607

      O #2    x   -8.232383    0.000000    0.000000
      O #2    y    0.000000   -8.232383    0.000000
      O #2    z    0.000000    0.000000   -8.287393

 Evaluation of 1e integral derivatives required    1.66 seconds.
                    8815  records have been written to the Sort file.
  Total length of Sort file :             180513570  words.
 Evaluation of 2el integral derivatives

                      Two-electron integral gradient
                      ------------------------------

                         C #1 z   -10.7442018473
                         O #2 z    10.7442018473


 C #1       0.0000000000            0.0000000000          -10.7442018473
 O #2       0.0000000000            0.0000000000           10.7442018473


 Evaluation of 2e integral derivatives required  726.79 seconds.

                            Molecular gradient
                            ------------------

                         C #1 z     0.5602987367
                         O #2 z    -0.5602987367


 C #1       0.0000000000            0.0000000000            0.5602987367
 O #2       0.0000000000            0.0000000000           -0.5602987367


  Molecular gradient norm 0.792E+00

                            Molecular hessian
                            -----------------


           Symmetry 1

           C #1 z      O #2 z

 C #1 z   57.557543
 O #2 z  -57.557543   57.557543


           Symmetry 2

           C #1 x      O #2 x

 C #1 x    0.531270
 O #2 x   -0.531270    0.531270


           Symmetry 3

           C #1 y      O #2 y

 C #1 y    0.531270
 O #2 y   -0.531270    0.531270




           C #1 x      C #1 y      C #1 z      O #2 x      O #2 y      O #2 z

 C #1 x    0.531270
 C #1 y    0.000000    0.531270
 C #1 z    0.000000    0.000000   57.557543

 O #2 x   -0.531270    0.000000    0.000000    0.531270
 O #2 y    0.000000   -0.531270    0.000000    0.000000    0.531270
 O #2 z    0.000000    0.000000  -57.557543    0.000000    0.000000   57.557543




                           Total dipole moment
                           -------------------

                               au             Debye

                    z      0.01161104      0.02951233

  Conversion factor used: 1 a.u. =   2.54174691 Debye 



                     Total dipole moment derivatives
                     -------------------------------


           Symmetry 1
                              Ez

               C #1 z     0.71548355
               O #2 z    -0.71548355

           Symmetry 2
                              Ex

               C #1 x     0.00478712
               O #2 x    -0.00478712

           Symmetry 3
                              Ey

               C #1 y     0.00478712
               O #2 y    -0.00478712



                       Ex          Ey          Ez

      C #1    x    0.004787    0.000000    0.000000
      C #1    y    0.000000    0.004787    0.000000
      C #1    z    0.000000    0.000000    0.715484

      O #2    x   -0.004787    0.000000    0.000000
      O #2    y    0.000000   -0.004787    0.000000
      O #2    z    0.000000    0.000000   -0.715484

 @CHECKOUT-I, Total execution time (CPU/WALL):      728.45/     119.62 seconds.
--executable xvdint finished with status     0 in      119.64 seconds (walltime).
 --invoking executable--
/nfs/workspaces/public/cfour_mpi/bin/xjoda
  @GTFLGS-I, Hessian will be transformed to curvilinear coordinates.
  @GTFLGS-I, Hessian will be transformed to curvilinear coordinates.
  igrd and ihes are                      0                     1
  gradient from JOBARC 
   0.000000000000000   0.000000000000000   0.560298736680260
   0.000000000000000   0.000000000000000  -0.560298736680260
 
  @PROJFCM-I, Projecting force constant matrix onto totally symmetric subspace.
  Largest difference between matrix elements of symmetrized
  and unsymmetrized FCM :    -0.1817435091E-12.
  read isotopes from ZMAT file 
 
  Summary of diagonal Born-Oppenheimer correction at the correlated level
  The total diagonal Born-Oppenheimer correction (DBOC) is:      0.0041407887 a.u.
  The total diagonal Born-Oppenheimer correction (DBOC) is:        908.798067 cm-1
  The total diagonal Born-Oppenheimer correction (DBOC) is:            10.872 kJ/mole
  hellooooooo 
  readis is  F
 
 @CHECKOUT-I, Total execution time (CPU/WALL):        0.01/       0.01 seconds.
--executable xjoda finished with status     0 in        0.03 seconds (walltime).
  The final electronic energy is      -113.275004425149817 a.u. 
  This computation required                         2528.66 seconds (walltime).
