 --invoking executable--
/nfs/workspaces/public/cfour_mpi/bin/xjoda


   *************************************************************************
         <<<     CCCCCC     CCCCCC   |||     CCCCCC     CCCCCC   >>>
       <<<      CCC        CCC       |||    CCC        CCC         >>>
      <<<      CCC        CCC        |||   CCC        CCC            >>>
    <<<        CCC        CCC        |||   CCC        CCC              >>>
      <<<      CCC        CCC        |||   CCC        CCC            >>>
       <<<      CCC        CCC       |||    CCC        CCC         >>>
         <<<     CCCCCC     CCCCCC   |||     CCCCCC     CCCCCC   >>>
   *************************************************************************

     ****************************************************************
     * CFOUR Coupled-Cluster techniques for Computational Chemistry *
     ****************************************************************
 

   Department of Chemistry                Institut fuer Physikalische Chemie
   University of Florida                  Universitaet Mainz
   Gainesville, FL 32611, USA             D-55099 Mainz, Germany

   Department of Chemistry                Fakultaet fuer Chemie und Biowiss.
   Johns Hopkins University               Karlsruher Institut fuer Technologie
   Baltimore, MD 21218, USA               D-76131 Karlsruhe, Germany

   Department of Chemistry                Department of Physical Chemistry
   Southern Methodist University          Eotvos Lorand University
   Dallas, TX 75275, USA                  H-1053 Budapest, Hungary

 
                       Version 2.1
 
                     vincent.theory.phys.ucl.ac.uk                     
                     Tue 25 Feb 09:28:55 GMT 2025                      
                     integer*8 version is running
 
********************************************************************************
*                          Input from ZMAT file                                *
********************************************************************************
Carbon Monoxide DBOC calculation                                                
C                                                                               
O 1 r                                                                           
                                                                                
r=1.3344827586206895                                                            
                                                                                
                                                                                
*CFOUR(CALC=CCSD,BASIS=AUG-PCVQZ,SCF_CONV=10                                    
CC_CONV=14,DBOC=ON,MEMORY=500000000                                             
ZFIELD=200)                                                                     
                                                                                
%isotopes                                                                       
12                                                                              
16                                                                              
********************************************************************************
  @GTFLGS-I, Hessian will be transformed to curvilinear coordinates.
    -------------------------------------------------------------------
                    CFOUR Control Parameters 
    -------------------------------------------------------------------
        External           Internal           Value            Units
          Name               Name
    -------------------------------------------------------------------
       ABCDTYPE             IABCDT         STANDARD    [  0]    ***   
       ANHARMONIC           IANHAR         OFF         [  0]    ***   
       ANH_ALGORIT          IANALG         STANDARD    [  0]    ***   
       ANH_DERIVAT          IANDER         SECOND      [  1]    ***   
       ANH_MODE             ANHMOD         VIBRATION   [  0]    ***   
       ANH_STEPSIZ          ICUBST             50000          x 10-6  
       ANH_SYMMETR          IANHSM         ABELIAN     [  0]    ***   
       AO_LADDERS           IAOLAD         SINGLEPASS  [  1]    ***   
       AV_SCF               IAVSCF         OFF         [  0]    ***   
       BASIS                IBASIS         AUG-PCVQZ   [ 52]    ***   
       BOTHVECTORS          BOTHVC         OFF         [  0]    ***   
       BOX_POTENT           IPIAB          OFF         [  0]    ***   
       BREIT                IBREIT         OFF         [  0]    ***   
       BRUCK_CONV           IBRTOL          10D-  4             ***   
       BRUECKNER            IBRKNR         OFF         [  0]    ***   
       BUFFERSIZE           IBUFFS              4096            ***   
       CACHE_RECS           ICHREC             10               ***   
       CALCLEVEL            ICLLVL         CCSD        [ 10]    ***   
       CCORBOPT             ICCORB         OFF         [  0]  x 0.01  
       CC_CONV              ICCCNV          10D- 14             ***   
       CC_EXPORDER          ICCEOR              5               ***   
       CC_EXTRAPOL          ICCEXT         DIIS        [  1]    ***   
       CC_GUESS             ICCGES         MP2         [  0]    ***   
       CC_MAXCYC            ICCCYC            100              cycles 
       CC_PROGRAM           ICCPRO         VCC         [  0]    ***   
       CHARGE               ICHRGE              0               ***   
       CHOLESKY             ICHOLE         OFF         [  0]    ***   
       CIS_CONV             ICISTL              5               ***   
       COMM_SIZE            IPSIZE            ***               ***   
       CONSTANT             ICONST         OLD         [  1]    ***   
       CONTINUUM            ICONTU         NONE        [  0]    ***   
       CONTRACTION          ICNTYP         GENERAL     [  1]    ***   
       COORDINATES          ICOORD         INTERNAL    [  0]    ***   
       CPHF_CONVER          ICPHFT          10D- 16             ***   
       CPHF_MAXCYC          ICPHFC             64              cycles 
       CUBIC                ICUBIC         OFF         [  0]    ***   
       CURVILINEAR          ICURVY         ON          [  1]    ***   
       DBOC                 IDBOC          ON          [  1]    ***   
       DCT                  IDCT           OFF         [  0]    ***   
       DERIV_LEV            IDRLVL         SECOND      [  2]    ***   
       DEVMEM_SIZE          IDVMEM          50000000           MByte  
       DIAG_MRCC            IEOMST          10D-  0             ***   
       DIFF_TYPE            IDIFTY         RELAXED     [  0]    ***   
       DIRECT               IDIRCT         OFF         [  0]    ***   
       DROPMO               IDRPMO      NONE         
       ECP                  IECP           OFF         [  0]    ***   
       EIGENVECTOR          IVEC                1               ***   
       EL_ANHARM            IELANH         OFF         [  0]    ***   
       EOMFOLLOW            IEOMSR         ENERGY      [  0]    ***   
       EOMIP                IEOMIP         OFF         [  0]    ***   
       EOMLEVEL             HBARFM         SAME        [  0]    ***   
       EOM_MRCC             IMRCCE         NEW         [  1]    ***   
       EOM_NONIT            EOMNON         OFF         [  0]    ***   
       EOM_NSING            IEOMSI          10D-  0             ***   
       EOM_NSTATES          IMRCCD         DAVIDSON    [  0]    ***   
       EOM_NTRIP            IEOMTR          10D-  0             ***   
       EOM_ORDER            IEXORD         ENERGY      [  0]    ***   
       EOM_PROPSTA          IEOMST              0               ***   
       ESTATE_CONV          IEXTOL          10D-  5             ***   
       ESTATE_DIAG          IEXDIG         ITERATIVE   [  0]    ***   
       ESTATE_LOCK          IESLOC         ON          [  1]    ***   
       ESTATE_MAXC          IEXMXC             40               ***   
       ESTATE_PROP          IEXPRP         OFF         [  0]    ***   
       EVAL_HESS            IRECAL              0            # of cyc.
       EXCITATION           IEXCIT              0               ***   
       EXCITE               IEXCIT         NONE        [  0]    ***   
       EXTERN_POT           IEXPOT         OFF         [  0]    ***   
       FCGRADNEW            IFCGNW         OFF         [  0]    ***   
       FC_FIELD             IFINFC              0             x 10-6  
       FD_CALTYPE           IFDCAL         GRADONLY    [  0]    ***   
       FD_PROJECT           IFDPRJ         OFF         [  1]    ***   
       FD_STEPSIZE          IDISFD              0            10-4 bohr
       FD_USEGROUP          IFDGRP         FULL        [  0]    ***   
       FILE_RECSIZ          IFLREC              4096           words  
       FINITE_PERT          IFIPER              0             x 10-6  
       FIXGEOM              IFIXGM         OFF         [  0]    ***   
       FOCK                 IFOCK          AO          [  1]    ***   
       FREQ_ALGORI          IVIALG         STANDARD    [  0]    ***   
       FROZEN_CORE          IFROCO         OFF         [  0]    ***   
       GAMMA_ABCD           IGABCD         STORE       [  0]    ***   
       GAMMA_ABCI           IGABCI         STORE       [  0]    ***   
       GENBAS_1             IGNBS1              0               ***   
       GENBAS_2             IGNBS2              0               ***   
       GENBAS_3             IGNBS3              0               ***   
       GENBAS_4             IGNBS4              0               ***   
       GEO_CONV             ICONTL              5              H/bohr 
       GEO_MAXCYC           IOPTCY             50               ***   
       GEO_MAXSTEP          IMXSTP            300            millibohr
       GEO_METHOD           INR            SINGLE_POINT[  5]    ***   
       GIAO                 IGIAO          OFF         [  1]    ***   
       GIMIC                IGIMIC         OFF         [  0]    ***   
       GRID                 IGRID          OFF         [  0]    ***   
       GRID_ALGO            IGALGO         SERIAL      [  0]    ***   
       GUESS                IGUESS         MOREAD      [  0]    ***   
       HBAR                 IHBAR          OFF         [  0]    ***   
       HESS_TYPE            IHESTP         SCF         [  0]    ***   
       HF2_FILE             IHF2Fl         USE         [  1]    ***   
       HFSTABILITY          ISTABL         OFF         [  0]    ***   
       INCORE               INCORE         OFF         [  0]    ***   
       INPUT_MRCC           IMRCC          ON          [  1]    ***   
       INTEGRALS            INTTYP         VMOL        [  1]    ***   
       JODA_PRINT           IJPRNT              0               ***   
       KEYWORD_OUT          IDMPKW         NO          [  0]    ***   
       LINDEP_TOL           ILINDP              8               ***   
       LINEQ_CONV           IZTACN          10D-  7           cycles  
       LINEQ_EXPOR          ILMAXD              5               ***   
       LINEQ_MAXCY          ILMAXC            100               ***   
       LINEQ_TYPE           ILTYPE         DIIS        [  1]    ***   
       LOCK_ORBOCC          ILOCOC         OFF         [  0]    ***   
       MEMORY_SIZE          IMEMSZ         500000000           words  
       MEM_UNIT             IMEMU          INTEGERWORDS[  0]    ***   
       MRCC                 IMRCCC         OFF         [  0]    ***   
       MULTIPLICTY          IMULTP              1               ***   
       NACOUPLING           IVCOUP         OFF         [  0]    ***   
       NEGEVAL              IDIE           ABORT       [  0]    ***   
       NEWNORM              INEWNO         OFF         [  0]    ***   
       NON-HF               INONHF         OFF         [  0]    ***   
       NTOP_TAMP            ITOPT2             15               ***   
       NUC_MODEL            INUCMO         POINT       [  0]    ***   
       OCCUPATION           IOCCU   ESTIMATED BY SCF 
       OPEN-SHELL           IOPEN          SPIN-ORBITAL[  0]    ***   
       OPTVIB               IOPTVB         OFF         [  0]    ***   
       ORBITALS             IORBTP         STANDARD    [  0]    ***   
       PARALLEL             IPARAL         ON          [  1]    ***   
       PARA_INT             IPINTS         ON          [  1]    ***   
       PARA_PRINT           IPPRIN              0               ***   
       PERT_ORB             IPTORB         STANDARD    [  0]    ***   
       POINTS               IGRDFD              0               ***   
       PRINT                IPRNT               0               ***   
       PROPS                IPROPS         OFF         [  0]    ***   
       PROP_INTEGR          IINTYP         INTERNAL    [  0]    ***   
       PSI                  IPSI           OFF         [  0]    ***   
       QC_ALG               IQCALG         FLM         [  0]    ***   
       QC_LINALG            IQCLIN         TRIDIAG     [  2]    ***   
       QC_MAXCYC            IQCMAX          10D-100           cycles  
       QC_MAXSCFCY          IQCMSC          10D- 15           cycles  
       QC_RTRUST            IQCRTR          10D-  0           x 10-3  
       QC_SKIPSCF           IQCSKI         OFF         [  0]    ***   
       QC_START             IQCSTA          10D-  1             ***   
       QRHFGUESS            IQGUES         OFF         [  0]    ***   
       QUARTIC              IQUART         OFF         [  0]    ***   
       RAMAN_INT            IRAMIN         OFF         [  0]    ***   
       RAMAN_ORB            IRAMRE         UNRELAXED   [  0]    ***   
       RDO                  IRDOFM         ON          [  1]    ***   
       REDUCE_REPR          REDREP         Ir          [  0]    ***   
       REFERENCE            IREFNC         RHF         [  0]    ***   
       RELATIVIST           IRELAT         OFF         [  0]    ***   
       RELAX_DENS           IRDENS         ON          [  1]    ***   
       RESET_FLAGS          IRESET         OFF         [  0]    ***   
       RESTART_CC           ICCRES         OFF         [  0]    ***   
       ROT_EVEC             ROTVEC              0               ***   
       SAVE_INTS            ISVINT         OFF         [  0]    ***   
       SCALE_ON             ISTCRT              0               ***   
       SCF_CONV             ISCFCV          10D- 10             ***   
       SCF_DAMPING          IDAMP               0             x 10-3  
       SCF_EXPORDE          IRPPOR              6               ***   
       SCF_EXPSTAR          IRPPLS              8               ***   
       SCF_EXTRAPO          IRPP           ON          [  1]    ***   
       SCF_MAXCYC           ISCFCY            150              cycles 
       SCF_NOSTOP           ISCFST         OFF         [  0]    ***   
       SCF_PRINT            ISCFPR              0               ***   
       SCF_PROG             ISCFPR         SCF         [  0]    ***   
       SD_FIELD             IFINSD              0             x 10-6  
       SOPERT               IPERSO         OFF         [  0]    ***   
       SPHERICAL            IDFGHI         ON          [  1]    ***   
       SPINORBIT            ISOCAL         OFF         [  0]    ***   
       SPINROTATIO          ISRCON         OFF         [  0]    ***   
       SPIN_FLIP            ISPFLP         OFF         [  0]    ***   
       SPIN_ORBIT           ISPORB         OFF         [  0]    ***   
       SPIN_SCAL            ISCSMP         OFF         [  0]    ***   
       STEEPSCALE           ISTPSC              1000          x 10-3  
       SUBGROUP             ISUBGP         DEFAULT     [  0]    ***   
       SUBGRPAXIS           ISBXYZ         X           [  0]    ***   
       SYMMETRY             ISYM           ON          [  0]    ***   
       SYM_CHECK            ISYMCK         OVERRIDE    [  1]    ***   
       T3_EXTRAPOL          IT3EXT         OFF         [  0]    ***   
       T4_EXTRAPOL          IT4EXP         OFF         [  0]    ***   
       TAMP_SUM             IEVERY              5               ***   
       TESTSUITE            ITESTS         OFF         [  0]    ***   
       THERMOCH             ITHERM         OFF         [  0]    ***   
       TOL_CHOLESK          ITOLCH          10D-  4             ***   
       TRANGRAD             IRESRM         OFF         [  0]    ***   
       TRANS_INV            ITRAIN         IGNORE      [  1]    ***   
       TREAT_PERT           ITREAT         SIMULTANEOUS[  0]    ***   
       TRIP_ALGORI          ITRALG         NORMAL      [  0]    ***   
       UIJ_THRESHO          IUIJTH              1               ***   
       UNITS                IUNITS         ANGSTROM    [  0]    ***   
       UNOS                 IUNOS          OFF         [  0]    ***   
       UPDATE_HESS          IHUPDT         ON          [  1]    ***   
       VIBPHASE             ISETPH         STANDARD    [  0]    ***   
       VIBRATION            IVIB           ANALYTIC    [  1]    ***   
       VIB_ALGORIT          IGEALG         STANDARD    [  0]    ***   
       VNATORB              IVNORB         OFF         [  0]    ***   
       VTRAN                IVTRAN         FULL/PARTIAL[  0]    ***   
       XFIELD               IXEFLD              0             x 10-6  
       XFORM_TOL            IXFTOL          10D- 11             ***   
       YFIELD               IYEFLD              0             x 10-6  
       ZFIELD               IZEFLD            200             x 10-6  
       ZSCALE_EXP           IZEXPS         OFF         [  0]    ***   
    -------------------------------------------------------------------
   2 entries found in Z-matrix 
   Job Title : Carbon Monoxide DBOC calculation                                                
   There are  1 unique internal coordinates.
   Of these,  0 will be optimized.
   User supplied Z-matrix: 
--------------------------------------------------------------------------------
       SYMBOL    BOND      LENGTH    ANGLE     ANGLE     DIHED     ANGLE
                  TO      (ANGST)    WRT      (DEG)      WRT      (DEG)
--------------------------------------------------------------------------------
        C    
        O          1         r    
                  *Initial values for internal coordinates* 
                      Name             Value
                        r               1.3344827586
--------------------------------------------------------------------------------
  read isotopes from ZMAT file 
   Rotational constants (in cm-1): 
          1.3806595329             1.3806595329
   Rotational constants (in MHz): 
      41391.1373019754         41391.1373019754
********************************************************************************
   The full molecular point group is CXv .
   The largest Abelian subgroup of the full molecular point group is C2v .
   The computational point group is C2v .
********************************************************************************
--------------------------------------------------------------------------------
   Analysis of internal coordinates specified by Z-matrix 
--------------------------------------------------------------------------------
   *The nuclear repulsion energy is   19.033967007751937 a.u.
   *There is   1 degree of freedom within the tot. symm. molecular subspace.
   *Z-matrix requests optimization of   0 coordinates.
   *The optimization is constrained.
   *The following   1 parameters can have non-zero 
    derivatives within the totally symmetric subspace:
             r    [ 1]
   *The following   0 parameters are to be optimized:

   *The following coordinates must be varied in an  unconstrained optimization.
             r    [ 1]
--------------------------------------------------------------------------------


 ----------------------------------------------------------------
         Coordinates used in calculation (QCOMP) 
 ----------------------------------------------------------------
 Z-matrix   Atomic            Coordinates (in bohr)
  Symbol    Number           X              Y              Z
 ----------------------------------------------------------------
     C         6        -0.00000000     0.00000000     1.44083651
     O         8         0.00000000     0.00000000    -1.08097095
 ----------------------------------------------------------------
 
   Interatomic distance matrix (Angstroms) 
 
                 C             O    
                [ 1]        [ 2]
  C    [ 1]     0.00000
  O    [ 2]     1.33448     0.00000
 rotcon2
   Rotational constants (in cm-1): 
          1.3806595329             0.0000000000
   Rotational constants (in MHz): 
      41391.1373019754             0.0000000000
  ECPDATA file not present.   Using default ECPDATA. 
  @GTFLGS-I, Hessian will be transformed to curvilinear coordinates.
  There are  218 basis functions.
 @CHECKOUT-I, Total execution time (CPU/WALL):        0.10/       0.13 seconds.
--executable xjoda finished with status     0 in        0.15 seconds (walltime).
 --invoking executable--
/nfs/workspaces/public/cfour_mpi/bin/xvmol
 SERIAL VERSION OF MOLECULE STARTED
********************************************************************************
                    INPUT FROM MOL FILE
********************************************************************************
INTGRL        1    0    1    0    0    0    0    0    0                         
         *** CFOUR Program System (Release V0.1) ***                            
Carbon Monoxide DBOC calculation                                                
    2    2 X  Y       0.10E-08              0    0                              
   9999.00      3.00                                                            
          6.00000000    1    5    1    1    1    1    1                         
C #1  -0.000000000000000   0.000000000000000   1.440836508149174                
   16    9                                                                      
   33980.0000000000       9.100000000000000E-005 -1.900000000000000E-005        
  0.000000000000000E+000  0.000000000000000E+000  0.000000000000000E+000        
  0.000000000000000E+000  0.000000000000000E+000  0.000000000000000E+000        
  0.000000000000000E+000                                                        
   5089.00000000000       7.040000000000000E-004 -1.510000000000000E-004        
  0.000000000000000E+000  0.000000000000000E+000  0.000000000000000E+000        
  0.000000000000000E+000  0.000000000000000E+000  0.000000000000000E+000        
  0.000000000000000E+000                                                        
   1157.00000000000       3.693000000000000E-003 -7.850000000000000E-004        
  0.000000000000000E+000  0.000000000000000E+000  0.000000000000000E+000        
  0.000000000000000E+000  0.000000000000000E+000  0.000000000000000E+000        
  0.000000000000000E+000                                                        
   326.600000000000       1.536000000000000E-002 -3.324000000000000E-003        
  0.000000000000000E+000  0.000000000000000E+000  0.000000000000000E+000        
  0.000000000000000E+000  0.000000000000000E+000  0.000000000000000E+000        
  0.000000000000000E+000                                                        
   106.100000000000       5.292900000000000E-002 -1.151200000000000E-002        
  0.000000000000000E+000  0.000000000000000E+000  0.000000000000000E+000        
  0.000000000000000E+000  0.000000000000000E+000  0.000000000000000E+000        
  0.000000000000000E+000                                                        
   38.1100000000000       0.147043000000000      -3.416000000000000E-002        
  0.000000000000000E+000  0.000000000000000E+000  0.000000000000000E+000        
  0.000000000000000E+000  0.000000000000000E+000  0.000000000000000E+000        
  0.000000000000000E+000                                                        
   14.7500000000000       0.305631000000000      -7.717300000000001E-002        
  0.000000000000000E+000  0.000000000000000E+000  0.000000000000000E+000        
  0.000000000000000E+000  0.000000000000000E+000  0.000000000000000E+000        
  0.000000000000000E+000                                                        
   6.03500000000000       0.399345000000000      -0.141493000000000             
  0.000000000000000E+000  0.000000000000000E+000  0.000000000000000E+000        
  0.000000000000000E+000  0.000000000000000E+000  0.000000000000000E+000        
  0.000000000000000E+000                                                        
   2.53000000000000       0.217051000000000      -0.118019000000000             
  0.000000000000000E+000  0.000000000000000E+000  0.000000000000000E+000        
  0.000000000000000E+000  0.000000000000000E+000  0.000000000000000E+000        
  0.000000000000000E+000                                                        
  0.735500000000000       1.589400000000000E-002  0.273806000000000             
   1.00000000000000       0.000000000000000E+000  0.000000000000000E+000        
  0.000000000000000E+000  0.000000000000000E+000  0.000000000000000E+000        
  0.000000000000000E+000                                                        
  0.290500000000000      -3.084000000000000E-003  0.586510000000000             
  0.000000000000000E+000   1.00000000000000       0.000000000000000E+000        
  0.000000000000000E+000  0.000000000000000E+000  0.000000000000000E+000        
  0.000000000000000E+000                                                        
  0.111100000000000       9.779999999999999E-004  0.285430000000000             
  0.000000000000000E+000  0.000000000000000E+000   1.00000000000000             
  0.000000000000000E+000  0.000000000000000E+000  0.000000000000000E+000        
  0.000000000000000E+000                                                        
   7.21600000000000       0.000000000000000E+000  0.000000000000000E+000        
  0.000000000000000E+000  0.000000000000000E+000  0.000000000000000E+000        
   1.00000000000000       0.000000000000000E+000  0.000000000000000E+000        
  0.000000000000000E+000                                                        
   19.5700000000000       0.000000000000000E+000  0.000000000000000E+000        
  0.000000000000000E+000  0.000000000000000E+000  0.000000000000000E+000        
  0.000000000000000E+000   1.00000000000000       0.000000000000000E+000        
  0.000000000000000E+000                                                        
   53.0730000000000       0.000000000000000E+000  0.000000000000000E+000        
  0.000000000000000E+000  0.000000000000000E+000  0.000000000000000E+000        
  0.000000000000000E+000  0.000000000000000E+000   1.00000000000000             
  0.000000000000000E+000                                                        
  4.145000000000000E-002  0.000000000000000E+000  0.000000000000000E+000        
  0.000000000000000E+000  0.000000000000000E+000  0.000000000000000E+000        
  0.000000000000000E+000  0.000000000000000E+000  0.000000000000000E+000        
   1.00000000000000                                                             
   10    8                                                                      
   34.5100000000000       5.378000000000000E-003  0.000000000000000E+000        
  0.000000000000000E+000  0.000000000000000E+000  0.000000000000000E+000        
  0.000000000000000E+000  0.000000000000000E+000  0.000000000000000E+000        
   7.91500000000000       3.613200000000000E-002  0.000000000000000E+000        
  0.000000000000000E+000  0.000000000000000E+000  0.000000000000000E+000        
  0.000000000000000E+000  0.000000000000000E+000  0.000000000000000E+000        
   2.36800000000000       0.142493000000000       0.000000000000000E+000        
  0.000000000000000E+000  0.000000000000000E+000  0.000000000000000E+000        
  0.000000000000000E+000  0.000000000000000E+000  0.000000000000000E+000        
  0.813200000000000       0.342150000000000        1.00000000000000             
  0.000000000000000E+000  0.000000000000000E+000  0.000000000000000E+000        
  0.000000000000000E+000  0.000000000000000E+000  0.000000000000000E+000        
  0.289000000000000       0.463864000000000       0.000000000000000E+000        
   1.00000000000000       0.000000000000000E+000  0.000000000000000E+000        
  0.000000000000000E+000  0.000000000000000E+000  0.000000000000000E+000        
  0.100700000000000       0.250028000000000       0.000000000000000E+000        
  0.000000000000000E+000   1.00000000000000       0.000000000000000E+000        
  0.000000000000000E+000  0.000000000000000E+000  0.000000000000000E+000        
   8.18200000000000       0.000000000000000E+000  0.000000000000000E+000        
  0.000000000000000E+000  0.000000000000000E+000   1.00000000000000             
  0.000000000000000E+000  0.000000000000000E+000  0.000000000000000E+000        
   24.1860000000000       0.000000000000000E+000  0.000000000000000E+000        
  0.000000000000000E+000  0.000000000000000E+000  0.000000000000000E+000        
   1.00000000000000       0.000000000000000E+000  0.000000000000000E+000        
   71.4940000000000       0.000000000000000E+000  0.000000000000000E+000        
  0.000000000000000E+000  0.000000000000000E+000  0.000000000000000E+000        
  0.000000000000000E+000   1.00000000000000       0.000000000000000E+000        
  3.218000000000000E-002  0.000000000000000E+000  0.000000000000000E+000        
  0.000000000000000E+000  0.000000000000000E+000  0.000000000000000E+000        
  0.000000000000000E+000  0.000000000000000E+000   1.00000000000000             
    6    6                                                                      
   1.84800000000000        1.00000000000000       0.000000000000000E+000        
  0.000000000000000E+000  0.000000000000000E+000  0.000000000000000E+000        
  0.000000000000000E+000                                                        
  0.649000000000000       0.000000000000000E+000   1.00000000000000             
  0.000000000000000E+000  0.000000000000000E+000  0.000000000000000E+000        
  0.000000000000000E+000                                                        
  0.228000000000000       0.000000000000000E+000  0.000000000000000E+000        
   1.00000000000000       0.000000000000000E+000  0.000000000000000E+000        
  0.000000000000000E+000                                                        
   8.65600000000000       0.000000000000000E+000  0.000000000000000E+000        
  0.000000000000000E+000   1.00000000000000       0.000000000000000E+000        
  0.000000000000000E+000                                                        
   33.2130000000000       0.000000000000000E+000  0.000000000000000E+000        
  0.000000000000000E+000  0.000000000000000E+000   1.00000000000000             
  0.000000000000000E+000                                                        
  7.660000000000000E-002  0.000000000000000E+000  0.000000000000000E+000        
  0.000000000000000E+000  0.000000000000000E+000  0.000000000000000E+000        
   1.00000000000000                                                             
    4    4                                                                      
   1.41900000000000        1.00000000000000       0.000000000000000E+000        
  0.000000000000000E+000  0.000000000000000E+000                                
  0.485000000000000       0.000000000000000E+000   1.00000000000000             
  0.000000000000000E+000  0.000000000000000E+000                                
   24.6940000000000       0.000000000000000E+000  0.000000000000000E+000        
   1.00000000000000       0.000000000000000E+000                                
  0.187000000000000       0.000000000000000E+000  0.000000000000000E+000        
  0.000000000000000E+000   1.00000000000000                                     
    2    2                                                                      
   1.01100000000000        1.00000000000000       0.000000000000000E+000        
  0.424000000000000       0.000000000000000E+000   1.00000000000000             
          8.00000000    1    5    1    1    1    1    1                         
O #2   0.000000000000000   0.000000000000000  -1.080970952190077                
   16    9                                                                      
   61420.0000000000       9.000000000000001E-005 -2.000000000000000E-005        
  0.000000000000000E+000  0.000000000000000E+000  0.000000000000000E+000        
  0.000000000000000E+000  0.000000000000000E+000  0.000000000000000E+000        
  0.000000000000000E+000                                                        
   9199.00000000000       6.980000000000001E-004 -1.590000000000000E-004        
  0.000000000000000E+000  0.000000000000000E+000  0.000000000000000E+000        
  0.000000000000000E+000  0.000000000000000E+000  0.000000000000000E+000        
  0.000000000000000E+000                                                        
   2091.00000000000       3.664000000000000E-003 -8.290000000000000E-004        
  0.000000000000000E+000  0.000000000000000E+000  0.000000000000000E+000        
  0.000000000000000E+000  0.000000000000000E+000  0.000000000000000E+000        
  0.000000000000000E+000                                                        
   590.900000000000       1.521800000000000E-002 -3.508000000000000E-003        
  0.000000000000000E+000  0.000000000000000E+000  0.000000000000000E+000        
  0.000000000000000E+000  0.000000000000000E+000  0.000000000000000E+000        
  0.000000000000000E+000                                                        
   192.300000000000       5.242300000000000E-002 -1.215600000000000E-002        
  0.000000000000000E+000  0.000000000000000E+000  0.000000000000000E+000        
  0.000000000000000E+000  0.000000000000000E+000  0.000000000000000E+000        
  0.000000000000000E+000                                                        
   69.3200000000000       0.145921000000000      -3.626100000000000E-002        
  0.000000000000000E+000  0.000000000000000E+000  0.000000000000000E+000        
  0.000000000000000E+000  0.000000000000000E+000  0.000000000000000E+000        
  0.000000000000000E+000                                                        
   26.9700000000000       0.305258000000000      -8.299200000000000E-002        
  0.000000000000000E+000  0.000000000000000E+000  0.000000000000000E+000        
  0.000000000000000E+000  0.000000000000000E+000  0.000000000000000E+000        
  0.000000000000000E+000                                                        
   11.1000000000000       0.398508000000000      -0.152090000000000             
  0.000000000000000E+000  0.000000000000000E+000  0.000000000000000E+000        
  0.000000000000000E+000  0.000000000000000E+000  0.000000000000000E+000        
  0.000000000000000E+000                                                        
   4.68200000000000       0.216980000000000      -0.115331000000000             
  0.000000000000000E+000  0.000000000000000E+000  0.000000000000000E+000        
  0.000000000000000E+000  0.000000000000000E+000  0.000000000000000E+000        
  0.000000000000000E+000                                                        
   1.42800000000000       1.759400000000000E-002  0.288979000000000             
   1.00000000000000       0.000000000000000E+000  0.000000000000000E+000        
  0.000000000000000E+000  0.000000000000000E+000  0.000000000000000E+000        
  0.000000000000000E+000                                                        
  0.554700000000000      -2.502000000000000E-003  0.586128000000000             
  0.000000000000000E+000   1.00000000000000       0.000000000000000E+000        
  0.000000000000000E+000  0.000000000000000E+000  0.000000000000000E+000        
  0.000000000000000E+000                                                        
  0.206700000000000       9.540000000000000E-004  0.277624000000000             
  0.000000000000000E+000  0.000000000000000E+000   1.00000000000000             
  0.000000000000000E+000  0.000000000000000E+000  0.000000000000000E+000        
  0.000000000000000E+000                                                        
   12.9740000000000       0.000000000000000E+000  0.000000000000000E+000        
  0.000000000000000E+000  0.000000000000000E+000  0.000000000000000E+000        
   1.00000000000000       0.000000000000000E+000  0.000000000000000E+000        
  0.000000000000000E+000                                                        
   34.9000000000000       0.000000000000000E+000  0.000000000000000E+000        
  0.000000000000000E+000  0.000000000000000E+000  0.000000000000000E+000        
  0.000000000000000E+000   1.00000000000000       0.000000000000000E+000        
  0.000000000000000E+000                                                        
   93.8810000000000       0.000000000000000E+000  0.000000000000000E+000        
  0.000000000000000E+000  0.000000000000000E+000  0.000000000000000E+000        
  0.000000000000000E+000  0.000000000000000E+000   1.00000000000000             
  0.000000000000000E+000                                                        
  6.959000000000000E-002  0.000000000000000E+000  0.000000000000000E+000        
  0.000000000000000E+000  0.000000000000000E+000  0.000000000000000E+000        
  0.000000000000000E+000  0.000000000000000E+000  0.000000000000000E+000        
   1.00000000000000                                                             
   10    8                                                                      
   63.4200000000000       6.044000000000000E-003  0.000000000000000E+000        
  0.000000000000000E+000  0.000000000000000E+000  0.000000000000000E+000        
  0.000000000000000E+000  0.000000000000000E+000  0.000000000000000E+000        
   14.6600000000000       4.179900000000000E-002  0.000000000000000E+000        
  0.000000000000000E+000  0.000000000000000E+000  0.000000000000000E+000        
  0.000000000000000E+000  0.000000000000000E+000  0.000000000000000E+000        
   4.45900000000000       0.161143000000000       0.000000000000000E+000        
  0.000000000000000E+000  0.000000000000000E+000  0.000000000000000E+000        
  0.000000000000000E+000  0.000000000000000E+000  0.000000000000000E+000        
   1.53100000000000       0.356731000000000        1.00000000000000             
  0.000000000000000E+000  0.000000000000000E+000  0.000000000000000E+000        
  0.000000000000000E+000  0.000000000000000E+000  0.000000000000000E+000        
  0.530200000000000       0.448309000000000       0.000000000000000E+000        
   1.00000000000000       0.000000000000000E+000  0.000000000000000E+000        
  0.000000000000000E+000  0.000000000000000E+000  0.000000000000000E+000        
  0.175000000000000       0.244940000000000       0.000000000000000E+000        
  0.000000000000000E+000   1.00000000000000       0.000000000000000E+000        
  0.000000000000000E+000  0.000000000000000E+000  0.000000000000000E+000        
   14.4750000000000       0.000000000000000E+000  0.000000000000000E+000        
  0.000000000000000E+000  0.000000000000000E+000   1.00000000000000             
  0.000000000000000E+000  0.000000000000000E+000  0.000000000000000E+000        
   42.7300000000000       0.000000000000000E+000  0.000000000000000E+000        
  0.000000000000000E+000  0.000000000000000E+000  0.000000000000000E+000        
   1.00000000000000       0.000000000000000E+000  0.000000000000000E+000        
   126.140000000000       0.000000000000000E+000  0.000000000000000E+000        
  0.000000000000000E+000  0.000000000000000E+000  0.000000000000000E+000        
  0.000000000000000E+000   1.00000000000000       0.000000000000000E+000        
  5.348000000000000E-002  0.000000000000000E+000  0.000000000000000E+000        
  0.000000000000000E+000  0.000000000000000E+000  0.000000000000000E+000        
  0.000000000000000E+000  0.000000000000000E+000   1.00000000000000             
    6    6                                                                      
   3.77500000000000        1.00000000000000       0.000000000000000E+000        
  0.000000000000000E+000  0.000000000000000E+000  0.000000000000000E+000        
  0.000000000000000E+000                                                        
   1.30000000000000       0.000000000000000E+000   1.00000000000000             
  0.000000000000000E+000  0.000000000000000E+000  0.000000000000000E+000        
  0.000000000000000E+000                                                        
  0.444000000000000       0.000000000000000E+000  0.000000000000000E+000        
   1.00000000000000       0.000000000000000E+000  0.000000000000000E+000        
  0.000000000000000E+000                                                        
   14.9270000000000       0.000000000000000E+000  0.000000000000000E+000        
  0.000000000000000E+000   1.00000000000000       0.000000000000000E+000        
  0.000000000000000E+000                                                        
   57.5440000000000       0.000000000000000E+000  0.000000000000000E+000        
  0.000000000000000E+000  0.000000000000000E+000   1.00000000000000             
  0.000000000000000E+000                                                        
  0.154000000000000       0.000000000000000E+000  0.000000000000000E+000        
  0.000000000000000E+000  0.000000000000000E+000  0.000000000000000E+000        
   1.00000000000000                                                             
    4    4                                                                      
   2.66600000000000        1.00000000000000       0.000000000000000E+000        
  0.000000000000000E+000  0.000000000000000E+000                                
  0.859000000000000       0.000000000000000E+000   1.00000000000000             
  0.000000000000000E+000  0.000000000000000E+000                                
   26.4830000000000       0.000000000000000E+000  0.000000000000000E+000        
   1.00000000000000       0.000000000000000E+000                                
  0.324000000000000       0.000000000000000E+000  0.000000000000000E+000        
  0.000000000000000E+000   1.00000000000000                                     
    2    2                                                                      
   1.84600000000000        1.00000000000000       0.000000000000000E+000        
  0.714000000000000       0.000000000000000E+000   1.00000000000000             
FINISH                                                                          
 
********************************************************************************
 ONE- AND TWO-ELECTRON INTEGRALS OVER SYMMETRY-ADAPTED AOS ARE CALCULATED.

  SPHERICAL HARMONICS ARE USED.
  
  INTEGRALS LESS THAN  0.10E-13 ARE NEGLECTED.

  NUCLEAR REPULSION ENERGY :   19.0339670078 A.U.
  @MOLECU-I, ONE ELECTRON INTEGRALS (CPU/WALL):        0.08/       0.10 SECONDS.
  @TWOEL-I,    4515292 INTEGRALS OF SYMMETRY TYPE  I I I I
  @TWOEL-I,   19440869 INTEGRALS OF SYMMETRY TYPE  I J I J
  @TWOEL-I,   10239823 INTEGRALS OF SYMMETRY TYPE  I I J J
  @TWOEL-I,   14394616 INTEGRALS OF SYMMETRY TYPE  I J K L
  @TWOEL-I, TOTAL NUMBER OF 2-E INTEGRALS   48590600.
  @MOLECU-I, TWO ELECTRON INTEGRALS (CPU/WALL):      192.12/      26.39 SECONDS.
 @CHECKOUT-I, Total execution time (CPU/WALL):      192.22/      26.52 seconds.

Running with 14 threads/proc

--executable xvmol finished with status     0 in       26.56 seconds (walltime).
 --invoking executable--
/nfs/workspaces/public/cfour_mpi/bin/xvmol2ja
 @GETMEM-I,  Allocated    3814 MB of main memory.
 @CHECKOUT-I, Total execution time (CPU/WALL):        0.15/       0.07 seconds.
--executable xvmol2ja finished with status     0 in        0.09 seconds (walltime).
 --invoking executable--
/nfs/workspaces/public/cfour_mpi/bin/xvprop
 @GETMEM-I,  Allocated    3814 MB of main memory.
   Property integrals will be calculated.
    --------------------------------------------------------------
                                   Property evaluated at 
    Property type                X             Y             Z
    --------------------------------------------------------------
    Dipole moment               ----          ----          ----  
    Quadrupole moment           ----          ----          ----  
    Octopole moment             ----          ----          ----  
    Relativisitic corr.         ----          ----          ----  
    Second moment            0.0000000     0.0000000     0.0000000
    Electron density         0.0000000     0.0000000     1.4408365
    Electron density         0.0000000     0.0000000    -1.0809710
    Field gradient           0.0000000     0.0000000     1.4408365
    Field gradient           0.0000000     0.0000000    -1.0809710
    Potential                0.0000000     0.0000000     1.4408365
    Potential                0.0000000     0.0000000    -1.0809710
    --------------------------------------------------------------
 @CHECKOUT-I, Total execution time (CPU/WALL):        1.33/       1.37 seconds.
--executable xvprop finished with status     0 in        1.41 seconds (walltime).
 --invoking executable--
/nfs/workspaces/public/cfour_mpi/bin/xvscf
  There are  218 functions in the AO basis.

  There are 4 irreducible representations.

       Irrep        # of functions
         1                 86
         2                 52
         3                 52
         4                 28


  Parameters for SCF calculation: 
        SCF reference function:  RHF  
  Maximum number of iterations:  150
     Full symmetry point group: CXv 
     Computational point group: C2v 
        Initial density matrix: MOREAD                 
     SCF convergence tolerance: 10**(-10)
  DIIS convergence acceleration:  ON
          Latest start for DIIS:   8
                     DIIS order:   6

  Memory information:    2523578 words required.
  Fock matrices are constructed from AO integral file.
 @GETMEM-I,  Allocated      19 MB of main memory.
  Initialization and symmetry analysis required      0.002 seconds.

  Adding electric field perturbation to one-electron Hamiltonian.
  Field direction     : Z
  Field strength      :  0.0002000 a.u.

  @INITGES-I, Occupancies from core Hamiltonian:

          Alpha population by irrep:   5    1    1    0
           Beta population by irrep:   5    1    1    0


 total no. of electrons in initial guess :  0.000000000000000E+000
  --------------------------------------------------------------------
  Iteration         Total Energy            Largest Density Difference
  --------------------------------------------------------------------
       0            19.033967557465658              0.0000000000D+00
   current occupation vector 
     5  1  1  0
     5  1  1  0
       1           -92.945573109955689              0.1780529995D+02
   current occupation vector 
     5  1  1  0
     5  1  1  0
       2           -98.357265431629244              0.1780190476D+02
   current occupation vector 
     5  1  1  0
     5  1  1  0
       3          -103.468721060640462              0.6979173188D+01
   current occupation vector 
     5  1  1  0
     5  1  1  0
       4           -99.103752470129152              0.6952885282D+01
   current occupation vector 
     5  1  1  0
     5  1  1  0
       5          -101.678005842298262              0.6231977985D+01
   current occupation vector 
     5  1  1  0
     5  1  1  0
       6           -97.754523743589516              0.6210684874D+01
   current occupation vector 
     5  1  1  0
     5  1  1  0
       7          -101.683503514974632              0.6373059137D+01
   current occupation vector 
     5  1  1  0
     5  1  1  0
       8           -97.663228847563644              0.6372240103D+01
   current occupation vector 
     5  1  1  0
     5  1  1  0
       9          -108.769114079539662              0.4812064741D+01
   current occupation vector 
     5  1  1  0
     5  1  1  0
      10          -110.827791201970442              0.1106925721D+01
   current occupation vector 
     5  1  1  0
     5  1  1  0
      11          -112.528484726893723              0.1051376726D+01
   current occupation vector 
     5  1  1  0
     5  1  1  0
      12          -112.698462092443762              0.4256418375D+00
   current occupation vector 
     5  1  1  0
     5  1  1  0
      13          -112.700258854071066              0.5571443695D-01
   current occupation vector 
     5  1  1  0
     5  1  1  0
      14          -112.700522290786850              0.1995100811D-01
   current occupation vector 
     5  1  1  0
     5  1  1  0
      15          -112.700551398619879              0.8455500337D-02
   current occupation vector 
     5  1  1  0
     5  1  1  0
      16          -112.700551926367737              0.9925449281D-03
   current occupation vector 
     5  1  1  0
     5  1  1  0
      17          -112.700551976195712              0.4541749021D-03
   current occupation vector 
     5  1  1  0
     5  1  1  0
      18          -112.700551981094847              0.1567550104D-03
   current occupation vector 
     5  1  1  0
     5  1  1  0
      19          -112.700551981216037              0.2368855288D-04
   current occupation vector 
     5  1  1  0
     5  1  1  0
      20          -112.700551981213792              0.1633683943D-05
   current occupation vector 
     5  1  1  0
     5  1  1  0
      21          -112.700551981217572              0.7902771384D-06
   current occupation vector 
     5  1  1  0
     5  1  1  0
      22          -112.700551981217146              0.1550797000D-06
   current occupation vector 
     5  1  1  0
     5  1  1  0
      23          -112.700551981216435              0.3468686915D-07
   current occupation vector 
     5  1  1  0
     5  1  1  0
      24          -112.700551981216805              0.2758484774D-08
   current occupation vector 
     5  1  1  0
     5  1  1  0
      25          -112.700551981213820              0.3799307535D-09
   current occupation vector 
     5  1  1  0
     5  1  1  0
      26          -112.700551981216890              0.1447275633D-09
   current occupation vector 
     5  1  1  0
     5  1  1  0

  SCF has converged.

 Density matrix saved to file den.dat
 total electron number:   14.0000000000004     
     E(SCF)=      -112.700551981217629              0.5991385166D-10

  Eigenvector printing suppressed.

 @PUTMOS-I, Writing converged MOs to NEWMOS. 
 @PUTMOS-I, Symmetry   1 Full Blocks 21 Partial Blocksize   2
 @PUTMOS-I, Symmetry   2 Full Blocks 13 Partial Blocksize   0
 @PUTMOS-I, Symmetry   3 Full Blocks 13 Partial Blocksize   0
 @PUTMOS-I, Symmetry   4 Full Blocks  7 Partial Blocksize   0
 @PUTFOCK-I, Writing converged Fock matrix to NEWFOCK. 
 @PUTFOCK-I, Symmetry   1 Full Blocks 21 Partial Blocksize   2
 @PUTFOCK-I, Symmetry   2 Full Blocks 13 Partial Blocksize   0
 @PUTFOCK-I, Symmetry   3 Full Blocks 13 Partial Blocksize   0
 @PUTFOCK-I, Symmetry   4 Full Blocks  7 Partial Blocksize   0


 
  ORBITAL EIGENVALUES (ALPHA)  (1H = 27.2113834 eV)

       MO #        E(hartree)               E(eV)           FULLSYM    COMPSYM
       ----   --------------------   --------------------   -------   ---------
    1     1         -20.6642507116        -562.3028487860     SG+        A1 (1)
    2     2         -11.4459542329        -311.4602490104     SG+        A1 (1)
    3     3          -1.3934254347         -37.9170337430     SG+        A1 (1)
    4     4          -0.7930134519         -21.5789930823     SG+        A1 (1)
    5     5          -0.5651211046         -15.3777270455     SG+        A1 (1)
    6    87          -0.5634670216         -15.3327171585      PI        B1 (2)
    7   139          -0.5634670216         -15.3327171585      PI        B2 (3)
  +++++++++++++++++++++++++++++++++++++++++++++++++++++++++++++++++++++++++++++
    8   140           0.0450017889           1.2245609307      PI        B2 (3)
    9    88           0.0450017889           1.2245609307      PI        B1 (2)
   10     6           0.0630518489           1.7157280345     SG+        A1 (1)
   11     7           0.0709959044           1.9318967735     SG+        A1 (1)
   12    89           0.0969789938           2.6389325822      PI        B1 (2)
   13   141           0.0969789938           2.6389325822      PI        B2 (3)
   14     8           0.1564292583           4.2566565226     SG+        A1 (1)
   15   142           0.1698464753           4.6217575585      PI        B2 (3)
   16    90           0.1698464753           4.6217575585      PI        B1 (2)
   17   191           0.2265716827           6.1653289251      DE        A2 (4)
   18     9           0.2265716827           6.1653289251      DE        A1 (1)
   19    10           0.2272705333           6.1843456176     SG+        A1 (1)
   20    11           0.2996229378           8.1531546365     SG+        A1 (1)
   21    91           0.3025501254           8.2328074591      PI        B1 (2)
   22   143           0.3025501254           8.2328074591      PI        B2 (3)
   23    12           0.3785901899          10.3019628077     SG+        A1 (1)
   24    92           0.3972247688          10.8090354794      PI        B1 (2)
   25   144           0.3972247688          10.8090354794      PI        B2 (3)
   26    13           0.5092161018          13.8564745795     SG+        A1 (1)
   27    14           0.5370091500          14.6127618707     SG+        A1 (1)
   28    15           0.5446130984          14.8196758264      DE        A1 (1)
   29   192           0.5446130984          14.8196758264      DE        A2 (4)
   30    93           0.6253020517          17.0153338694      PI        B1 (2)
   31   145           0.6253020517          17.0153338694      PI        B2 (3)
   32   146           0.7430614929          20.2197311741      PH        B2 (3)
   33    94           0.7430614929          20.2197311741      PH        B1 (2)
   34    16           0.7518256836          20.4582169255     SG+        A1 (1)
   35    17           0.7572247791          20.6051337828      DE        A1 (1)
   36   193           0.7572247791          20.6051337828      DE        A2 (4)
   37    95           0.7999112742          21.7666923684      PI        B1 (2)
   38   147           0.7999112742          21.7666923684      PI        B2 (3)
   39    18           0.8261081894          22.4795466719     SG+        A1 (1)
   40    19           0.8683252548          23.6283314248     SG+        A1 (1)
   41    20           0.8788917637          23.9158607481      DE        A1 (1)
   42   194           0.8788917637          23.9158607481      DE        A2 (4)
   43    96           0.8960432877          24.3825774451      PI        B1 (2)
   44   148           0.8960432877          24.3825774451      PI        B2 (3)
   45    97           1.0400678809          28.3016858693      PI        B1 (2)
   46   149           1.0400678809          28.3016858693      PI        B2 (3)
   47    21           1.1248771293          30.6094628420     SG+        A1 (1)
   48    22           1.4147281664          38.4967105424     SG+        A1 (1)
   49   150           1.4328667222          38.9902857381      PH        B2 (3)
   50    98           1.4328667222          38.9902857381      PH        B1 (2)
   51    23           1.5522025847          42.2375796459      DE        A1 (1)
   52   195           1.5522025847          42.2375796459      DE        A2 (4)
   53    99           1.5677174861          42.6597615768      PI        B1 (2)
   54   151           1.5677174861          42.6597615768      PI        B2 (3)
   55    24           1.6468941980          44.8142694410     SG+        A1 (1)
   56   100           1.6697359790          45.4358259012      PI        B1 (2)
   57   152           1.6697359790          45.4358259012      PI        B2 (3)
   58    25           1.7320786643          47.1322566140      DE        A1 (1)
   59   196           1.7320786643          47.1322566140      DE        A2 (4)
   60    26           1.8529346324          50.4209146969     SG+        A1 (1)
   61    27           2.0317972523          55.2880140238     SG+        A1 (1)
   62   101           2.0643836467          56.1747348961      PI        B1 (2)
   63   153           2.0643836467          56.1747348961      PI        B2 (3)
   64   197           2.0902730945          56.8792225840      PI        A2 (4)
   65    28           2.0902730945          56.8792225840      PI        A1 (1)
   66   198           2.1598729617          58.7731312548      DE        A2 (4)
   67    29           2.1598729617          58.7731312548      DE        A1 (1)
   68   102           2.2328435012          60.7587605826      PH        B1 (2)
   69   154           2.2328435012          60.7587605826      PH        B2 (3)
   70   155           2.2800080360          62.0421728223      PI        B2 (3)
   71   103           2.2800080360          62.0421728223      PI        B1 (2)
   72    30           2.2887128765          62.2790435752     SG+        A1 (1)
   73   156           2.2901750809          62.3188321799      PH        B2 (3)
   74   104           2.2901750809          62.3188321799      PH        B1 (2)
   75   199           2.3288201818          63.3704188374      DE        A2 (4)
   76    31           2.3288201818          63.3704188374      DE        A1 (1)
   77    32           2.4980426860          67.9751972785     SG+        A1 (1)
   78   105           2.5396101313          69.1063049700      PI        B1 (2)
   79   157           2.5396101313          69.1063049700      PI        B2 (3)
   80    33           2.6704100303          72.6655511710     SG+        A1 (1)
   81   158           2.6823825068          72.9913388180      PI        B2 (3)
   82   106           2.6823825068          72.9913388180      PI        B1 (2)
   83    34           2.8339984458          77.1170182626      DE        A1 (1)
   84   200           2.8339984458          77.1170182626      DE        A2 (4)
   85    35           3.3547279265          91.2867878116     SG+        A1 (1)
   86   107           3.6273149878          98.7042588443      PI        B1 (2)
   87   159           3.6273149878          98.7042588443      PI        B2 (3)
   88   201           3.7021823114         100.7415022918      PI        A2 (4)
   89    36           3.7021823114         100.7415022918      PI        A1 (1)
   90    37           3.8984008504         106.0808801875     SG+        A1 (1)
   91   108           4.0606590440         110.4961501032      PH        B1 (2)
   92   160           4.0606590440         110.4961501032      PH        B2 (3)
   93   161           4.1296408786         112.3732412509      PH        B2 (3)
   94   109           4.1296408786         112.3732412509      PH        B1 (2)
   95   110           4.1780568763         113.6907075279      PI        B1 (2)
   96   162           4.1780568763         113.6907075279      PI        B2 (3)
   97    38           4.2111242807         114.5905173459      DE        A1 (1)
   98   202           4.2111242807         114.5905173459      DE        A2 (4)
   99    39           4.2168582477         114.7465465211     SG+        A1 (1)
  100    40           4.2973353462         116.9364397035      DE        A1 (1)
  101   203           4.2973353462         116.9364397035      DE        A2 (4)
  102    41           4.3826889273         119.2590287250     SG+        A1 (1)
  103   163           4.8076058123         130.8216049953      PI        B2 (3)
  104   111           4.8076058123         130.8216049953      PI        B1 (2)
  105   204           4.9590991145         134.9439473230      DE        A2 (4)
  106    42           4.9590991145         134.9439473230      DE        A1 (1)
  107   112           4.9862793937         135.6835603212      PI        B1 (2)
  108   164           4.9862793937         135.6835603213      PI        B2 (3)
  109    43           5.0881015528         138.4542821320     SG+        A1 (1)
  110    44           5.3533095246         145.6709579316     SG+        A1 (1)
  111   113           5.5635266593         151.3912569836      PI        B1 (2)
  112   165           5.5635266593         151.3912569837      PI        B2 (3)
  113   205           5.8688775564         159.7002773160      PI        A2 (4)
  114    45           5.8688775564         159.7002773160      PI        A1 (1)
  115   114           5.9834809964         162.8187954598      PH        B1 (2)
  116   166           5.9834809964         162.8187954598      PH        B2 (3)
  117    46           6.2060440716         168.8750446287     SG+        A1 (1)
  118   206           6.2205766707         169.2704967553      DE        A2 (4)
  119    47           6.2205766707         169.2704967553      DE        A1 (1)
  120   167           6.2510583147         170.0999444583      PI        B2 (3)
  121   115           6.2510583147         170.0999444583      PI        B1 (2)
  122   168           6.4050197248         174.2894474149      PH        B2 (3)
  123   116           6.4050197248         174.2894474149      PH        B1 (2)
  124    48           6.4599454642         175.7840527695     SG+        A1 (1)
  125    49           6.5353398700         177.8356388508      DE        A1 (1)
  126   207           6.5353398700         177.8356388508      DE        A2 (4)
  127    50           6.7076708758         182.5250039215      DE        A1 (1)
  128   208           6.7076708758         182.5250039216      DE        A2 (4)
  129   117           7.0812211956         192.6898248940      PI        B1 (2)
  130   169           7.0812211956         192.6898248940      PI        B2 (3)
  131    51           7.4003302072         201.3732225544     SG+        A1 (1)
  132   118           7.8688575325         214.1224992369      PI        B1 (2)
  133   170           7.8688575325         214.1224992369      PI        B2 (3)
  134    52           8.2778321326         225.2512638803     SG+        A1 (1)
  135    53           9.9583478586         270.9804216111     SG+        A1 (1)
  136   171          10.0404376241         273.2141976936      PI        B2 (3)
  137   119          10.0404376241         273.2141976937      PI        B1 (2)
  138   209          10.6191785497         288.9625389085      PI        A2 (4)
  139    54          10.6191785497         288.9625389085      PI        A1 (1)
  140   172          10.7855928305         293.4909017058      PH        B2 (3)
  141   120          10.7855928305         293.4909017058      PH        B1 (2)
  142    55          10.8322136498         294.7595186962     SG+        A1 (1)
  143    56          11.0191452034         299.8461848707      DE        A1 (1)
  144   210          11.0191452034         299.8461848707      DE        A2 (4)
  145   173          11.1499032819         303.4042930764      PI        B2 (3)
  146   121          11.1499032819         303.4042930764      PI        B1 (2)
  147    57          11.4715399503         312.1564717770     SG+        A1 (1)
  148   122          11.8633402180         322.8178990765      PH        B1 (2)
  149   174          11.8633402180         322.8178990765      PH        B2 (3)
  150   211          12.1063864804         329.4315241064      DE        A2 (4)
  151    58          12.1063864804         329.4315241067      DE        A1 (1)
  152   175          12.6014846153         342.9038292770      PI        B2 (3)
  153   123          12.6014846153         342.9038292770      PI        B1 (2)
  154   212          12.7798374107         347.7570555710      DE        A2 (4)
  155    59          12.7798374107         347.7570555710      DE        A1 (1)
  156    60          12.9613286873         352.6956842825     SG+        A1 (1)
  157   124          13.2608845067         360.8470125355      PI        B1 (2)
  158   176          13.2608845067         360.8470125355      PI        B2 (3)
  159    61          14.2634003365         388.1268551430     SG+        A1 (1)
  160    62          17.6362607314         479.9070525037     SG+        A1 (1)
  161   125          18.9982886998         516.9697177551      PI        B1 (2)
  162   177          18.9982886998         516.9697177552      PI        B2 (3)
  163    63          20.4531335107         556.5580576910     SG+        A1 (1)
  164   213          26.3700658752         717.5659728124      DE        A2 (4)
  165    64          26.3700658752         717.5659728125      DE        A1 (1)
  166   126          26.7972393583         729.1899542409      PI        B1 (2)
  167   178          26.7972393583         729.1899542409      PI        B2 (3)
  168    65          27.3996979607         745.5836862527     SG+        A1 (1)
  169   179          33.6873851155         916.6803521221      PI        B2 (3)
  170   127          33.6873851156         916.6803521229      PI        B1 (2)
  171    66          34.4793524974         938.2308801906     SG+        A1 (1)
  172    67          36.1791534677         984.4848160976     SG+        A1 (1)
  173   214          47.0854042673        1281.2589880618      DE        A2 (4)
  174    68          47.0854042673        1281.2589880619      DE        A1 (1)
  175   128          47.3160469722        1287.5350951340      PI        B1 (2)
  176   180          47.3160469722        1287.5350951340      PI        B2 (3)
  177    69          47.9548650831        1304.9182196711     SG+        A1 (1)
  178    70          63.9697343215        1740.7049666192     SG+        A1 (1)
  179   129          66.5238024752        1810.2046943786      PI        B1 (2)
  180   181          66.5238024752        1810.2046943786      PI        B2 (3)
  181    71          67.5804622197        1838.9578678095     SG+        A1 (1)
  182   182          98.5861559591        2682.6656877343      PH        B2 (3)
  183   130          98.5861559591        2682.6656877343      PH        B1 (2)
  184   215          98.6003758865        2683.0526316323      DE        A2 (4)
  185    72          98.6003758865        2683.0526316323      DE        A1 (1)
  186   131          98.6284538932        2683.8166730366      PI        B1 (2)
  187   183          98.6284538932        2683.8166730366      PI        B2 (3)
  188    73          98.6505970931        2684.4192201403     SG+        A1 (1)
  189   184         103.2864954328        2810.5684272652      PH        B2 (3)
  190   132         103.2864954328        2810.5684272653      PH        B1 (2)
  191    74         103.3097620074        2811.2015429451      DE        A1 (1)
  192   216         103.3097620074        2811.2015429457      DE        A2 (4)
  193   133         103.3530494073        2812.3794529808      PI        B1 (2)
  194   185         103.3530494073        2812.3794529808      PI        B2 (3)
  195    75         103.3623623416        2812.6328708064     SG+        A1 (1)
  196    76         115.0562650729        3130.8401414701      DE        A1 (1)
  197   217         115.0562650729        3130.8401414702      DE        A2 (4)
  198   186         115.2621713147        3136.4431351601      PI        B2 (3)
  199   134         115.2621713147        3136.4431351601      PI        B1 (2)
  200    77         115.5712984427        3144.8549119613     SG+        A1 (1)
  201   187         116.9528506141        3182.4488577838      PI        B2 (3)
  202   135         116.9528506141        3182.4488577841      PI        B1 (2)
  203    78         117.5951628723        3199.9270629043     SG+        A1 (1)
  204    79         122.3681188098        3329.8057968696     SG+        A1 (1)
  205   218         198.5551989406        5402.9616444353      DE        A2 (4)
  206    80         198.5551989406        5402.9616444353      DE        A1 (1)
  207   136         198.6784657529        5406.3159049262      PI        B1 (2)
  208   188         198.6784657529        5406.3159049262      PI        B2 (3)
  209    81         199.0121379538        5415.3955871136     SG+        A1 (1)
  210    82         216.4910105101        5891.0198896441     SG+        A1 (1)
  211   137         224.9752327008        6121.8873125257      PI        B1 (2)
  212   189         224.9752327008        6121.8873125257      PI        B2 (3)
  213    83         225.8066514163        6144.5113659587     SG+        A1 (1)
  214   138         395.4203609047       10759.9350447446      PI        B1 (2)
  215   190         395.4203609047       10759.9350447450      PI        B2 (3)
  216    84         395.9580513638       10774.5663459765     SG+        A1 (1)
  217    85         508.9781535754       13849.9996791633     SG+        A1 (1)
  218    86         895.3248733059       24363.0283950821     SG+        A1 (1)


  VSCF finished.

 @CHECKOUT-I, Total execution time (CPU/WALL):       48.57/       9.88 seconds.
--executable xvscf finished with status     0 in        9.91 seconds (walltime).
 --invoking executable--
/nfs/workspaces/public/cfour_mpi/bin/xvtran
 @GETMEM-I,  Allocated    3814 MB of main memory.
  Full RHF integral transformation
  Transformation of IIII integrals :
  1 pass through the AO integral file was required.
     4515292 AO integrals were read.
     8745097 MO integrals were written to HF2.
  Transformation of IIJJ integrals :
  1 pass through the AO integral file was required.
    10239823 AO integrals were read.
    14535520 MO integrals were written to HF2.
  Transformation of IJIJ integrals :
  1 pass through the AO integral file was required.
    19440869 AO integrals were read.
    27219181 MO integrals were written to HF2.
  Transformation of IJKL integrals :
  1 pass through the AO integral file was required.
    14394616 AO integrals were read.
    18405289 MO integrals were written to HF2.
  Summary of active molecular orbitals: 
------------------------------------------------------------------------
 
  Index      Eigenvalue    Symmetry    Index      Eigenvalue    Symmetry
------------------------------------------------------------------------
     1       -20.6642507        1       110         4.1296409        2
     2       -11.4459542        1       111         4.1780569        2
     3        -1.3934254        1       112         4.8076058        2
     4        -0.7930135        1       113         4.9862794        2
     5        -0.5651211        1       114         5.5635267        2
     6        -0.5634670        2       115         5.9834810        2
     7        -0.5634670        3       116         6.2510583        2
     8         0.0630518        1       117         6.4050197        2
     9         0.0709959        1       118         7.0812212        2
    10         0.1564293        1       119         7.8688575        2
    11         0.2265717        1       120        10.0404376        2
    12         0.2272705        1       121        10.7855928        2
    13         0.2996229        1       122        11.1499033        2
    14         0.3785902        1       123        11.8633402        2
    15         0.5092161        1       124        12.6014846        2
    16         0.5370092        1       125        13.2608845        2
    17         0.5446131        1       126        18.9982887        2
    18         0.7518257        1       127        26.7972394        2
    19         0.7572248        1       128        33.6873851        2
    20         0.8261082        1       129        47.3160470        2
    21         0.8683253        1       130        66.5238025        2
    22         0.8788918        1       131        98.5861560        2
    23         1.1248771        1       132        98.6284539        2
    24         1.4147282        1       133       103.2864954        2
    25         1.5522026        1       134       103.3530494        2
    26         1.6468942        1       135       115.2621713        2
    27         1.7320787        1       136       116.9528506        2
    28         1.8529346        1       137       198.6784658        2
    29         2.0317973        1       138       224.9752327        2
    30         2.0902731        1       139       395.4203609        2
    31         2.1598730        1       140         0.0450018        3
    32         2.2887129        1       141         0.0969790        3
    33         2.3288202        1       142         0.1698465        3
    34         2.4980427        1       143         0.3025501        3
    35         2.6704100        1       144         0.3972248        3
    36         2.8339984        1       145         0.6253021        3
    37         3.3547279        1       146         0.7430615        3
    38         3.7021823        1       147         0.7999113        3
    39         3.8984009        1       148         0.8960433        3
    40         4.2111243        1       149         1.0400679        3
    41         4.2168582        1       150         1.4328667        3
    42         4.2973353        1       151         1.5677175        3
    43         4.3826889        1       152         1.6697360        3
    44         4.9590991        1       153         2.0643836        3
    45         5.0881016        1       154         2.2328435        3
    46         5.3533095        1       155         2.2800080        3
    47         5.8688776        1       156         2.2901751        3
    48         6.2060441        1       157         2.5396101        3
    49         6.2205767        1       158         2.6823825        3
    50         6.4599455        1       159         3.6273150        3
    51         6.5353399        1       160         4.0606590        3
    52         6.7076709        1       161         4.1296409        3
    53         7.4003302        1       162         4.1780569        3
    54         8.2778321        1       163         4.8076058        3
    55         9.9583479        1       164         4.9862794        3
    56        10.6191785        1       165         5.5635267        3
    57        10.8322136        1       166         5.9834810        3
    58        11.0191452        1       167         6.2510583        3
    59        11.4715400        1       168         6.4050197        3
    60        12.1063865        1       169         7.0812212        3
    61        12.7798374        1       170         7.8688575        3
    62        12.9613287        1       171        10.0404376        3
    63        14.2634003        1       172        10.7855928        3
    64        17.6362607        1       173        11.1499033        3
    65        20.4531335        1       174        11.8633402        3
    66        26.3700659        1       175        12.6014846        3
    67        27.3996980        1       176        13.2608845        3
    68        34.4793525        1       177        18.9982887        3
    69        36.1791535        1       178        26.7972394        3
    70        47.0854043        1       179        33.6873851        3
    71        47.9548651        1       180        47.3160470        3
    72        63.9697343        1       181        66.5238025        3
    73        67.5804622        1       182        98.5861560        3
    74        98.6003759        1       183        98.6284539        3
    75        98.6505971        1       184       103.2864954        3
    76       103.3097620        1       185       103.3530494        3
    77       103.3623623        1       186       115.2621713        3
    78       115.0562651        1       187       116.9528506        3
    79       115.5712984        1       188       198.6784658        3
    80       117.5951629        1       189       224.9752327        3
    81       122.3681188        1       190       395.4203609        3
    82       198.5551989        1       191         0.2265717        4
    83       199.0121380        1       192         0.5446131        4
    84       216.4910105        1       193         0.7572248        4
    85       225.8066514        1       194         0.8788918        4
    86       395.9580514        1       195         1.5522026        4
    87       508.9781536        1       196         1.7320787        4
    88       895.3248733        1       197         2.0902731        4
    89         0.0450018        2       198         2.1598730        4
    90         0.0969790        2       199         2.3288202        4
    91         0.1698465        2       200         2.8339984        4
    92         0.3025501        2       201         3.7021823        4
    93         0.3972248        2       202         4.2111243        4
    94         0.6253021        2       203         4.2973353        4
    95         0.7430615        2       204         4.9590991        4
    96         0.7999113        2       205         5.8688776        4
    97         0.8960433        2       206         6.2205767        4
    98         1.0400679        2       207         6.5353399        4
    99         1.4328667        2       208         6.7076709        4
   100         1.5677175        2       209        10.6191785        4
   101         1.6697360        2       210        11.0191452        4
   102         2.0643836        2       211        12.1063865        4
   103         2.2328435        2       212        12.7798374        4
   104         2.2800080        2       213        26.3700659        4
   105         2.2901751        2       214        47.0854043        4
   106         2.5396101        2       215        98.6003759        4
   107         2.6823825        2       216       103.3097620        4
   108         3.6273150        2       217       115.0562651        4
   109         4.0606590        2       218       198.5551989        4
------------------------------------------------------------------------
  -20.6642507115595       -11.4459542329046       -1.39342543470267     
 -0.793013451945822      -0.565121104630954      -0.563467021617906     
 -0.563467021617901       6.305184890036884E-002  7.099590436576683E-002
  0.156429258301339       0.226571682682937       0.227270533318150     
  0.299622937821725       0.378590189856188       0.509216101798407     
  0.537009150026009       0.544613098443559       0.751825683564930     
  0.757224779052086       0.826108189408096       0.868325254820989     
  0.878891763661267        1.12487712925469        1.41472816638920     
   1.55220258466920        1.64689419800051        1.73207866432827     
   1.85293463238196        2.03179725231490        2.09027309445645     
   2.15987296165347        2.28871287650931        2.32882018182860     
   2.49804268600719        2.67041003034954        2.83399844575995     
   3.35472792653513        3.70218231138510        3.89840085041330     
   4.21112428065187        4.21685824768032        4.29733534618857     
   4.38268892734621        4.95909911449211        5.08810155282259     
   5.35330952455845        5.86887755644303        6.20604407156606     
   6.22057667069168        6.45994546420403        6.53533986996144     
   6.70767087576826        7.40033020718808        8.27783213257467     
   9.95834785860533        10.6191785496822        10.8322136498280     
   11.0191452034246        11.4715399503350        12.1063864804003     
   12.7798374106567        12.9613286872607        14.2634003364561     
   17.6362607313704        20.4531335106975        26.3700658751683     
   27.3996979606968        34.4793524974039        36.1791534677196     
[...]
 Convergence information after    11 iterations: 
 Largest element of residual vector : -0.42070257E-05.
 Largest element of DIIS residual   : -0.19805977E-05.
 Convergence information after    12 iterations: 
 Largest element of residual vector : -0.24017816E-05.
 Largest element of DIIS residual   : -0.12409024E-05.
 Convergence information after    13 iterations: 
 Largest element of residual vector : -0.96244182E-06.
 Largest element of DIIS residual   : -0.36400322E-06.
 Convergence information after    14 iterations: 
 Largest element of residual vector : -0.47604861E-06.
 Largest element of DIIS residual   : -0.22921202E-06.
 Convergence information after    15 iterations: 
 Largest element of residual vector : -0.15441151E-06.
 Largest element of DIIS residual   : -0.93806703E-07.
 Perturbed amplitude equations converged in    15 iterations.
  Dominant contributions to perturbed wavefunction:
    7    7  140   28  -0.2322850423 ABAB
    7    7   28  140  -0.2322850423 ABAB
    7    7  140   39  -0.1972713564 ABAB
    7    7   39  140  -0.1972713564 ABAB
    7    7  141   28  -0.1780119459 ABAB
    7    7   28  141  -0.1780119459 ABAB
    7    7  140   54  -0.1566266328 ABAB
    7    7   54  140  -0.1566266328 ABAB
    7    7  141   39  -0.1564718310 ABAB
    7    7   39  141  -0.1564718310 ABAB
    7    6   28   89  -0.1495161501 ABAB
    6    7   89   28  -0.1495161501 ABAB
    7    7  140   20  -0.1415307617 ABAB
    7    7   20  140  -0.1415307617 ABAB
    7    7  140   45   0.1307285827 ABAB
    7    7   45  140   0.1307285827 ABAB
    7    6   39   89  -0.1273509651 ABAB
    6    7   89   39  -0.1273509651 ABAB
    7    7  141   54  -0.1251922869 ABAB
    7    7   54  141  -0.1251922869 ABAB
  norm of converged amps    2.00645878110308     
 Starting iterative solution of the perturbed Lambda equations.
 The DIIS procedure is used to accelerate convergence.
 Convergence criterion is 10**(-7).
 Maximum number of iterations is 100.
 Convergence information after     1 iterations: 
 Largest element of residual vector :  0.62817232E-01.
 Largest element of DIIS residual   :  0.62817232E-01.
 Convergence information after     2 iterations: 
 Largest element of residual vector : -0.12213403E-01.
 Largest element of DIIS residual   :  0.77530648E-02.
 Convergence information after     3 iterations: 
 Largest element of residual vector :  0.48592333E-02.
 Largest element of DIIS residual   :  0.43597271E-02.
 Convergence information after     4 iterations: 
 Largest element of residual vector :  0.31203920E-02.
 Largest element of DIIS residual   :  0.26992589E-02.
 Convergence information after     5 iterations: 
 Largest element of residual vector :  0.21591857E-02.
 Largest element of DIIS residual   :  0.12109435E-02.
 Convergence information after     6 iterations: 
 Largest element of residual vector :  0.84214445E-03.
 Largest element of DIIS residual   :  0.32633934E-03.
 Convergence information after     7 iterations: 
 Largest element of residual vector :  0.30114591E-03.
 Largest element of DIIS residual   :  0.13848291E-03.
 Convergence information after     8 iterations: 
 Largest element of residual vector :  0.88632775E-04.
 Largest element of DIIS residual   :  0.56217467E-04.
 Convergence information after     9 iterations: 
 Largest element of residual vector :  0.34514347E-04.
 Largest element of DIIS residual   : -0.94205811E-05.
 Convergence information after    10 iterations: 
 Largest element of residual vector : -0.67639122E-05.
 Largest element of DIIS residual   : -0.53521325E-05.
 Convergence information after    11 iterations: 
 Largest element of residual vector : -0.30796967E-05.
 Largest element of DIIS residual   : -0.17253778E-05.
 Convergence information after    12 iterations: 
 Largest element of residual vector : -0.18223743E-05.
 Largest element of DIIS residual   : -0.13654001E-05.
 Convergence information after    13 iterations: 
 Largest element of residual vector : -0.10101563E-05.
 Largest element of DIIS residual   : -0.68548891E-06.
 Convergence information after    14 iterations: 
 Largest element of residual vector : -0.67299152E-06.
 Largest element of DIIS residual   : -0.44179699E-06.
 Convergence information after    15 iterations: 
 Largest element of residual vector : -0.30428008E-06.
 Largest element of DIIS residual   : -0.18398396E-06.
 Convergence information after    16 iterations: 
 Largest element of residual vector : -0.16402269E-06.
 Largest element of DIIS residual   : -0.64068402E-07.
 Perturbed Lambda equations converged in    16 iterations.
  Dominant contributions to perturbed wavefunction:
    7    7  140   28  -0.2127225001 ABAB
    7    7   28  140  -0.2127225001 ABAB
    7    7  140   39  -0.1787409619 ABAB
    7    7   39  140  -0.1787409619 ABAB
    7    7  141   28  -0.1616994092 ABAB
    7    7   28  141  -0.1616994092 ABAB
    7    7  140   54  -0.1449186634 ABAB
    7    7   54  140  -0.1449186634 ABAB
    7    7  141   39  -0.1406527245 ABAB
    7    7   39  141  -0.1406527245 ABAB
    7    6   28   89  -0.1345213558 ABAB
    6    7   89   28  -0.1345213558 ABAB
    7    7  140   20  -0.1271356206 ABAB
    7    7   20  140  -0.1271356206 ABAB
    7    7  140   45   0.1175603586 ABAB
    7    7   45  140   0.1175603586 ABAB
    7    7  141   54  -0.1150511245 ABAB
    7    7   54  141  -0.1150511245 ABAB
    7    6   39   89  -0.1133783881 ABAB
    6    7   89   39  -0.1133783881 ABAB
        The DBOC first-order density matrix is being calculated 
             (Symmetry block 3, perturbation   2)
 term   4.54269470961065     
 final tnorm  0.857743636892579     
  norm contr. I: |<0|L dT/dx|0>|^2   0.000000000000000E+000
  norm contr. II: <0|[nabla(1+L)e-T][nabla e^T]|0>   4.54269470961065     
  total norm contribution   4.54269470961065     
 oo  8.453943377473698E-003
 vv  -34.0587476494946     
 vo  6.826235875881888E-002
  Correlated perturbed 1-el contribution to DBOC  -33.9820313473583       cm**-1
  SUM_I |dc_I/dx|^2 contribution to DBOC   17.1019264168199       cm**-1
 
 
  The total diagonal Born-Oppenheimer correction (DBOC) is:      0.0041389199 a.u.
  The total diagonal Born-Oppenheimer correction (DBOC) is:        908.387911 cm-1
 
 Total CC energy including DBOC  -113.215508047760     
 First-order density matrix is being calculated  (Symmetry block 3, perturbation   2)
 Calculation of the contributions of <pq||rs> to dI(i,j)/dx required   2.2 seconds.
 Calculation of the contributions of <pq||rs> to dI(a,b)/dx required  17.5 seconds.
 Calculation of the contributions of <pq||rs> to dI(i,a)/dx required   9.6 seconds.
 First-order Z-vector equations are solved for 1 perturbation.
 Convergence reached after  19 iterations.
        U*G(pq,rs) contribution is being calculated
             (Symmetry block 3, perturbation   2)

 CCSD contribution to force constants 

        0.0000000000        0.0000000000        0.0000000000
        0.0000000000        0.0000000000        0.0000000000
        0.0000000000        0.0000000000        0.0000000000
        0.0000000000        0.0000000000        0.0000000000
        0.0000000000        0.0000000000        0.0000000000
        0.0000000000        0.0000000000        0.0000000000
        0.0000000000        0.0000000000        0.0000000000
        0.0000000000        0.0000000000        0.0000000000
        0.0000000000        0.0000000000        0.0000000000
        0.0000000000        0.0000000000        0.0000000000
        0.0000000000        0.0000000000        0.0000000000
        0.0000000000        1.1730119719       -1.1730119719

 CCSD contribution to dipole derivatives 

        0.0000000000        0.0000000000        0.0000000000
        0.0000000000        0.0000000000        0.0000000000
        0.0000000000        0.0000000000        0.0000000000
        0.0000000000        0.0000000000       -0.0525124325
        0.0000000000        0.0000000000        0.0000000000
        0.0000000000        0.0000000000        0.0000000000
 @CHECKOUT-I, Total execution time (CPU/WALL):     1065.43/     266.04 seconds.
--executable xsdcc finished with status     0 in      266.08 seconds (walltime).
 --invoking executable--
/nfs/workspaces/public/cfour_mpi/bin/xanti
 @GETMEM-I,  Allocated    3814 MB of main memory.
 CCSD MO derivative gammas will be sorted to Mulliken order.
 @CHECKOUT-I, Total execution time (CPU/WALL):        9.83/      24.82 seconds.
--executable xanti finished with status     0 in       24.84 seconds (walltime).
 --invoking executable--
/nfs/workspaces/public/cfour_mpi/bin/xbcktrn
 @GETMEM-I,  Allocated    3814 MB of main memory.
 CCSD MO derivative gammas will be transformed to the AO basis.
 @CHECKOUT-I, Total execution time (CPU/WALL):       25.20/       3.99 seconds.
--executable xbcktrn finished with status     0 in        4.01 seconds (walltime).
 --invoking executable--
/nfs/workspaces/public/cfour_mpi/bin/xvdint
 @GETMEM-I,  Allocated    3814 MB of main memory.
 One- and two-electron integral derivatives are calculated
 for RHF-CC/MBPT hessians and dipole derivatives.
 Spherical gaussians are used.
  magnet F F
                    8722  records have been written to the Sort file.
  Total length of Sort file :             178609116  words.
 Evaluation of 2el integral derivatives

                      Two-electron integral gradient
                      ------------------------------

                         C #1 z     0.0000000000
                         O #2 z     0.0000000000


 C #1       0.0000000000           -0.1447387766            0.0000000000
 O #2       0.0000000000            0.1447387766            0.0000000000


 Evaluation of 2e integral derivatives required  324.44 seconds.
  contribution to Hessian
        0.0000000000        0.0000000000        0.0000000000
        0.0000000000       -0.1447387766        0.1447387766
 @CHECKOUT-I, Total execution time (CPU/WALL):      324.43/      65.66 seconds.
--executable xvdint finished with status     0 in       65.68 seconds (walltime).
 --invoking executable--
/nfs/workspaces/public/cfour_mpi/bin/xanti
 @GETMEM-I,  Allocated    3814 MB of main memory.
 CCSD MO gammas will be sorted to Mulliken order.
 @CHECKOUT-I, Total execution time (CPU/WALL):       10.62/       9.24 seconds.
--executable xanti finished with status     0 in        9.25 seconds (walltime).
 --invoking executable--
/nfs/workspaces/public/cfour_mpi/bin/xbcktrn
 @GETMEM-I,  Allocated    3814 MB of main memory.
 CCSD MO gammas will be transformed to the AO basis.
 @CHECKOUT-I, Total execution time (CPU/WALL):       27.56/       6.67 seconds.
--executable xbcktrn finished with status     0 in        6.69 seconds (walltime).
 --invoking executable--
/nfs/workspaces/public/cfour_mpi/bin/xvdint
 @GETMEM-I,  Allocated    3814 MB of main memory.
 One- and two-electron integral derivatives are calculated
 for RHF-CC/MBPT hessians and dipole derivatives.
 Spherical gaussians are used.
  magnet F F

                     Kinetic energy integral gradient
                     --------------------------------

                         C #1 z    -0.9529831138
                         O #2 z     0.9529831138


 C #1       0.0000000000            0.0000000000           -0.9529831138
 O #2       0.0000000000            0.0000000000            0.9529831138



                   Nuclear attraction integral gradient
                   ------------------------------------

                         C #1 z    18.5101028582
                         O #2 z   -18.5101028582


 C #1       0.0000000000            0.0000000000           18.5101028582
 O #2       0.0000000000            0.0000000000          -18.5101028582



                      Reorthonormalization gradient
                      -----------------------------

                         C #1 z     0.0000000000
                         O #2 z     0.0000000000


 C #1       0.0000000000            0.0000000000            0.0000000000
 O #2       0.0000000000            0.0000000000            0.0000000000



                     Kinetic energy integral Hessian
                     -------------------------------


           Symmetry 1

           C #1 z      O #2 z

 C #1 z    0.917322
 O #2 z   -0.917322    0.917322


           Symmetry 2

           C #1 x      O #2 x

 C #1 x   -0.960610
 O #2 x    0.960610   -0.960610


           Symmetry 3

           C #1 y      O #2 y

 C #1 y   -0.960610
 O #2 y    0.960610   -0.960610




           C #1 x      C #1 y      C #1 z      O #2 x      O #2 y      O #2 z

 C #1 x   -0.960610
 C #1 y    0.000000   -0.960610
 C #1 z    0.000000    0.000000    0.917322

 O #2 x    0.960610    0.000000    0.000000   -0.960610
 O #2 y    0.000000    0.960610    0.000000    0.000000   -0.960610
 O #2 z    0.000000    0.000000   -0.917322    0.000000    0.000000    0.917322




                   Nuclear attraction integral Hessian
                   -----------------------------------


           Symmetry 1

           C #1 z      O #2 z

 C #1 z  -11.406513
 O #2 z   11.406513  -11.406513


           Symmetry 2

           C #1 x      O #2 x

 C #1 x   12.869709
 O #2 x  -12.869709   12.869709


           Symmetry 3

           C #1 y      O #2 y

 C #1 y   12.869709
 O #2 y  -12.869709   12.869709




           C #1 x      C #1 y      C #1 z      O #2 x      O #2 y      O #2 z

 C #1 x   12.869709
 C #1 y    0.000000   12.869709
 C #1 z    0.000000    0.000000  -11.406513

 O #2 x  -12.869709    0.000000    0.000000   12.869709
 O #2 y    0.000000  -12.869709    0.000000    0.000000   12.869709
 O #2 z    0.000000    0.000000   11.406513    0.000000    0.000000  -11.406513




                Highest order reorthonormalization Hessian
                ------------------------------------------


           Symmetry 1

           C #1 z      O #2 z

 C #1 z    0.000000
 O #2 z    0.000000    0.000000


           Symmetry 2

           C #1 x      O #2 x

 C #1 x    0.000000
 O #2 x    0.000000    0.000000


           Symmetry 3

           C #1 y      O #2 y

 C #1 y    0.000000
 O #2 y    0.000000    0.000000




           C #1 x      C #1 y      C #1 z      O #2 x      O #2 y      O #2 z




                Electronic contributions to dipole moment
                -----------------------------------------

                               au             Debye

                    z      0.21312490      0.54170955

  Conversion factor used: 1 a.u. =   2.54174691 Debye 



   Electronic contributions to static part of dipole moment derivatives
   --------------------------------------------------------------------


                     Total dipole moment derivatives
                     -------------------------------


           Symmetry 1
                              Ez

               C #1 z    -5.65732901
               O #2 z    -8.34267099

           Symmetry 2
                              Ex

               C #1 x    -5.69477319
               O #2 x    -8.30522681

           Symmetry 3
                              Ey

               C #1 y    -5.69477319
               O #2 y    -8.30522681



                       Ex          Ey          Ez

      C #1    x   -5.694773    0.000000    0.000000
      C #1    y    0.000000   -5.694773    0.000000
      C #1    z    0.000000    0.000000   -5.657329

      O #2    x   -8.305227    0.000000    0.000000
      O #2    y    0.000000   -8.305227    0.000000
      O #2    z    0.000000    0.000000   -8.342671

 Evaluation of 1e integral derivatives required    1.75 seconds.
                    8815  records have been written to the Sort file.
  Total length of Sort file :             180513570  words.
 Evaluation of 2el integral derivatives

                      Two-electron integral gradient
                      ------------------------------

                         C #1 z    -9.3339521246
                         O #2 z     9.3339521246


 C #1       0.0000000000            0.0000000000           -9.3339521246
 O #2       0.0000000000            0.0000000000            9.3339521246


 Evaluation of 2e integral derivatives required  700.71 seconds.

                            Molecular gradient
                            ------------------

                         C #1 z     0.6754197021
                         O #2 z    -0.6754197021


 C #1       0.0000000000            0.0000000000            0.6754197021
 O #2       0.0000000000            0.0000000000           -0.6754197021


  Molecular gradient norm 0.955E+00

                            Molecular hessian
                            -----------------


           Symmetry 1

           C #1 z      O #2 z

 C #1 z   37.326618
 O #2 z  -37.326618   37.326618


           Symmetry 2

           C #1 x      O #2 x

 C #1 x   -0.739150
 O #2 x    0.739150   -0.739150


           Symmetry 3

           C #1 y      O #2 y

 C #1 y   -0.739150
 O #2 y    0.739150   -0.739150




           C #1 x      C #1 y      C #1 z      O #2 x      O #2 y      O #2 z

 C #1 x   -0.739150
 C #1 y    0.000000   -0.739150
 C #1 z    0.000000    0.000000   37.326618

 O #2 x    0.739150    0.000000    0.000000   -0.739150
 O #2 y    0.000000    0.739150    0.000000    0.000000   -0.739150
 O #2 z    0.000000    0.000000  -37.326618    0.000000    0.000000   37.326618




                           Total dipole moment
                           -------------------

                               au             Debye

                    z      0.21037633      0.53472338

  Conversion factor used: 1 a.u. =   2.54174691 Debye 



                     Total dipole moment derivatives
                     -------------------------------


           Symmetry 1
                              Ez

               C #1 z     0.69436556
               O #2 z    -0.69436556

           Symmetry 2
                              Ex

               C #1 x     0.08328770
               O #2 x    -0.08328770

           Symmetry 3
                              Ey

               C #1 y     0.08328770
               O #2 y    -0.08328770



                       Ex          Ey          Ez

      C #1    x    0.083288    0.000000    0.000000
      C #1    y    0.000000    0.083288    0.000000
      C #1    z    0.000000    0.000000    0.694366

      O #2    x   -0.083288    0.000000    0.000000
      O #2    y    0.000000   -0.083288    0.000000
      O #2    z    0.000000    0.000000   -0.694366

 @CHECKOUT-I, Total execution time (CPU/WALL):      702.45/     116.58 seconds.
--executable xvdint finished with status     0 in      116.60 seconds (walltime).
 --invoking executable--
/nfs/workspaces/public/cfour_mpi/bin/xjoda
  @GTFLGS-I, Hessian will be transformed to curvilinear coordinates.
  @GTFLGS-I, Hessian will be transformed to curvilinear coordinates.
  igrd and ihes are                      0                     1
  gradient from JOBARC 
   0.000000000000000   0.000000000000000   0.675419702107297
   0.000000000000000   0.000000000000000  -0.675419702107297
 
  @PROJFCM-I, Projecting force constant matrix onto totally symmetric subspace.
  Largest difference between matrix elements of symmetrized
  and unsymmetrized FCM :    -0.6102562899E-11.
  read isotopes from ZMAT file 
 
  Summary of diagonal Born-Oppenheimer correction at the correlated level
  The total diagonal Born-Oppenheimer correction (DBOC) is:      0.0041389199 a.u.
  The total diagonal Born-Oppenheimer correction (DBOC) is:        908.387911 cm-1
  The total diagonal Born-Oppenheimer correction (DBOC) is:            10.867 kJ/mole
  hellooooooo 
  readis is  F
 
 @CHECKOUT-I, Total execution time (CPU/WALL):        0.01/       0.04 seconds.
--executable xjoda finished with status     0 in        0.06 seconds (walltime).
  The final electronic energy is      -113.215508047760252 a.u. 
  This computation required                         2638.00 seconds (walltime).
