 --invoking executable--
/nfs/workspaces/public/cfour_mpi/bin/xjoda


   *************************************************************************
         <<<     CCCCCC     CCCCCC   |||     CCCCCC     CCCCCC   >>>
       <<<      CCC        CCC       |||    CCC        CCC         >>>
      <<<      CCC        CCC        |||   CCC        CCC            >>>
    <<<        CCC        CCC        |||   CCC        CCC              >>>
      <<<      CCC        CCC        |||   CCC        CCC            >>>
       <<<      CCC        CCC       |||    CCC        CCC         >>>
         <<<     CCCCCC     CCCCCC   |||     CCCCCC     CCCCCC   >>>
   *************************************************************************

     ****************************************************************
     * CFOUR Coupled-Cluster techniques for Computational Chemistry *
     ****************************************************************
 

   Department of Chemistry                Institut fuer Physikalische Chemie
   University of Florida                  Universitaet Mainz
   Gainesville, FL 32611, USA             D-55099 Mainz, Germany

   Department of Chemistry                Fakultaet fuer Chemie und Biowiss.
   Johns Hopkins University               Karlsruher Institut fuer Technologie
   Baltimore, MD 21218, USA               D-76131 Karlsruhe, Germany

   Department of Chemistry                Department of Physical Chemistry
   Southern Methodist University          Eotvos Lorand University
   Dallas, TX 75275, USA                  H-1053 Budapest, Hungary

 
                       Version 2.1
 
                     vincent.theory.phys.ucl.ac.uk                     
                     Mon 24 Feb 22:46:55 GMT 2025                      
                     integer*8 version is running
 
********************************************************************************
*                          Input from ZMAT file                                *
********************************************************************************
Carbon Monoxide DBOC calculation                                                
C                                                                               
O 1 r                                                                           
                                                                                
r=1.1172413793103448                                                            
                                                                                
                                                                                
*CFOUR(CALC=CCSD,BASIS=AUG-PCVQZ,SCF_CONV=10                                    
CC_CONV=14,DBOC=ON,MEMORY=500000000                                             
ZFIELD=-200)                                                                    
                                                                                
%isotopes                                                                       
12                                                                              
16                                                                              
********************************************************************************
  @GTFLGS-I, Hessian will be transformed to curvilinear coordinates.
    -------------------------------------------------------------------
                    CFOUR Control Parameters 
    -------------------------------------------------------------------
        External           Internal           Value            Units
          Name               Name
    -------------------------------------------------------------------
       ABCDTYPE             IABCDT         STANDARD    [  0]    ***   
       ANHARMONIC           IANHAR         OFF         [  0]    ***   
       ANH_ALGORIT          IANALG         STANDARD    [  0]    ***   
       ANH_DERIVAT          IANDER         SECOND      [  1]    ***   
       ANH_MODE             ANHMOD         VIBRATION   [  0]    ***   
       ANH_STEPSIZ          ICUBST             50000          x 10-6  
       ANH_SYMMETR          IANHSM         ABELIAN     [  0]    ***   
       AO_LADDERS           IAOLAD         SINGLEPASS  [  1]    ***   
       AV_SCF               IAVSCF         OFF         [  0]    ***   
       BASIS                IBASIS         AUG-PCVQZ   [ 52]    ***   
       BOTHVECTORS          BOTHVC         OFF         [  0]    ***   
       BOX_POTENT           IPIAB          OFF         [  0]    ***   
       BREIT                IBREIT         OFF         [  0]    ***   
       BRUCK_CONV           IBRTOL          10D-  4             ***   
       BRUECKNER            IBRKNR         OFF         [  0]    ***   
       BUFFERSIZE           IBUFFS              4096            ***   
       CACHE_RECS           ICHREC             10               ***   
       CALCLEVEL            ICLLVL         CCSD        [ 10]    ***   
       CCORBOPT             ICCORB         OFF         [  0]  x 0.01  
       CC_CONV              ICCCNV          10D- 14             ***   
       CC_EXPORDER          ICCEOR              5               ***   
       CC_EXTRAPOL          ICCEXT         DIIS        [  1]    ***   
       CC_GUESS             ICCGES         MP2         [  0]    ***   
       CC_MAXCYC            ICCCYC            100              cycles 
       CC_PROGRAM           ICCPRO         VCC         [  0]    ***   
       CHARGE               ICHRGE              0               ***   
       CHOLESKY             ICHOLE         OFF         [  0]    ***   
       CIS_CONV             ICISTL              5               ***   
       COMM_SIZE            IPSIZE            ***               ***   
       CONSTANT             ICONST         OLD         [  1]    ***   
       CONTINUUM            ICONTU         NONE        [  0]    ***   
       CONTRACTION          ICNTYP         GENERAL     [  1]    ***   
       COORDINATES          ICOORD         INTERNAL    [  0]    ***   
       CPHF_CONVER          ICPHFT          10D- 16             ***   
       CPHF_MAXCYC          ICPHFC             64              cycles 
       CUBIC                ICUBIC         OFF         [  0]    ***   
       CURVILINEAR          ICURVY         ON          [  1]    ***   
       DBOC                 IDBOC          ON          [  1]    ***   
       DCT                  IDCT           OFF         [  0]    ***   
       DERIV_LEV            IDRLVL         SECOND      [  2]    ***   
       DEVMEM_SIZE          IDVMEM          50000000           MByte  
       DIAG_MRCC            IEOMST          10D-  0             ***   
       DIFF_TYPE            IDIFTY         RELAXED     [  0]    ***   
       DIRECT               IDIRCT         OFF         [  0]    ***   
       DROPMO               IDRPMO      NONE         
       ECP                  IECP           OFF         [  0]    ***   
       EIGENVECTOR          IVEC                1               ***   
       EL_ANHARM            IELANH         OFF         [  0]    ***   
       EOMFOLLOW            IEOMSR         ENERGY      [  0]    ***   
       EOMIP                IEOMIP         OFF         [  0]    ***   
       EOMLEVEL             HBARFM         SAME        [  0]    ***   
       EOM_MRCC             IMRCCE         NEW         [  1]    ***   
       EOM_NONIT            EOMNON         OFF         [  0]    ***   
       EOM_NSING            IEOMSI          10D-  0             ***   
       EOM_NSTATES          IMRCCD         DAVIDSON    [  0]    ***   
       EOM_NTRIP            IEOMTR          10D-  0             ***   
       EOM_ORDER            IEXORD         ENERGY      [  0]    ***   
       EOM_PROPSTA          IEOMST              0               ***   
       ESTATE_CONV          IEXTOL          10D-  5             ***   
       ESTATE_DIAG          IEXDIG         ITERATIVE   [  0]    ***   
       ESTATE_LOCK          IESLOC         ON          [  1]    ***   
       ESTATE_MAXC          IEXMXC             40               ***   
       ESTATE_PROP          IEXPRP         OFF         [  0]    ***   
       EVAL_HESS            IRECAL              0            # of cyc.
       EXCITATION           IEXCIT              0               ***   
       EXCITE               IEXCIT         NONE        [  0]    ***   
       EXTERN_POT           IEXPOT         OFF         [  0]    ***   
       FCGRADNEW            IFCGNW         OFF         [  0]    ***   
       FC_FIELD             IFINFC              0             x 10-6  
       FD_CALTYPE           IFDCAL         GRADONLY    [  0]    ***   
       FD_PROJECT           IFDPRJ         OFF         [  1]    ***   
       FD_STEPSIZE          IDISFD              0            10-4 bohr
       FD_USEGROUP          IFDGRP         FULL        [  0]    ***   
       FILE_RECSIZ          IFLREC              4096           words  
       FINITE_PERT          IFIPER              0             x 10-6  
       FIXGEOM              IFIXGM         OFF         [  0]    ***   
       FOCK                 IFOCK          AO          [  1]    ***   
       FREQ_ALGORI          IVIALG         STANDARD    [  0]    ***   
       FROZEN_CORE          IFROCO         OFF         [  0]    ***   
       GAMMA_ABCD           IGABCD         STORE       [  0]    ***   
       GAMMA_ABCI           IGABCI         STORE       [  0]    ***   
       GENBAS_1             IGNBS1              0               ***   
       GENBAS_2             IGNBS2              0               ***   
       GENBAS_3             IGNBS3              0               ***   
       GENBAS_4             IGNBS4              0               ***   
       GEO_CONV             ICONTL              5              H/bohr 
       GEO_MAXCYC           IOPTCY             50               ***   
       GEO_MAXSTEP          IMXSTP            300            millibohr
       GEO_METHOD           INR            SINGLE_POINT[  5]    ***   
       GIAO                 IGIAO          OFF         [  1]    ***   
       GIMIC                IGIMIC         OFF         [  0]    ***   
       GRID                 IGRID          OFF         [  0]    ***   
       GRID_ALGO            IGALGO         SERIAL      [  0]    ***   
       GUESS                IGUESS         MOREAD      [  0]    ***   
       HBAR                 IHBAR          OFF         [  0]    ***   
       HESS_TYPE            IHESTP         SCF         [  0]    ***   
       HF2_FILE             IHF2Fl         USE         [  1]    ***   
       HFSTABILITY          ISTABL         OFF         [  0]    ***   
       INCORE               INCORE         OFF         [  0]    ***   
       INPUT_MRCC           IMRCC          ON          [  1]    ***   
       INTEGRALS            INTTYP         VMOL        [  1]    ***   
       JODA_PRINT           IJPRNT              0               ***   
       KEYWORD_OUT          IDMPKW         NO          [  0]    ***   
       LINDEP_TOL           ILINDP              8               ***   
       LINEQ_CONV           IZTACN          10D-  7           cycles  
       LINEQ_EXPOR          ILMAXD              5               ***   
       LINEQ_MAXCY          ILMAXC            100               ***   
       LINEQ_TYPE           ILTYPE         DIIS        [  1]    ***   
       LOCK_ORBOCC          ILOCOC         OFF         [  0]    ***   
       MEMORY_SIZE          IMEMSZ         500000000           words  
       MEM_UNIT             IMEMU          INTEGERWORDS[  0]    ***   
       MRCC                 IMRCCC         OFF         [  0]    ***   
       MULTIPLICTY          IMULTP              1               ***   
       NACOUPLING           IVCOUP         OFF         [  0]    ***   
       NEGEVAL              IDIE           ABORT       [  0]    ***   
       NEWNORM              INEWNO         OFF         [  0]    ***   
       NON-HF               INONHF         OFF         [  0]    ***   
       NTOP_TAMP            ITOPT2             15               ***   
       NUC_MODEL            INUCMO         POINT       [  0]    ***   
       OCCUPATION           IOCCU   ESTIMATED BY SCF 
       OPEN-SHELL           IOPEN          SPIN-ORBITAL[  0]    ***   
       OPTVIB               IOPTVB         OFF         [  0]    ***   
       ORBITALS             IORBTP         STANDARD    [  0]    ***   
       PARALLEL             IPARAL         ON          [  1]    ***   
       PARA_INT             IPINTS         ON          [  1]    ***   
       PARA_PRINT           IPPRIN              0               ***   
       PERT_ORB             IPTORB         STANDARD    [  0]    ***   
       POINTS               IGRDFD              0               ***   
       PRINT                IPRNT               0               ***   
       PROPS                IPROPS         OFF         [  0]    ***   
       PROP_INTEGR          IINTYP         INTERNAL    [  0]    ***   
       PSI                  IPSI           OFF         [  0]    ***   
       QC_ALG               IQCALG         FLM         [  0]    ***   
       QC_LINALG            IQCLIN         TRIDIAG     [  2]    ***   
       QC_MAXCYC            IQCMAX          10D-100           cycles  
       QC_MAXSCFCY          IQCMSC          10D- 15           cycles  
       QC_RTRUST            IQCRTR          10D-  0           x 10-3  
       QC_SKIPSCF           IQCSKI         OFF         [  0]    ***   
       QC_START             IQCSTA          10D-  1             ***   
       QRHFGUESS            IQGUES         OFF         [  0]    ***   
       QUARTIC              IQUART         OFF         [  0]    ***   
       RAMAN_INT            IRAMIN         OFF         [  0]    ***   
       RAMAN_ORB            IRAMRE         UNRELAXED   [  0]    ***   
       RDO                  IRDOFM         ON          [  1]    ***   
       REDUCE_REPR          REDREP         Ir          [  0]    ***   
       REFERENCE            IREFNC         RHF         [  0]    ***   
       RELATIVIST           IRELAT         OFF         [  0]    ***   
       RELAX_DENS           IRDENS         ON          [  1]    ***   
       RESET_FLAGS          IRESET         OFF         [  0]    ***   
       RESTART_CC           ICCRES         OFF         [  0]    ***   
       ROT_EVEC             ROTVEC              0               ***   
       SAVE_INTS            ISVINT         OFF         [  0]    ***   
       SCALE_ON             ISTCRT              0               ***   
       SCF_CONV             ISCFCV          10D- 10             ***   
       SCF_DAMPING          IDAMP               0             x 10-3  
       SCF_EXPORDE          IRPPOR              6               ***   
       SCF_EXPSTAR          IRPPLS              8               ***   
       SCF_EXTRAPO          IRPP           ON          [  1]    ***   
       SCF_MAXCYC           ISCFCY            150              cycles 
       SCF_NOSTOP           ISCFST         OFF         [  0]    ***   
       SCF_PRINT            ISCFPR              0               ***   
       SCF_PROG             ISCFPR         SCF         [  0]    ***   
       SD_FIELD             IFINSD              0             x 10-6  
       SOPERT               IPERSO         OFF         [  0]    ***   
       SPHERICAL            IDFGHI         ON          [  1]    ***   
       SPINORBIT            ISOCAL         OFF         [  0]    ***   
       SPINROTATIO          ISRCON         OFF         [  0]    ***   
       SPIN_FLIP            ISPFLP         OFF         [  0]    ***   
       SPIN_ORBIT           ISPORB         OFF         [  0]    ***   
       SPIN_SCAL            ISCSMP         OFF         [  0]    ***   
       STEEPSCALE           ISTPSC              1000          x 10-3  
       SUBGROUP             ISUBGP         DEFAULT     [  0]    ***   
       SUBGRPAXIS           ISBXYZ         X           [  0]    ***   
       SYMMETRY             ISYM           ON          [  0]    ***   
       SYM_CHECK            ISYMCK         OVERRIDE    [  1]    ***   
       T3_EXTRAPOL          IT3EXT         OFF         [  0]    ***   
       T4_EXTRAPOL          IT4EXP         OFF         [  0]    ***   
       TAMP_SUM             IEVERY              5               ***   
       TESTSUITE            ITESTS         OFF         [  0]    ***   
       THERMOCH             ITHERM         OFF         [  0]    ***   
       TOL_CHOLESK          ITOLCH          10D-  4             ***   
       TRANGRAD             IRESRM         OFF         [  0]    ***   
       TRANS_INV            ITRAIN         IGNORE      [  1]    ***   
       TREAT_PERT           ITREAT         SIMULTANEOUS[  0]    ***   
       TRIP_ALGORI          ITRALG         NORMAL      [  0]    ***   
       UIJ_THRESHO          IUIJTH              1               ***   
       UNITS                IUNITS         ANGSTROM    [  0]    ***   
       UNOS                 IUNOS          OFF         [  0]    ***   
       UPDATE_HESS          IHUPDT         ON          [  1]    ***   
       VIBPHASE             ISETPH         STANDARD    [  0]    ***   
       VIBRATION            IVIB           ANALYTIC    [  1]    ***   
       VIB_ALGORIT          IGEALG         STANDARD    [  0]    ***   
       VNATORB              IVNORB         OFF         [  0]    ***   
       VTRAN                IVTRAN         FULL/PARTIAL[  0]    ***   
       XFIELD               IXEFLD              0             x 10-6  
       XFORM_TOL            IXFTOL          10D- 11             ***   
       YFIELD               IYEFLD              0             x 10-6  
       ZFIELD               IZEFLD            ***             x 10-6  
       ZSCALE_EXP           IZEXPS         OFF         [  0]    ***   
    -------------------------------------------------------------------
   2 entries found in Z-matrix 
   Job Title : Carbon Monoxide DBOC calculation                                                
   There are  1 unique internal coordinates.
   Of these,  0 will be optimized.
   User supplied Z-matrix: 
--------------------------------------------------------------------------------
       SYMBOL    BOND      LENGTH    ANGLE     ANGLE     DIHED     ANGLE
                  TO      (ANGST)    WRT      (DEG)      WRT      (DEG)
--------------------------------------------------------------------------------
        C    
        O          1         r    
                  *Initial values for internal coordinates* 
                      Name             Value
                        r               1.1172413793
--------------------------------------------------------------------------------
  read isotopes from ZMAT file 
   Rotational constants (in cm-1): 
          1.9697835466             1.9697835466
   Rotational constants (in MHz): 
      59052.6333883893         59052.6333883893
********************************************************************************
   The full molecular point group is CXv .
   The largest Abelian subgroup of the full molecular point group is C2v .
   The computational point group is C2v .
********************************************************************************
--------------------------------------------------------------------------------
   Analysis of internal coordinates specified by Z-matrix 
--------------------------------------------------------------------------------
   *The nuclear repulsion energy is   22.735016148148148 a.u.
   *There is   1 degree of freedom within the tot. symm. molecular subspace.
   *Z-matrix requests optimization of   0 coordinates.
   *The optimization is constrained.
   *The following   1 parameters can have non-zero 
    derivatives within the totally symmetric subspace:
             r    [ 1]
   *The following   0 parameters are to be optimized:

   *The following coordinates must be varied in an  unconstrained optimization.
             r    [ 1]
--------------------------------------------------------------------------------


 ----------------------------------------------------------------
         Coordinates used in calculation (QCOMP) 
 ----------------------------------------------------------------
 Z-matrix   Atomic            Coordinates (in bohr)
  Symbol    Number           X              Y              Z
 ----------------------------------------------------------------
     C         6        -0.00000000     0.00000000     1.20628173
     O         8         0.00000000     0.00000000    -0.90499894
 ----------------------------------------------------------------
 
   Interatomic distance matrix (Angstroms) 
 
                 C             O    
                [ 1]        [ 2]
  C    [ 1]     0.00000
  O    [ 2]     1.11724     0.00000
 rotcon2
   Rotational constants (in cm-1): 
          1.9697835466             0.0000000000
   Rotational constants (in MHz): 
      59052.6333883893             0.0000000000
  ECPDATA file not present.   Using default ECPDATA. 
  @GTFLGS-I, Hessian will be transformed to curvilinear coordinates.
  There are  218 basis functions.
 @CHECKOUT-I, Total execution time (CPU/WALL):        0.11/       0.14 seconds.
--executable xjoda finished with status     0 in        0.16 seconds (walltime).
 --invoking executable--
/nfs/workspaces/public/cfour_mpi/bin/xvmol
 SERIAL VERSION OF MOLECULE STARTED
********************************************************************************
                    INPUT FROM MOL FILE
********************************************************************************
INTGRL        1    0    1    0    0    0    0    0    0                         
         *** CFOUR Program System (Release V0.1) ***                            
Carbon Monoxide DBOC calculation                                                
    2    2 X  Y       0.10E-08              0    0                              
   9999.00      3.00                                                            
          6.00000000    1    5    1    1    1    1    1                         
C #1  -0.000000000000000   0.000000000000000   1.206281727752797                
   16    9                                                                      
   33980.0000000000       9.100000000000000E-005 -1.900000000000000E-005        
  0.000000000000000E+000  0.000000000000000E+000  0.000000000000000E+000        
  0.000000000000000E+000  0.000000000000000E+000  0.000000000000000E+000        
  0.000000000000000E+000                                                        
   5089.00000000000       7.040000000000000E-004 -1.510000000000000E-004        
  0.000000000000000E+000  0.000000000000000E+000  0.000000000000000E+000        
  0.000000000000000E+000  0.000000000000000E+000  0.000000000000000E+000        
  0.000000000000000E+000                                                        
   1157.00000000000       3.693000000000000E-003 -7.850000000000000E-004        
  0.000000000000000E+000  0.000000000000000E+000  0.000000000000000E+000        
  0.000000000000000E+000  0.000000000000000E+000  0.000000000000000E+000        
  0.000000000000000E+000                                                        
   326.600000000000       1.536000000000000E-002 -3.324000000000000E-003        
  0.000000000000000E+000  0.000000000000000E+000  0.000000000000000E+000        
  0.000000000000000E+000  0.000000000000000E+000  0.000000000000000E+000        
  0.000000000000000E+000                                                        
   106.100000000000       5.292900000000000E-002 -1.151200000000000E-002        
  0.000000000000000E+000  0.000000000000000E+000  0.000000000000000E+000        
  0.000000000000000E+000  0.000000000000000E+000  0.000000000000000E+000        
  0.000000000000000E+000                                                        
   38.1100000000000       0.147043000000000      -3.416000000000000E-002        
  0.000000000000000E+000  0.000000000000000E+000  0.000000000000000E+000        
  0.000000000000000E+000  0.000000000000000E+000  0.000000000000000E+000        
  0.000000000000000E+000                                                        
   14.7500000000000       0.305631000000000      -7.717300000000001E-002        
  0.000000000000000E+000  0.000000000000000E+000  0.000000000000000E+000        
  0.000000000000000E+000  0.000000000000000E+000  0.000000000000000E+000        
  0.000000000000000E+000                                                        
   6.03500000000000       0.399345000000000      -0.141493000000000             
  0.000000000000000E+000  0.000000000000000E+000  0.000000000000000E+000        
  0.000000000000000E+000  0.000000000000000E+000  0.000000000000000E+000        
  0.000000000000000E+000                                                        
   2.53000000000000       0.217051000000000      -0.118019000000000             
  0.000000000000000E+000  0.000000000000000E+000  0.000000000000000E+000        
  0.000000000000000E+000  0.000000000000000E+000  0.000000000000000E+000        
  0.000000000000000E+000                                                        
  0.735500000000000       1.589400000000000E-002  0.273806000000000             
   1.00000000000000       0.000000000000000E+000  0.000000000000000E+000        
  0.000000000000000E+000  0.000000000000000E+000  0.000000000000000E+000        
  0.000000000000000E+000                                                        
  0.290500000000000      -3.084000000000000E-003  0.586510000000000             
  0.000000000000000E+000   1.00000000000000       0.000000000000000E+000        
  0.000000000000000E+000  0.000000000000000E+000  0.000000000000000E+000        
  0.000000000000000E+000                                                        
  0.111100000000000       9.779999999999999E-004  0.285430000000000             
  0.000000000000000E+000  0.000000000000000E+000   1.00000000000000             
  0.000000000000000E+000  0.000000000000000E+000  0.000000000000000E+000        
  0.000000000000000E+000                                                        
   7.21600000000000       0.000000000000000E+000  0.000000000000000E+000        
  0.000000000000000E+000  0.000000000000000E+000  0.000000000000000E+000        
   1.00000000000000       0.000000000000000E+000  0.000000000000000E+000        
  0.000000000000000E+000                                                        
   19.5700000000000       0.000000000000000E+000  0.000000000000000E+000        
  0.000000000000000E+000  0.000000000000000E+000  0.000000000000000E+000        
  0.000000000000000E+000   1.00000000000000       0.000000000000000E+000        
  0.000000000000000E+000                                                        
   53.0730000000000       0.000000000000000E+000  0.000000000000000E+000        
  0.000000000000000E+000  0.000000000000000E+000  0.000000000000000E+000        
  0.000000000000000E+000  0.000000000000000E+000   1.00000000000000             
  0.000000000000000E+000                                                        
  4.145000000000000E-002  0.000000000000000E+000  0.000000000000000E+000        
  0.000000000000000E+000  0.000000000000000E+000  0.000000000000000E+000        
  0.000000000000000E+000  0.000000000000000E+000  0.000000000000000E+000        
   1.00000000000000                                                             
   10    8                                                                      
   34.5100000000000       5.378000000000000E-003  0.000000000000000E+000        
  0.000000000000000E+000  0.000000000000000E+000  0.000000000000000E+000        
  0.000000000000000E+000  0.000000000000000E+000  0.000000000000000E+000        
   7.91500000000000       3.613200000000000E-002  0.000000000000000E+000        
  0.000000000000000E+000  0.000000000000000E+000  0.000000000000000E+000        
  0.000000000000000E+000  0.000000000000000E+000  0.000000000000000E+000        
   2.36800000000000       0.142493000000000       0.000000000000000E+000        
  0.000000000000000E+000  0.000000000000000E+000  0.000000000000000E+000        
  0.000000000000000E+000  0.000000000000000E+000  0.000000000000000E+000        
  0.813200000000000       0.342150000000000        1.00000000000000             
  0.000000000000000E+000  0.000000000000000E+000  0.000000000000000E+000        
  0.000000000000000E+000  0.000000000000000E+000  0.000000000000000E+000        
  0.289000000000000       0.463864000000000       0.000000000000000E+000        
   1.00000000000000       0.000000000000000E+000  0.000000000000000E+000        
  0.000000000000000E+000  0.000000000000000E+000  0.000000000000000E+000        
  0.100700000000000       0.250028000000000       0.000000000000000E+000        
  0.000000000000000E+000   1.00000000000000       0.000000000000000E+000        
  0.000000000000000E+000  0.000000000000000E+000  0.000000000000000E+000        
   8.18200000000000       0.000000000000000E+000  0.000000000000000E+000        
  0.000000000000000E+000  0.000000000000000E+000   1.00000000000000             
  0.000000000000000E+000  0.000000000000000E+000  0.000000000000000E+000        
   24.1860000000000       0.000000000000000E+000  0.000000000000000E+000        
  0.000000000000000E+000  0.000000000000000E+000  0.000000000000000E+000        
   1.00000000000000       0.000000000000000E+000  0.000000000000000E+000        
   71.4940000000000       0.000000000000000E+000  0.000000000000000E+000        
  0.000000000000000E+000  0.000000000000000E+000  0.000000000000000E+000        
  0.000000000000000E+000   1.00000000000000       0.000000000000000E+000        
  3.218000000000000E-002  0.000000000000000E+000  0.000000000000000E+000        
  0.000000000000000E+000  0.000000000000000E+000  0.000000000000000E+000        
  0.000000000000000E+000  0.000000000000000E+000   1.00000000000000             
    6    6                                                                      
   1.84800000000000        1.00000000000000       0.000000000000000E+000        
  0.000000000000000E+000  0.000000000000000E+000  0.000000000000000E+000        
  0.000000000000000E+000                                                        
  0.649000000000000       0.000000000000000E+000   1.00000000000000             
  0.000000000000000E+000  0.000000000000000E+000  0.000000000000000E+000        
  0.000000000000000E+000                                                        
  0.228000000000000       0.000000000000000E+000  0.000000000000000E+000        
   1.00000000000000       0.000000000000000E+000  0.000000000000000E+000        
  0.000000000000000E+000                                                        
   8.65600000000000       0.000000000000000E+000  0.000000000000000E+000        
  0.000000000000000E+000   1.00000000000000       0.000000000000000E+000        
  0.000000000000000E+000                                                        
   33.2130000000000       0.000000000000000E+000  0.000000000000000E+000        
  0.000000000000000E+000  0.000000000000000E+000   1.00000000000000             
  0.000000000000000E+000                                                        
  7.660000000000000E-002  0.000000000000000E+000  0.000000000000000E+000        
  0.000000000000000E+000  0.000000000000000E+000  0.000000000000000E+000        
   1.00000000000000                                                             
    4    4                                                                      
   1.41900000000000        1.00000000000000       0.000000000000000E+000        
  0.000000000000000E+000  0.000000000000000E+000                                
  0.485000000000000       0.000000000000000E+000   1.00000000000000             
  0.000000000000000E+000  0.000000000000000E+000                                
   24.6940000000000       0.000000000000000E+000  0.000000000000000E+000        
   1.00000000000000       0.000000000000000E+000                                
  0.187000000000000       0.000000000000000E+000  0.000000000000000E+000        
  0.000000000000000E+000   1.00000000000000                                     
    2    2                                                                      
   1.01100000000000        1.00000000000000       0.000000000000000E+000        
  0.424000000000000       0.000000000000000E+000   1.00000000000000             
          8.00000000    1    5    1    1    1    1    1                         
O #2   0.000000000000000   0.000000000000000  -0.904998936717273                
   16    9                                                                      
   61420.0000000000       9.000000000000001E-005 -2.000000000000000E-005        
  0.000000000000000E+000  0.000000000000000E+000  0.000000000000000E+000        
  0.000000000000000E+000  0.000000000000000E+000  0.000000000000000E+000        
  0.000000000000000E+000                                                        
   9199.00000000000       6.980000000000001E-004 -1.590000000000000E-004        
  0.000000000000000E+000  0.000000000000000E+000  0.000000000000000E+000        
  0.000000000000000E+000  0.000000000000000E+000  0.000000000000000E+000        
  0.000000000000000E+000                                                        
   2091.00000000000       3.664000000000000E-003 -8.290000000000000E-004        
  0.000000000000000E+000  0.000000000000000E+000  0.000000000000000E+000        
  0.000000000000000E+000  0.000000000000000E+000  0.000000000000000E+000        
  0.000000000000000E+000                                                        
   590.900000000000       1.521800000000000E-002 -3.508000000000000E-003        
  0.000000000000000E+000  0.000000000000000E+000  0.000000000000000E+000        
  0.000000000000000E+000  0.000000000000000E+000  0.000000000000000E+000        
  0.000000000000000E+000                                                        
   192.300000000000       5.242300000000000E-002 -1.215600000000000E-002        
  0.000000000000000E+000  0.000000000000000E+000  0.000000000000000E+000        
  0.000000000000000E+000  0.000000000000000E+000  0.000000000000000E+000        
  0.000000000000000E+000                                                        
   69.3200000000000       0.145921000000000      -3.626100000000000E-002        
  0.000000000000000E+000  0.000000000000000E+000  0.000000000000000E+000        
  0.000000000000000E+000  0.000000000000000E+000  0.000000000000000E+000        
  0.000000000000000E+000                                                        
   26.9700000000000       0.305258000000000      -8.299200000000000E-002        
  0.000000000000000E+000  0.000000000000000E+000  0.000000000000000E+000        
  0.000000000000000E+000  0.000000000000000E+000  0.000000000000000E+000        
  0.000000000000000E+000                                                        
   11.1000000000000       0.398508000000000      -0.152090000000000             
  0.000000000000000E+000  0.000000000000000E+000  0.000000000000000E+000        
  0.000000000000000E+000  0.000000000000000E+000  0.000000000000000E+000        
  0.000000000000000E+000                                                        
   4.68200000000000       0.216980000000000      -0.115331000000000             
  0.000000000000000E+000  0.000000000000000E+000  0.000000000000000E+000        
  0.000000000000000E+000  0.000000000000000E+000  0.000000000000000E+000        
  0.000000000000000E+000                                                        
   1.42800000000000       1.759400000000000E-002  0.288979000000000             
   1.00000000000000       0.000000000000000E+000  0.000000000000000E+000        
  0.000000000000000E+000  0.000000000000000E+000  0.000000000000000E+000        
  0.000000000000000E+000                                                        
  0.554700000000000      -2.502000000000000E-003  0.586128000000000             
  0.000000000000000E+000   1.00000000000000       0.000000000000000E+000        
  0.000000000000000E+000  0.000000000000000E+000  0.000000000000000E+000        
  0.000000000000000E+000                                                        
  0.206700000000000       9.540000000000000E-004  0.277624000000000             
  0.000000000000000E+000  0.000000000000000E+000   1.00000000000000             
  0.000000000000000E+000  0.000000000000000E+000  0.000000000000000E+000        
  0.000000000000000E+000                                                        
   12.9740000000000       0.000000000000000E+000  0.000000000000000E+000        
  0.000000000000000E+000  0.000000000000000E+000  0.000000000000000E+000        
   1.00000000000000       0.000000000000000E+000  0.000000000000000E+000        
  0.000000000000000E+000                                                        
   34.9000000000000       0.000000000000000E+000  0.000000000000000E+000        
  0.000000000000000E+000  0.000000000000000E+000  0.000000000000000E+000        
  0.000000000000000E+000   1.00000000000000       0.000000000000000E+000        
  0.000000000000000E+000                                                        
   93.8810000000000       0.000000000000000E+000  0.000000000000000E+000        
  0.000000000000000E+000  0.000000000000000E+000  0.000000000000000E+000        
  0.000000000000000E+000  0.000000000000000E+000   1.00000000000000             
  0.000000000000000E+000                                                        
  6.959000000000000E-002  0.000000000000000E+000  0.000000000000000E+000        
  0.000000000000000E+000  0.000000000000000E+000  0.000000000000000E+000        
  0.000000000000000E+000  0.000000000000000E+000  0.000000000000000E+000        
   1.00000000000000                                                             
   10    8                                                                      
   63.4200000000000       6.044000000000000E-003  0.000000000000000E+000        
  0.000000000000000E+000  0.000000000000000E+000  0.000000000000000E+000        
  0.000000000000000E+000  0.000000000000000E+000  0.000000000000000E+000        
   14.6600000000000       4.179900000000000E-002  0.000000000000000E+000        
  0.000000000000000E+000  0.000000000000000E+000  0.000000000000000E+000        
  0.000000000000000E+000  0.000000000000000E+000  0.000000000000000E+000        
   4.45900000000000       0.161143000000000       0.000000000000000E+000        
  0.000000000000000E+000  0.000000000000000E+000  0.000000000000000E+000        
  0.000000000000000E+000  0.000000000000000E+000  0.000000000000000E+000        
   1.53100000000000       0.356731000000000        1.00000000000000             
  0.000000000000000E+000  0.000000000000000E+000  0.000000000000000E+000        
  0.000000000000000E+000  0.000000000000000E+000  0.000000000000000E+000        
  0.530200000000000       0.448309000000000       0.000000000000000E+000        
   1.00000000000000       0.000000000000000E+000  0.000000000000000E+000        
  0.000000000000000E+000  0.000000000000000E+000  0.000000000000000E+000        
  0.175000000000000       0.244940000000000       0.000000000000000E+000        
  0.000000000000000E+000   1.00000000000000       0.000000000000000E+000        
  0.000000000000000E+000  0.000000000000000E+000  0.000000000000000E+000        
   14.4750000000000       0.000000000000000E+000  0.000000000000000E+000        
  0.000000000000000E+000  0.000000000000000E+000   1.00000000000000             
  0.000000000000000E+000  0.000000000000000E+000  0.000000000000000E+000        
   42.7300000000000       0.000000000000000E+000  0.000000000000000E+000        
  0.000000000000000E+000  0.000000000000000E+000  0.000000000000000E+000        
   1.00000000000000       0.000000000000000E+000  0.000000000000000E+000        
   126.140000000000       0.000000000000000E+000  0.000000000000000E+000        
  0.000000000000000E+000  0.000000000000000E+000  0.000000000000000E+000        
  0.000000000000000E+000   1.00000000000000       0.000000000000000E+000        
  5.348000000000000E-002  0.000000000000000E+000  0.000000000000000E+000        
  0.000000000000000E+000  0.000000000000000E+000  0.000000000000000E+000        
  0.000000000000000E+000  0.000000000000000E+000   1.00000000000000             
    6    6                                                                      
   3.77500000000000        1.00000000000000       0.000000000000000E+000        
  0.000000000000000E+000  0.000000000000000E+000  0.000000000000000E+000        
  0.000000000000000E+000                                                        
   1.30000000000000       0.000000000000000E+000   1.00000000000000             
  0.000000000000000E+000  0.000000000000000E+000  0.000000000000000E+000        
  0.000000000000000E+000                                                        
  0.444000000000000       0.000000000000000E+000  0.000000000000000E+000        
   1.00000000000000       0.000000000000000E+000  0.000000000000000E+000        
  0.000000000000000E+000                                                        
   14.9270000000000       0.000000000000000E+000  0.000000000000000E+000        
  0.000000000000000E+000   1.00000000000000       0.000000000000000E+000        
  0.000000000000000E+000                                                        
   57.5440000000000       0.000000000000000E+000  0.000000000000000E+000        
  0.000000000000000E+000  0.000000000000000E+000   1.00000000000000             
  0.000000000000000E+000                                                        
  0.154000000000000       0.000000000000000E+000  0.000000000000000E+000        
  0.000000000000000E+000  0.000000000000000E+000  0.000000000000000E+000        
   1.00000000000000                                                             
    4    4                                                                      
   2.66600000000000        1.00000000000000       0.000000000000000E+000        
  0.000000000000000E+000  0.000000000000000E+000                                
  0.859000000000000       0.000000000000000E+000   1.00000000000000             
  0.000000000000000E+000  0.000000000000000E+000                                
   26.4830000000000       0.000000000000000E+000  0.000000000000000E+000        
   1.00000000000000       0.000000000000000E+000                                
  0.324000000000000       0.000000000000000E+000  0.000000000000000E+000        
  0.000000000000000E+000   1.00000000000000                                     
    2    2                                                                      
   1.84600000000000        1.00000000000000       0.000000000000000E+000        
  0.714000000000000       0.000000000000000E+000   1.00000000000000             
FINISH                                                                          
 
********************************************************************************
 ONE- AND TWO-ELECTRON INTEGRALS OVER SYMMETRY-ADAPTED AOS ARE CALCULATED.

  SPHERICAL HARMONICS ARE USED.
  
  INTEGRALS LESS THAN  0.10E-13 ARE NEGLECTED.

  NUCLEAR REPULSION ENERGY :   22.7350161481 A.U.
  @MOLECU-I, ONE ELECTRON INTEGRALS (CPU/WALL):        0.06/       0.07 SECONDS.
  @TWOEL-I,    4601700 INTEGRALS OF SYMMETRY TYPE  I I I I
  @TWOEL-I,   19745378 INTEGRALS OF SYMMETRY TYPE  I J I J
  @TWOEL-I,   10405918 INTEGRALS OF SYMMETRY TYPE  I I J J
  @TWOEL-I,   14608421 INTEGRALS OF SYMMETRY TYPE  I J K L
  @TWOEL-I, TOTAL NUMBER OF 2-E INTEGRALS   49361417.
  @MOLECU-I, TWO ELECTRON INTEGRALS (CPU/WALL):      182.90/      25.78 SECONDS.
 @CHECKOUT-I, Total execution time (CPU/WALL):      182.97/      25.87 seconds.

Running with 14 threads/proc

--executable xvmol finished with status     0 in       25.90 seconds (walltime).
 --invoking executable--
/nfs/workspaces/public/cfour_mpi/bin/xvmol2ja
 @GETMEM-I,  Allocated    3814 MB of main memory.
 @CHECKOUT-I, Total execution time (CPU/WALL):        0.15/       0.06 seconds.
--executable xvmol2ja finished with status     0 in        0.08 seconds (walltime).
 --invoking executable--
/nfs/workspaces/public/cfour_mpi/bin/xvprop
 @GETMEM-I,  Allocated    3814 MB of main memory.
   Property integrals will be calculated.
    --------------------------------------------------------------
                                   Property evaluated at 
    Property type                X             Y             Z
    --------------------------------------------------------------
    Dipole moment               ----          ----          ----  
    Quadrupole moment           ----          ----          ----  
    Octopole moment             ----          ----          ----  
    Relativisitic corr.         ----          ----          ----  
    Second moment            0.0000000     0.0000000     0.0000000
    Electron density         0.0000000     0.0000000     1.2062817
    Electron density         0.0000000     0.0000000    -0.9049989
    Field gradient           0.0000000     0.0000000     1.2062817
    Field gradient           0.0000000     0.0000000    -0.9049989
    Potential                0.0000000     0.0000000     1.2062817
    Potential                0.0000000     0.0000000    -0.9049989
    --------------------------------------------------------------
 @CHECKOUT-I, Total execution time (CPU/WALL):        1.33/       1.35 seconds.
--executable xvprop finished with status     0 in        1.37 seconds (walltime).
 --invoking executable--
/nfs/workspaces/public/cfour_mpi/bin/xvscf
  There are  218 functions in the AO basis.

  There are 4 irreducible representations.

       Irrep        # of functions
         1                 86
         2                 52
         3                 52
         4                 28


  Parameters for SCF calculation: 
        SCF reference function:  RHF  
  Maximum number of iterations:  150
     Full symmetry point group: CXv 
     Computational point group: C2v 
        Initial density matrix: MOREAD                 
     SCF convergence tolerance: 10**(-10)
  DIIS convergence acceleration:  ON
          Latest start for DIIS:   8
                     DIIS order:   6

  Memory information:    2523578 words required.
  Fock matrices are constructed from AO integral file.
 @GETMEM-I,  Allocated      19 MB of main memory.
  Initialization and symmetry analysis required      0.002 seconds.

  Adding electric field perturbation to one-electron Hamiltonian.
  Field direction     : Z
  Field strength      : -0.0002000 a.u.

  @INITGES-I, Occupancies from core Hamiltonian:

          Alpha population by irrep:   5    1    1    0
           Beta population by irrep:   5    1    1    0


 total no. of electrons in initial guess :  0.000000000000000E+000
  --------------------------------------------------------------------
  Iteration         Total Energy            Largest Density Difference
  --------------------------------------------------------------------
       0            22.735015687922708              0.0000000000D+00
   current occupation vector 
     5  1  1  0
     5  1  1  0
       1           -91.704470861694688              0.1878701377D+02
   current occupation vector 
     5  1  1  0
     5  1  1  0
       2           -96.209852225791835              0.2676496817D+02
   current occupation vector 
     5  1  1  0
     5  1  1  0
       3          -103.325727278838443              0.2675203207D+02
   current occupation vector 
     5  1  1  0
     5  1  1  0
       4          -100.451044944037790              0.7636095252D+01
   current occupation vector 
     5  1  1  0
     5  1  1  0
       5          -103.611703496736581              0.7611595644D+01
   current occupation vector 
     5  1  1  0
     5  1  1  0
       6          -100.701904267547761              0.5799809559D+01
   current occupation vector 
     5  1  1  0
     5  1  1  0
       7          -103.338763340456850              0.5556945583D+01
   current occupation vector 
     5  1  1  0
     5  1  1  0
       8          -100.405032343865017              0.5539273912D+01
   current occupation vector 
     5  1  1  0
     5  1  1  0
       9          -110.904819601039677              0.4136320595D+01
   current occupation vector 
     5  1  1  0
     5  1  1  0
      10          -112.341346709104116              0.9118968738D+00
   current occupation vector 
     5  1  1  0
     5  1  1  0
      11          -112.778016106988375              0.4843682713D+00
   current occupation vector 
     5  1  1  0
     5  1  1  0
      12          -112.789985561364588              0.9866800050D-01
   current occupation vector 
     5  1  1  0
     5  1  1  0
      13          -112.790356191269680              0.2121803108D-01
   current occupation vector 
     5  1  1  0
     5  1  1  0
      14          -112.790427274740964              0.1294325600D-01
   current occupation vector 
     5  1  1  0
     5  1  1  0
      15          -112.790429680934281              0.3098389045D-02
   current occupation vector 
     5  1  1  0
     5  1  1  0
      16          -112.790429708906018              0.2702335338D-03
   current occupation vector 
     5  1  1  0
     5  1  1  0
      17          -112.790429709561252              0.3212077076D-04
   current occupation vector 
     5  1  1  0
     5  1  1  0
      18          -112.790429709581943              0.5027816081D-05
   current occupation vector 
     5  1  1  0
     5  1  1  0
      19          -112.790429709583250              0.9858757501D-06
   current occupation vector 
     5  1  1  0
     5  1  1  0
      20          -112.790429709580579              0.1505443240D-06
   current occupation vector 
     5  1  1  0
     5  1  1  0
      21          -112.790429709582881              0.2849901559D-07
   current occupation vector 
     5  1  1  0
     5  1  1  0
      22          -112.790429709581659              0.6478045433D-08
   current occupation vector 
     5  1  1  0
     5  1  1  0
      23          -112.790429709583194              0.4252937558D-08
   current occupation vector 
     5  1  1  0
     5  1  1  0
      24          -112.790429709581971              0.1292642660D-09
   current occupation vector 
     5  1  1  0
     5  1  1  0
      25          -112.790429709581403              0.1119697668D-09
   current occupation vector 
     5  1  1  0
     5  1  1  0
      26          -112.790429709582597              0.1151119200D-09
   current occupation vector 
     5  1  1  0
     5  1  1  0

  SCF has converged.

 Density matrix saved to file den.dat
 total electron number:   14.0000000000001     
     E(SCF)=      -112.790429709582796              0.3992894904D-10

  Eigenvector printing suppressed.

 @PUTMOS-I, Writing converged MOs to NEWMOS. 
 @PUTMOS-I, Symmetry   1 Full Blocks 21 Partial Blocksize   2
 @PUTMOS-I, Symmetry   2 Full Blocks 13 Partial Blocksize   0
 @PUTMOS-I, Symmetry   3 Full Blocks 13 Partial Blocksize   0
 @PUTMOS-I, Symmetry   4 Full Blocks  7 Partial Blocksize   0
 @PUTFOCK-I, Writing converged Fock matrix to NEWFOCK. 
 @PUTFOCK-I, Symmetry   1 Full Blocks 21 Partial Blocksize   2
 @PUTFOCK-I, Symmetry   2 Full Blocks 13 Partial Blocksize   0
 @PUTFOCK-I, Symmetry   3 Full Blocks 13 Partial Blocksize   0
 @PUTFOCK-I, Symmetry   4 Full Blocks  7 Partial Blocksize   0


 
  ORBITAL EIGENVALUES (ALPHA)  (1H = 27.2113834 eV)

       MO #        E(hartree)               E(eV)           FULLSYM    COMPSYM
       ----   --------------------   --------------------   -------   ---------
    1     1         -20.6648889369        -562.3202157803     SG+        A1 (1)
    2     2         -11.3554475818        -308.9974378261     SG+        A1 (1)
    3     3          -1.5294311668         -41.6179378650     SG+        A1 (1)
    4     4          -0.8055927328         -21.9212927160     SG+        A1 (1)
    5   139          -0.6452146499         -17.5571832143      PI        B2 (3)
    6    87          -0.6452146499         -17.5571832143      PI        B1 (2)
    7     5          -0.5538769272         -15.0717574237     SG+        A1 (1)
  +++++++++++++++++++++++++++++++++++++++++++++++++++++++++++++++++++++++++++++
    8     6           0.0603356409           1.6418162573     SG+        A1 (1)
    9   140           0.0626895628           1.7058697283      PI        B2 (3)
   10    88           0.0626895628           1.7058697283      PI        B1 (2)
   11     7           0.0738884077           2.0106057894     SG+        A1 (1)
   12    89           0.1437300501           3.9110934998      PI        B1 (2)
   13   141           0.1437300501           3.9110934998      PI        B2 (3)
   14     8           0.1566579824           4.2628804228     SG+        A1 (1)
   15    90           0.1673720147           4.5544240630      PI        B1 (2)
   16   142           0.1673720147           4.5544240630      PI        B2 (3)
   17   191           0.2276615388           6.1949854189      DE        A2 (4)
   18     9           0.2276615388           6.1949854189      DE        A1 (1)
   19    10           0.2280562881           6.2057270932     SG+        A1 (1)
   20    11           0.3010811837           8.1928355249     SG+        A1 (1)
   21   143           0.3215064861           8.7486362591      PI        B2 (3)
   22    91           0.3215064861           8.7486362591      PI        B1 (2)
   23    12           0.3917014949          10.6587395553     SG+        A1 (1)
   24    92           0.3960508667          10.7770919792      PI        B1 (2)
   25   144           0.3960508667          10.7770919793      PI        B2 (3)
   26    13           0.5085872654          13.8393630721     SG+        A1 (1)
   27    14           0.5339737775          14.5301651854      DE        A1 (1)
   28   192           0.5339737775          14.5301651855      DE        A2 (4)
   29    93           0.6230696635          16.9545874978      PI        B1 (2)
   30   145           0.6230696635          16.9545874978      PI        B2 (3)
   31    15           0.6480960543          17.6355902144     SG+        A1 (1)
   32    94           0.7487680256          20.3750138209      PH        B1 (2)
   33   146           0.7487680256          20.3750138209      PH        B2 (3)
   34   193           0.7687448158          20.9186099200      DE        A2 (4)
   35    16           0.7687448158          20.9186099200      DE        A1 (1)
   36    17           0.7802539912          21.2317905045     SG+        A1 (1)
   37   147           0.8244867574          22.4354252635      PI        B2 (3)
   38    95           0.8244867574          22.4354252635      PI        B1 (2)
   39    18           0.8728165810          23.7505466223     SG+        A1 (1)
   40    96           0.8802251480          23.9521439813      PI        B1 (2)
   41   148           0.8802251480          23.9521439813      PI        B2 (3)
   42    19           0.8916989089          24.2643608886      DE        A1 (1)
   43   194           0.8916989089          24.2643608886      DE        A2 (4)
   44    20           0.9156309717          24.9155854235     SG+        A1 (1)
   45    97           1.0792348494          29.3674732662      PI        B1 (2)
   46   149           1.0792348494          29.3674732662      PI        B2 (3)
   47    21           1.2045222713          32.7767173391     SG+        A1 (1)
   48   150           1.4484494206          39.4143125181      PH        B2 (3)
   49    98           1.4484494206          39.4143125181      PH        B1 (2)
   50    22           1.4789348669          40.2438636874     SG+        A1 (1)
   51    23           1.5160678214          41.2543027490      DE        A1 (1)
   52   195           1.5160678214          41.2543027490      DE        A2 (4)
   53    99           1.5521420283          42.2359318223      PI        B1 (2)
   54   151           1.5521420283          42.2359318223      PI        B2 (3)
   55    24           1.6670067389          45.3615595029     SG+        A1 (1)
   56    25           1.7675189965          48.0966370812     SG+        A1 (1)
   57    26           1.7703139203          48.1726908224      DE        A1 (1)
   58   196           1.7703139203          48.1726908225      DE        A2 (4)
   59   100           1.8142339022          49.3678142903      PI        B1 (2)
   60   152           1.8142339022          49.3678142903      PI        B2 (3)
   61   101           1.9639740014          53.4424495396      PI        B1 (2)
   62   153           1.9639740014          53.4424495396      PI        B2 (3)
   63   197           2.1062044774          57.3127375546      PI        A2 (4)
   64    27           2.1062044774          57.3127375546      PI        A1 (1)
   65    28           2.1421035267          58.2896003471     SG+        A1 (1)
   66   198           2.1981692936          59.8152274257      DE        A2 (4)
   67    29           2.1981692936          59.8152274257      DE        A1 (1)
   68   102           2.2526199583          61.2969053398      PH        B1 (2)
   69   154           2.2526199583          61.2969053398      PH        B2 (3)
   70    30           2.3165382834          63.0362113897     SG+        A1 (1)
   71   155           2.3269758496          63.3202320051      PI        B2 (3)
   72   103           2.3269758496          63.3202320051      PI        B1 (2)
   73    31           2.3659128554          64.3797617990      DE        A1 (1)
   74   199           2.3659128554          64.3797617990      DE        A2 (4)
   75   156           2.3671841929          64.4143566527      PH        B2 (3)
   76   104           2.3671841929          64.4143566527      PH        B1 (2)
   77    32           2.4890446216          67.7303474989     SG+        A1 (1)
   78   157           2.5999844115          70.7491726547      PI        B2 (3)
   79   105           2.5999844115          70.7491726547      PI        B1 (2)
   80   106           2.8428566196          77.3580614280      PI        B1 (2)
   81   158           2.8428566196          77.3580614280      PI        B2 (3)
   82    33           2.9579232802          80.4891844462     SG+        A1 (1)
   83   200           3.0185958397          82.1401687224      DE        A2 (4)
   84    34           3.0185958397          82.1401687225      DE        A1 (1)
   85    35           3.4714434686          94.4627791759     SG+        A1 (1)
   86   201           3.7258579997         101.3857505243      PI        A2 (4)
   87    36           3.7258579997         101.3857505243      PI        A1 (1)
   88   159           3.7539168811         102.1492715021      PI        B2 (3)
   89   107           3.7539168811         102.1492715021      PI        B1 (2)
   90    37           3.9512663836         107.5194244810     SG+        A1 (1)
   91   160           4.0817404382         111.0698040041      PH        B2 (3)
   92   108           4.0817404382         111.0698040041      PH        B1 (2)
   93    38           4.1760700707         113.6366437996      DE        A1 (1)
   94   202           4.1760700707         113.6366437996      DE        A2 (4)
   95   109           4.2110126753         114.5874804109      PI        B1 (2)
   96   161           4.2110126753         114.5874804109      PI        B2 (3)
   97    39           4.2757480091         116.3490183970     SG+        A1 (1)
   98   110           4.2962907479         116.9080147379      PH        B1 (2)
   99   162           4.2962907479         116.9080147379      PH        B2 (3)
  100    40           4.3867180646         119.3686671228      DE        A1 (1)
  101   203           4.3867180646         119.3686671228      DE        A2 (4)
  102    41           4.5534098560         123.9045813695     SG+        A1 (1)
  103   163           4.7629255808         129.6057940853      PI        B2 (3)
  104   111           4.7629255808         129.6057940853      PI        B1 (2)
  105    42           5.0009524876         136.0828355064     SG+        A1 (1)
  106   112           5.1471884571         140.0621185369      PI        B1 (2)
  107   164           5.1471884571         140.0621185370      PI        B2 (3)
  108   204           5.1587729971         140.3773498982      DE        A2 (4)
  109    43           5.1587729971         140.3773498983      DE        A1 (1)
  110   113           5.8290552215         158.6166564910      PI        B1 (2)
  111   165           5.8290552215         158.6166564910      PI        B2 (3)
  112    44           5.8935614276         160.3719595982     SG+        A1 (1)
  113   205           5.9026039687         160.6180196519      PI        A2 (4)
  114    45           5.9026039687         160.6180196519      PI        A1 (1)
  115   166           6.1474160566         167.2796952353      PH        B2 (3)
  116   114           6.1474160566         167.2796952353      PH        B1 (2)
  117    46           6.2303494644         169.5364279927     SG+        A1 (1)
  118    47           6.3089417939         171.6750340032      DE        A1 (1)
  119   206           6.3089417939         171.6750340032      DE        A2 (4)
  120   167           6.3315895566         172.2913109549      PI        B2 (3)
  121   115           6.3315895566         172.2913109549      PI        B1 (2)
  122   168           6.4456726278         175.3956691457      PH        B2 (3)
  123   116           6.4456726278         175.3956691457      PH        B1 (2)
  124   207           6.5968588864         179.5096563938      DE        A2 (4)
  125    48           6.5968588864         179.5096563939      DE        A1 (1)
  126    49           7.0762097008         192.5534551868     SG+        A1 (1)
  127    50           7.3943030262         201.2092146211      DE        A1 (1)
  128   208           7.3943030262         201.2092146211      DE        A2 (4)
  129   117           7.5211263305         204.6602521796      PI        B1 (2)
  130   169           7.5211263305         204.6602521796      PI        B2 (3)
  131    51           7.8171558786         212.7156257101     SG+        A1 (1)
  132    52           8.2901783329         225.5872210706     SG+        A1 (1)
  133   170           8.5248445644         231.9728138662      PI        B2 (3)
  134   118           8.5248445644         231.9728138662      PI        B1 (2)
  135   171          10.1226664656         275.4517582257      PI        B2 (3)
  136   119          10.1226664656         275.4517582259      PI        B1 (2)
  137    53          10.4844740607         285.2970434138     SG+        A1 (1)
  138   209          10.6014416511         288.4798933600      PI        A2 (4)
  139    54          10.6014416511         288.4798933600      PI        A1 (1)
  140   172          10.8905273230         296.3463144149      PH        B2 (3)
  141   120          10.8905273230         296.3463144149      PH        B1 (2)
  142   210          11.1463554532         303.3077517506      DE        A2 (4)
  143    55          11.1463554532         303.3077517506      DE        A1 (1)
  144    56          11.1719136975         304.0032269337     SG+        A1 (1)
  145   173          11.3797220762         309.6579804019      PI        B2 (3)
  146   121          11.3797220762         309.6579804019      PI        B1 (2)
  147    57          11.6795130611         317.8157078302     SG+        A1 (1)
  148   122          11.8550831620         322.5932131605      PH        B1 (2)
  149   174          11.8550831620         322.5932131605      PH        B2 (3)
  150   211          12.3045574096         334.8240292387      DE        A2 (4)
  151    58          12.3045574096         334.8240292390      DE        A1 (1)
  152   175          12.6677978180         344.7083032598      PI        B2 (3)
  153   123          12.6677978180         344.7083032598      PI        B1 (2)
  154   212          12.8871786646         350.6779595868      DE        A2 (4)
  155    59          12.8871786646         350.6779595869      DE        A1 (1)
  156    60          13.3636308361         363.6428822958     SG+        A1 (1)
  157   124          14.2494516661         387.7472925251      PI        B1 (2)
  158   176          14.2494516661         387.7472925251      PI        B2 (3)
  159    61          15.6585192747         426.0899714614     SG+        A1 (1)
  160    62          18.0600704247         491.4395005577     SG+        A1 (1)
  161   125          19.4374153492         528.9189613715      PI        B1 (2)
  162   177          19.4374153492         528.9189613719      PI        B2 (3)
  163    63          20.7178974146         563.7626497895     SG+        A1 (1)
  164   213          26.5509401648         722.4878124558      DE        A2 (4)
  165    64          26.5509401648         722.4878124559      DE        A1 (1)
  166   178          27.0561914070         736.2363977189      PI        B2 (3)
  167   126          27.0561914070         736.2363977189      PI        B1 (2)
  168    65          28.2947952019         769.9405204641     SG+        A1 (1)
  169   179          33.8029298642         919.8244845774      PI        B2 (3)
  170   127          33.8029298642         919.8244845778      PI        B1 (2)
  171    66          35.0498696115         953.7554401195     SG+        A1 (1)
  172    67          36.9013909424        1004.1378969265     SG+        A1 (1)
  173   214          47.1268630310        1282.3871383749      DE        A2 (4)
  174    68          47.1268630310        1282.3871383749      DE        A1 (1)
  175   180          47.7590754688        1299.5905134107      PI        B2 (3)
  176   128          47.7590754688        1299.5905134107      PI        B1 (2)
  177    69          48.6190301267        1322.9910693144     SG+        A1 (1)
  178    70          64.2595441333        1748.5910925212     SG+        A1 (1)
  179   129          66.8777614558        1819.8364079075      PI        B1 (2)
  180   181          66.8777614558        1819.8364079080      PI        B2 (3)
  181    71          67.8604955531        1846.5779622100     SG+        A1 (1)
  182   182          98.6824388250        2685.2856777133      PH        B2 (3)
  183   130          98.6824388250        2685.2856777133      PH        B1 (2)
  184   215          98.7063880927        2685.9373704201      DE        A2 (4)
  185    72          98.7063880927        2685.9373704201      DE        A1 (1)
  186   183          98.7774002794        2687.8697102580      PI        B2 (3)
  187   131          98.7774002794        2687.8697102580      PI        B1 (2)
  188    73          98.7886449903        2688.1756943985     SG+        A1 (1)
  189   132         103.2847058871        2810.5197312507      PH        B1 (2)
  190   184         103.2847058871        2810.5197312507      PH        B2 (3)
  191    74         103.3372397379        2811.9492500058      DE        A1 (1)
  192   216         103.3372397379        2811.9492500060      DE        A2 (4)
  193   185         103.3651747117        2812.7093992871      PI        B2 (3)
  194   133         103.3651747117        2812.7093992872      PI        B1 (2)
  195    75         103.4314441743        2814.5126830436     SG+        A1 (1)
  196   217         115.2003128112        3134.7598797060      DE        A2 (4)
  197    76         115.2003128112        3134.7598797061      DE        A1 (1)
  198   134         115.4466033230        3141.4617852495      PI        B1 (2)
  199   186         115.4466033230        3141.4617852496      PI        B2 (3)
  200    77         116.0711496145        3158.4565538400     SG+        A1 (1)
  201   187         117.0505275360        3185.1067819546      PI        B2 (3)
  202   135         117.0505275360        3185.1067819551      PI        B1 (2)
  203    78         118.1328961912        3214.5595304117     SG+        A1 (1)
  204    79         122.9644971735        3346.0340771759     SG+        A1 (1)
  205    80         198.5825260206        5403.7052520876      DE        A1 (1)
  206   218         198.5825260206        5403.7052520876      DE        A2 (4)
  207   188         198.9257162862        5413.0439339840      PI        B2 (3)
  208   136         198.9257162862        5413.0439339844      PI        B1 (2)
  209    81         199.3583539226        5424.8166025818     SG+        A1 (1)
  210    82         216.7357336016        5897.6791435140     SG+        A1 (1)
  211   137         225.2876583441        6130.3888464892      PI        B1 (2)
  212   189         225.2876583441        6130.3888464897      PI        B2 (3)
  213    83         226.0906594396        6152.2396171708     SG+        A1 (1)
  214   190         395.5082139209       10762.3256468502      PI        B2 (3)
  215   138         395.5082139209       10762.3256468508      PI        B1 (2)
  216    84         396.3947205917       10786.4487197561     SG+        A1 (1)
  217    85         509.4864036205       13863.8298660040     SG+        A1 (1)
  218    86         895.5683897518       24369.6548144576     SG+        A1 (1)


  VSCF finished.

 @CHECKOUT-I, Total execution time (CPU/WALL):       49.33/      11.01 seconds.
--executable xvscf finished with status     0 in       11.03 seconds (walltime).
 --invoking executable--
/nfs/workspaces/public/cfour_mpi/bin/xvtran
 @GETMEM-I,  Allocated    3814 MB of main memory.
  Full RHF integral transformation
  Transformation of IIII integrals :
  1 pass through the AO integral file was required.
     4601700 AO integrals were read.
     8829437 MO integrals were written to HF2.
  Transformation of IIJJ integrals :
  1 pass through the AO integral file was required.
    10405918 AO integrals were read.
    14636886 MO integrals were written to HF2.
  Transformation of IJIJ integrals :
  1 pass through the AO integral file was required.
    19745378 AO integrals were read.
    27511480 MO integrals were written to HF2.
  Transformation of IJKL integrals :
  1 pass through the AO integral file was required.
    14608421 AO integrals were read.
    18574031 MO integrals were written to HF2.
  Summary of active molecular orbitals: 
------------------------------------------------------------------------
 
  Index      Eigenvalue    Symmetry    Index      Eigenvalue    Symmetry
------------------------------------------------------------------------
     1       -20.6648889        1       110         4.2110127        2
     2       -11.3554476        1       111         4.2962907        2
     3        -1.5294312        1       112         4.7629256        2
     4        -0.8055927        1       113         5.1471885        2
     5        -0.5538769        1       114         5.8290552        2
     6        -0.6452146        2       115         6.1474161        2
     7        -0.6452146        3       116         6.3315896        2
     8         0.0603356        1       117         6.4456726        2
     9         0.0738884        1       118         7.5211263        2
    10         0.1566580        1       119         8.5248446        2
    11         0.2276615        1       120        10.1226665        2
    12         0.2280563        1       121        10.8905273        2
    13         0.3010812        1       122        11.3797221        2
    14         0.3917015        1       123        11.8550832        2
    15         0.5085873        1       124        12.6677978        2
    16         0.5339738        1       125        14.2494517        2
    17         0.6480961        1       126        19.4374153        2
    18         0.7687448        1       127        27.0561914        2
    19         0.7802540        1       128        33.8029299        2
    20         0.8728166        1       129        47.7590755        2
    21         0.8916989        1       130        66.8777615        2
    22         0.9156310        1       131        98.6824388        2
    23         1.2045223        1       132        98.7774003        2
    24         1.4789349        1       133       103.2847059        2
    25         1.5160678        1       134       103.3651747        2
    26         1.6670067        1       135       115.4466033        2
    27         1.7675190        1       136       117.0505275        2
    28         1.7703139        1       137       198.9257163        2
    29         2.1062045        1       138       225.2876583        2
    30         2.1421035        1       139       395.5082139        2
    31         2.1981693        1       140         0.0626896        3
    32         2.3165383        1       141         0.1437301        3
    33         2.3659129        1       142         0.1673720        3
    34         2.4890446        1       143         0.3215065        3
    35         2.9579233        1       144         0.3960509        3
    36         3.0185958        1       145         0.6230697        3
    37         3.4714435        1       146         0.7487680        3
    38         3.7258580        1       147         0.8244868        3
    39         3.9512664        1       148         0.8802251        3
    40         4.1760701        1       149         1.0792348        3
    41         4.2757480        1       150         1.4484494        3
    42         4.3867181        1       151         1.5521420        3
    43         4.5534099        1       152         1.8142339        3
    44         5.0009525        1       153         1.9639740        3
    45         5.1587730        1       154         2.2526200        3
    46         5.8935614        1       155         2.3269758        3
    47         5.9026040        1       156         2.3671842        3
    48         6.2303495        1       157         2.5999844        3
    49         6.3089418        1       158         2.8428566        3
    50         6.5968589        1       159         3.7539169        3
    51         7.0762097        1       160         4.0817404        3
    52         7.3943030        1       161         4.2110127        3
    53         7.8171559        1       162         4.2962907        3
    54         8.2901783        1       163         4.7629256        3
    55        10.4844741        1       164         5.1471885        3
    56        10.6014417        1       165         5.8290552        3
    57        11.1463555        1       166         6.1474161        3
    58        11.1719137        1       167         6.3315896        3
    59        11.6795131        1       168         6.4456726        3
    60        12.3045574        1       169         7.5211263        3
    61        12.8871787        1       170         8.5248446        3
    62        13.3636308        1       171        10.1226665        3
    63        15.6585193        1       172        10.8905273        3
    64        18.0600704        1       173        11.3797221        3
    65        20.7178974        1       174        11.8550832        3
    66        26.5509402        1       175        12.6677978        3
    67        28.2947952        1       176        14.2494517        3
    68        35.0498696        1       177        19.4374153        3
    69        36.9013909        1       178        27.0561914        3
    70        47.1268630        1       179        33.8029299        3
    71        48.6190301        1       180        47.7590755        3
    72        64.2595441        1       181        66.8777615        3
    73        67.8604956        1       182        98.6824388        3
    74        98.7063881        1       183        98.7774003        3
    75        98.7886450        1       184       103.2847059        3
    76       103.3372397        1       185       103.3651747        3
    77       103.4314442        1       186       115.4466033        3
    78       115.2003128        1       187       117.0505275        3
    79       116.0711496        1       188       198.9257163        3
    80       118.1328962        1       189       225.2876583        3
    81       122.9644972        1       190       395.5082139        3
    82       198.5825260        1       191         0.2276615        4
    83       199.3583539        1       192         0.5339738        4
    84       216.7357336        1       193         0.7687448        4
    85       226.0906594        1       194         0.8916989        4
    86       396.3947206        1       195         1.5160678        4
    87       509.4864036        1       196         1.7703139        4
    88       895.5683898        1       197         2.1062045        4
    89         0.0626896        2       198         2.1981693        4
    90         0.1437301        2       199         2.3659129        4
    91         0.1673720        2       200         3.0185958        4
    92         0.3215065        2       201         3.7258580        4
    93         0.3960509        2       202         4.1760701        4
    94         0.6230697        2       203         4.3867181        4
    95         0.7487680        2       204         5.1587730        4
    96         0.8244868        2       205         5.9026040        4
    97         0.8802251        2       206         6.3089418        4
    98         1.0792348        2       207         6.5968589        4
    99         1.4484494        2       208         7.3943030        4
   100         1.5521420        2       209        10.6014417        4
   101         1.8142339        2       210        11.1463555        4
   102         1.9639740        2       211        12.3045574        4
   103         2.2526200        2       212        12.8871787        4
   104         2.3269758        2       213        26.5509402        4
   105         2.3671842        2       214        47.1268630        4
   106         2.5999844        2       215        98.7063881        4
   107         2.8428566        2       216       103.3372397        4
   108         3.7539169        2       217       115.2003128        4
   109         4.0817404        2       218       198.5825260        4
------------------------------------------------------------------------
  -20.6648889368945       -11.3554475817671       -1.52943116684736     
 -0.805592732781544      -0.553876927244157      -0.645214649920590     
 -0.645214649920615       6.033564090345526E-002  7.388840765022774E-002
  0.156657982439946       0.227661538842306       0.228056288133919     
  0.301081183725148       0.391701494870701       0.508587265433434     
  0.533973777512785       0.648096054331712       0.768744815817601     
  0.780253991219529       0.872816580958811       0.891698908943150     
  0.915630971686745        1.20452227133371        1.47893486692054     
   1.51606782141845        1.66700673891306        1.76751899652561     
   1.77031392025512        2.10620447744671        2.14210352668364     
   2.19816929357886        2.31653828337392        2.36591285539010     
   2.48904462162915        2.95792328023312        3.01859583965360     
   3.47144346861421        3.72585799971739        3.95126638364763     
   4.17607007071853        4.27574800908470        4.38671806457164     
   4.55340985601994        5.00095248764097        5.15877299712546     
   5.89356142761087        5.90260396874612        6.23034946443576     
   6.30894179394186        6.59685888641524        7.07620970078383     
   7.39430302617711        7.81715587859916        8.29017833289022     
   10.4844740607289        10.6014416510716        11.1463554532322     
   11.1719136974739        11.6795130610761        12.3045574095653     
   12.8871786646050        13.3636308360506        15.6585192747446     
   18.0600704247053        20.7178974145612        26.5509401648381     
   28.2947952019253        35.0498696115341        36.9013909423831     
[...]
 Convergence information after     9 iterations: 
 Largest element of residual vector :  0.84413027E-05.
 Largest element of DIIS residual   :  0.46499697E-05.
 Convergence information after    10 iterations: 
 Largest element of residual vector :  0.46429162E-05.
 Largest element of DIIS residual   :  0.30829306E-05.
 Convergence information after    11 iterations: 
 Largest element of residual vector :  0.17475087E-05.
 Largest element of DIIS residual   :  0.70034441E-06.
 Convergence information after    12 iterations: 
 Largest element of residual vector :  0.71320642E-06.
 Largest element of DIIS residual   :  0.37999920E-06.
 Convergence information after    13 iterations: 
 Largest element of residual vector :  0.28349421E-06.
 Largest element of DIIS residual   :  0.21449559E-06.
 Convergence information after    14 iterations: 
 Largest element of residual vector :  0.16225438E-06.
 Largest element of DIIS residual   :  0.88033146E-07.
 Perturbed amplitude equations converged in    14 iterations.
  Dominant contributions to perturbed wavefunction:
    7    7  141   27   0.2032249609 ABAB
    7    7   27  141   0.2032249609 ABAB
    7    7  141   37   0.1954126156 ABAB
    7    7   37  141   0.1954126156 ABAB
    7    7  141   55   0.1750984991 ABAB
    7    7   55  141   0.1750984991 ABAB
    7    7  142   27   0.1709458464 ABAB
    7    7   27  142   0.1709458464 ABAB
    7    7  142   37   0.1623859857 ABAB
    7    7   37  142   0.1623859857 ABAB
    5    5  141   44   0.1444023255 ABAB
    5    5   44  141   0.1444023255 ABAB
    7    7  141   63   0.1368721436 ABAB
    7    7   63  141   0.1368721436 ABAB
    7    7  141   44   0.1353264049 ABAB
    7    7   44  141   0.1353264049 ABAB
    7    7  141   53  -0.1340356622 ABAB
    7    7   53  141  -0.1340356622 ABAB
    7    6   27   90   0.1338461259 ABAB
    6    7   90   27   0.1338461259 ABAB
  norm of converged amps    2.48025139097720     
 Starting iterative solution of the perturbed Lambda equations.
 The DIIS procedure is used to accelerate convergence.
 Convergence criterion is 10**(-7).
 Maximum number of iterations is 100.
 Convergence information after     1 iterations: 
 Largest element of residual vector : -0.67842349E-01.
 Largest element of DIIS residual   : -0.67842349E-01.
 Convergence information after     2 iterations: 
 Largest element of residual vector :  0.73704852E-02.
 Largest element of DIIS residual   :  0.52272336E-02.
 Convergence information after     3 iterations: 
 Largest element of residual vector : -0.42086508E-02.
 Largest element of DIIS residual   : -0.36467579E-02.
 Convergence information after     4 iterations: 
 Largest element of residual vector : -0.25958796E-02.
 Largest element of DIIS residual   : -0.20418200E-02.
 Convergence information after     5 iterations: 
 Largest element of residual vector : -0.15005536E-02.
 Largest element of DIIS residual   : -0.68860911E-03.
 Convergence information after     6 iterations: 
 Largest element of residual vector : -0.48359635E-03.
 Largest element of DIIS residual   :  0.11391072E-03.
 Convergence information after     7 iterations: 
 Largest element of residual vector : -0.91058959E-04.
 Largest element of DIIS residual   : -0.43690884E-04.
 Convergence information after     8 iterations: 
 Largest element of residual vector : -0.18928406E-04.
 Largest element of DIIS residual   :  0.17939179E-04.
 Convergence information after     9 iterations: 
 Largest element of residual vector :  0.69895905E-05.
 Largest element of DIIS residual   :  0.38911793E-05.
 Convergence information after    10 iterations: 
 Largest element of residual vector :  0.37808415E-05.
 Largest element of DIIS residual   :  0.26208184E-05.
 Convergence information after    11 iterations: 
 Largest element of residual vector :  0.13939092E-05.
 Largest element of DIIS residual   :  0.64964051E-06.
 Convergence information after    12 iterations: 
 Largest element of residual vector :  0.63706268E-06.
 Largest element of DIIS residual   :  0.42749300E-06.
 Convergence information after    13 iterations: 
 Largest element of residual vector :  0.31425451E-06.
 Largest element of DIIS residual   :  0.25346684E-06.
 Convergence information after    14 iterations: 
 Largest element of residual vector :  0.19035473E-06.
 Largest element of DIIS residual   :  0.10021372E-06.
 Convergence information after    15 iterations: 
 Largest element of residual vector :  0.70264085E-07.
 Largest element of DIIS residual   :  0.31860601E-07.
 Perturbed Lambda equations converged in    15 iterations.
  Dominant contributions to perturbed wavefunction:
    7    7  141   27   0.1917116022 ABAB
    7    7   27  141   0.1917116022 ABAB
    7    7  141   37   0.1852749106 ABAB
    7    7   37  141   0.1852749106 ABAB
    7    7  141   55   0.1639367030 ABAB
    7    7   55  141   0.1639367030 ABAB
    7    7  142   27   0.1629478556 ABAB
    7    7   27  142   0.1629478556 ABAB
    7    7  142   37   0.1554303245 ABAB
    7    7   37  142   0.1554303245 ABAB
    5    5  141   44   0.1385703682 ABAB
    5    5   44  141   0.1385703682 ABAB
    7    7  141   63   0.1296101271 ABAB
    7    7   63  141   0.1296101271 ABAB
    7    7  141   53  -0.1263029662 ABAB
    7    7   53  141  -0.1263029662 ABAB
    7    7  141   44   0.1254362586 ABAB
    7    7   44  141   0.1254362586 ABAB
    7    6   27   90   0.1244732187 ABAB
    6    7   90   27   0.1244732187 ABAB
        The DBOC first-order density matrix is being calculated 
             (Symmetry block 3, perturbation   2)
 term   7.22401643566436     
 final tnorm  0.888817048792567     
  norm contr. I: |<0|L dT/dx|0>|^2   0.000000000000000E+000
  norm contr. II: <0|[nabla(1+L)e-T][nabla e^T]|0>   7.22401643566436     
  total norm contribution   7.22401643566436     
 oo  1.214632401776649E-002
 vv  -54.2436357668793     
 vo  3.807589536573291E-002
  Correlated perturbed 1-el contribution to DBOC  -54.1934135474958       cm**-1
  SUM_I |dc_I/dx|^2 contribution to DBOC   27.1963240794622       cm**-1
 
 
  The total diagonal Born-Oppenheimer correction (DBOC) is:      0.0041436821 a.u.
  The total diagonal Born-Oppenheimer correction (DBOC) is:        909.433106 cm-1
 
 Total CC energy including DBOC  -113.281671309573     
 First-order density matrix is being calculated  (Symmetry block 3, perturbation   2)
 Calculation of the contributions of <pq||rs> to dI(i,j)/dx required   1.5 seconds.
 Calculation of the contributions of <pq||rs> to dI(a,b)/dx required  16.9 seconds.
 Calculation of the contributions of <pq||rs> to dI(i,a)/dx required   9.7 seconds.
 First-order Z-vector equations are solved for 1 perturbation.
 Convergence reached after  18 iterations.
        U*G(pq,rs) contribution is being calculated
             (Symmetry block 3, perturbation   2)

 CCSD contribution to force constants 

        0.0000000000        0.0000000000        0.0000000000
        0.0000000000        0.0000000000        0.0000000000
        0.0000000000        0.0000000000        0.0000000000
        0.0000000000        0.0000000000        0.0000000000
        0.0000000000        0.0000000000        0.0000000000
        0.0000000000        0.0000000000        0.0000000000
        0.0000000000        0.0000000000        0.0000000000
        0.0000000000        0.0000000000        0.0000000000
        0.0000000000        0.0000000000        0.0000000000
        0.0000000000        0.0000000000        0.0000000000
        0.0000000000        0.0000000000        0.0000000000
        0.0000000000       -2.4612814731        2.4612814731

 CCSD contribution to dipole derivatives 

        0.0000000000        0.0000000000        0.0000000000
        0.0000000000        0.0000000000        0.0000000000
        0.0000000000        0.0000000000        0.0000000000
        0.0000000000        0.0000000000       -0.0439510139
        0.0000000000        0.0000000000        0.0000000000
        0.0000000000        0.0000000000        0.0000000000
 @CHECKOUT-I, Total execution time (CPU/WALL):     1050.46/     252.95 seconds.
--executable xsdcc finished with status     0 in      252.99 seconds (walltime).
 --invoking executable--
/nfs/workspaces/public/cfour_mpi/bin/xanti
 @GETMEM-I,  Allocated    3814 MB of main memory.
 CCSD MO derivative gammas will be sorted to Mulliken order.
 @CHECKOUT-I, Total execution time (CPU/WALL):        9.33/      12.89 seconds.
--executable xanti finished with status     0 in       12.90 seconds (walltime).
 --invoking executable--
/nfs/workspaces/public/cfour_mpi/bin/xbcktrn
 @GETMEM-I,  Allocated    3814 MB of main memory.
 CCSD MO derivative gammas will be transformed to the AO basis.
 @CHECKOUT-I, Total execution time (CPU/WALL):       19.92/       4.29 seconds.
--executable xbcktrn finished with status     0 in        4.30 seconds (walltime).
 --invoking executable--
/nfs/workspaces/public/cfour_mpi/bin/xvdint
 @GETMEM-I,  Allocated    3814 MB of main memory.
 One- and two-electron integral derivatives are calculated
 for RHF-CC/MBPT hessians and dipole derivatives.
 Spherical gaussians are used.
  magnet F F
                    8722  records have been written to the Sort file.
  Total length of Sort file :             178609116  words.
 Evaluation of 2el integral derivatives

                      Two-electron integral gradient
                      ------------------------------

                         C #1 z     0.0000000000
                         O #2 z     0.0000000000


 C #1       0.0000000000           -0.6961805808            0.0000000000
 O #2       0.0000000000            0.6961805808            0.0000000000


 Evaluation of 2e integral derivatives required  313.54 seconds.
  contribution to Hessian
        0.0000000000        0.0000000000        0.0000000000
        0.0000000000       -0.6961805808        0.6961805808
 @CHECKOUT-I, Total execution time (CPU/WALL):      313.54/      64.46 seconds.
--executable xvdint finished with status     0 in       64.48 seconds (walltime).
 --invoking executable--
/nfs/workspaces/public/cfour_mpi/bin/xanti
 @GETMEM-I,  Allocated    3814 MB of main memory.
 CCSD MO gammas will be sorted to Mulliken order.
 @CHECKOUT-I, Total execution time (CPU/WALL):       11.07/       9.77 seconds.
--executable xanti finished with status     0 in        9.79 seconds (walltime).
 --invoking executable--
/nfs/workspaces/public/cfour_mpi/bin/xbcktrn
 @GETMEM-I,  Allocated    3814 MB of main memory.
 CCSD MO gammas will be transformed to the AO basis.
 @CHECKOUT-I, Total execution time (CPU/WALL):       32.47/       4.95 seconds.
--executable xbcktrn finished with status     0 in        4.96 seconds (walltime).
 --invoking executable--
/nfs/workspaces/public/cfour_mpi/bin/xvdint
 @GETMEM-I,  Allocated    3814 MB of main memory.
 One- and two-electron integral derivatives are calculated
 for RHF-CC/MBPT hessians and dipole derivatives.
 Spherical gaussians are used.
  magnet F F

                     Kinetic energy integral gradient
                     --------------------------------

                         C #1 z    -1.5409772384
                         O #2 z     1.5409772384


 C #1       0.0000000000            0.0000000000           -1.5409772384
 O #2       0.0000000000            0.0000000000            1.5409772384



                   Nuclear attraction integral gradient
                   ------------------------------------

                         C #1 z    23.9860289658
                         O #2 z   -23.9860289658


 C #1       0.0000000000            0.0000000000           23.9860289658
 O #2       0.0000000000            0.0000000000          -23.9860289658



                      Reorthonormalization gradient
                      -----------------------------

                         C #1 z     0.0000000000
                         O #2 z     0.0000000000


 C #1       0.0000000000            0.0000000000            0.0000000000
 O #2       0.0000000000            0.0000000000            0.0000000000



                     Kinetic energy integral Hessian
                     -------------------------------


           Symmetry 1

           C #1 z      O #2 z

 C #1 z    1.087466
 O #2 z   -1.087466    1.087466


           Symmetry 2

           C #1 x      O #2 x

 C #1 x   -2.089035
 O #2 x    2.089035   -2.089035


           Symmetry 3

           C #1 y      O #2 y

 C #1 y   -2.089035
 O #2 y    2.089035   -2.089035




           C #1 x      C #1 y      C #1 z      O #2 x      O #2 y      O #2 z

 C #1 x   -2.089035
 C #1 y    0.000000   -2.089035
 C #1 z    0.000000    0.000000    1.087466

 O #2 x    2.089035    0.000000    0.000000   -2.089035
 O #2 y    0.000000    2.089035    0.000000    0.000000   -2.089035
 O #2 z    0.000000    0.000000   -1.087466    0.000000    0.000000    1.087466




                   Nuclear attraction integral Hessian
                   -----------------------------------


           Symmetry 1

           C #1 z      O #2 z

 C #1 z  -13.363987
 O #2 z   13.363987  -13.363987


           Symmetry 2

           C #1 x      O #2 x

 C #1 x   21.840427
 O #2 x  -21.840427   21.840427


           Symmetry 3

           C #1 y      O #2 y

 C #1 y   21.840427
 O #2 y  -21.840427   21.840427




           C #1 x      C #1 y      C #1 z      O #2 x      O #2 y      O #2 z

 C #1 x   21.840427
 C #1 y    0.000000   21.840427
 C #1 z    0.000000    0.000000  -13.363987

 O #2 x  -21.840427    0.000000    0.000000   21.840427
 O #2 y    0.000000  -21.840427    0.000000    0.000000   21.840427
 O #2 z    0.000000    0.000000   13.363987    0.000000    0.000000  -13.363987




                Highest order reorthonormalization Hessian
                ------------------------------------------


           Symmetry 1

           C #1 z      O #2 z

 C #1 z    0.000000
 O #2 z    0.000000    0.000000


           Symmetry 2

           C #1 x      O #2 x

 C #1 x    0.000000
 O #2 x    0.000000    0.000000


           Symmetry 3

           C #1 y      O #2 y

 C #1 y    0.000000
 O #2 y    0.000000    0.000000




           C #1 x      C #1 y      C #1 z      O #2 x      O #2 y      O #2 z




                Electronic contributions to dipole moment
                -----------------------------------------

                               au             Debye

                    z     -0.06506941     -0.16538998

  Conversion factor used: 1 a.u. =   2.54174691 Debye 



   Electronic contributions to static part of dipole moment derivatives
   --------------------------------------------------------------------


                     Total dipole moment derivatives
                     -------------------------------


           Symmetry 1
                              Ez

               C #1 z    -5.74234595
               O #2 z    -8.25765405

           Symmetry 2
                              Ex

               C #1 x    -5.80596163
               O #2 x    -8.19403837

           Symmetry 3
                              Ey

               C #1 y    -5.80596163
               O #2 y    -8.19403837



                       Ex          Ey          Ez

      C #1    x   -5.805962    0.000000    0.000000
      C #1    y    0.000000   -5.805962    0.000000
      C #1    z    0.000000    0.000000   -5.742346

      O #2    x   -8.194038    0.000000    0.000000
      O #2    y    0.000000   -8.194038    0.000000
      O #2    z    0.000000    0.000000   -8.257654

 Evaluation of 1e integral derivatives required    1.66 seconds.
                    8815  records have been written to the Sort file.
  Total length of Sort file :             180513570  words.
 Evaluation of 2el integral derivatives

                      Two-electron integral gradient
                      ------------------------------

                         C #1 z   -11.2597195090
                         O #2 z    11.2597195090


 C #1       0.0000000000            0.0000000000          -11.2597195090
 O #2       0.0000000000            0.0000000000           11.2597195090


 Evaluation of 2e integral derivatives required  708.60 seconds.

                            Molecular gradient
                            ------------------

                         C #1 z     0.4169789005
                         O #2 z    -0.4169789005


 C #1       0.0000000000            0.0000000000            0.4169789005
 O #2       0.0000000000            0.0000000000           -0.4169789005


  Molecular gradient norm 0.590E+00

                            Molecular hessian
                            -----------------


           Symmetry 1

           C #1 z      O #2 z

 C #1 z   67.968237
 O #2 z  -67.968237   67.968237


           Symmetry 2

           C #1 x      O #2 x

 C #1 x    3.218374
 O #2 x   -3.218374    3.218374


           Symmetry 3

           C #1 y      O #2 y

 C #1 y    3.218374
 O #2 y   -3.218374    3.218374




           C #1 x      C #1 y      C #1 z      O #2 x      O #2 y      O #2 z

 C #1 x    3.218374
 C #1 y    0.000000    3.218374
 C #1 z    0.000000    0.000000   67.968237

 O #2 x   -3.218374    0.000000    0.000000    3.218374
 O #2 y    0.000000   -3.218374    0.000000    0.000000    3.218374
 O #2 z    0.000000    0.000000  -67.968237    0.000000    0.000000   67.968237




                           Total dipole moment
                           -------------------

                               au             Debye

                    z     -0.06737054     -0.17123886

  Conversion factor used: 1 a.u. =   2.54174691 Debye 



                     Total dipole moment derivatives
                     -------------------------------


           Symmetry 1
                              Ez

               C #1 z     0.71072796
               O #2 z    -0.71072796

           Symmetry 2
                              Ex

               C #1 x    -0.03276529
               O #2 x     0.03276529

           Symmetry 3
                              Ey

               C #1 y    -0.03276529
               O #2 y     0.03276529



                       Ex          Ey          Ez

      C #1    x   -0.032765    0.000000    0.000000
      C #1    y    0.000000   -0.032765    0.000000
      C #1    z    0.000000    0.000000    0.710728

      O #2    x    0.032765    0.000000    0.000000
      O #2    y    0.000000    0.032765    0.000000
      O #2    z    0.000000    0.000000   -0.710728

 @CHECKOUT-I, Total execution time (CPU/WALL):      710.25/     117.11 seconds.
--executable xvdint finished with status     0 in      117.12 seconds (walltime).
 --invoking executable--
/nfs/workspaces/public/cfour_mpi/bin/xjoda
  @GTFLGS-I, Hessian will be transformed to curvilinear coordinates.
  @GTFLGS-I, Hessian will be transformed to curvilinear coordinates.
  igrd and ihes are                      0                     1
  gradient from JOBARC 
   0.000000000000000   0.000000000000000   0.416978900480237
   0.000000000000000   0.000000000000000  -0.416978900480237
 
  @PROJFCM-I, Projecting force constant matrix onto totally symmetric subspace.
  Largest difference between matrix elements of symmetrized
  and unsymmetrized FCM :    -0.1770494862E-10.
  read isotopes from ZMAT file 
 
  Summary of diagonal Born-Oppenheimer correction at the correlated level
  The total diagonal Born-Oppenheimer correction (DBOC) is:      0.0041436821 a.u.
  The total diagonal Born-Oppenheimer correction (DBOC) is:        909.433106 cm-1
  The total diagonal Born-Oppenheimer correction (DBOC) is:            10.879 kJ/mole
  hellooooooo 
  readis is  F
 
 @CHECKOUT-I, Total execution time (CPU/WALL):        0.01/       0.04 seconds.
--executable xjoda finished with status     0 in        0.05 seconds (walltime).
  The final electronic energy is      -113.281671309573440 a.u. 
  This computation required                         2524.96 seconds (walltime).
