 --invoking executable--
/nfs/workspaces/public/cfour_mpi/bin/xjoda


   *************************************************************************
         <<<     CCCCCC     CCCCCC   |||     CCCCCC     CCCCCC   >>>
       <<<      CCC        CCC       |||    CCC        CCC         >>>
      <<<      CCC        CCC        |||   CCC        CCC            >>>
    <<<        CCC        CCC        |||   CCC        CCC              >>>
      <<<      CCC        CCC        |||   CCC        CCC            >>>
       <<<      CCC        CCC       |||    CCC        CCC         >>>
         <<<     CCCCCC     CCCCCC   |||     CCCCCC     CCCCCC   >>>
   *************************************************************************

     ****************************************************************
     * CFOUR Coupled-Cluster techniques for Computational Chemistry *
     ****************************************************************
 

   Department of Chemistry                Institut fuer Physikalische Chemie
   University of Florida                  Universitaet Mainz
   Gainesville, FL 32611, USA             D-55099 Mainz, Germany

   Department of Chemistry                Fakultaet fuer Chemie und Biowiss.
   Johns Hopkins University               Karlsruher Institut fuer Technologie
   Baltimore, MD 21218, USA               D-76131 Karlsruhe, Germany

   Department of Chemistry                Department of Physical Chemistry
   Southern Methodist University          Eotvos Lorand University
   Dallas, TX 75275, USA                  H-1053 Budapest, Hungary

 
                       Version 2.1
 
                     vincent.theory.phys.ucl.ac.uk                     
                     Tue 25 Feb 15:21:21 GMT 2025                      
                     integer*8 version is running
 
********************************************************************************
*                          Input from ZMAT file                                *
********************************************************************************
Carbon Monoxide DBOC calculation                                                
C                                                                               
O 1 r                                                                           
                                                                                
r=1.4586206896551723                                                            
                                                                                
                                                                                
*CFOUR(CALC=CCSD,BASIS=AUG-PCVQZ,SCF_CONV=10                                    
CC_CONV=14,DBOC=ON,MEMORY=500000000                                             
ZFIELD=-200)                                                                    
                                                                                
%isotopes                                                                       
12                                                                              
16                                                                              
********************************************************************************
  @GTFLGS-I, Hessian will be transformed to curvilinear coordinates.
    -------------------------------------------------------------------
                    CFOUR Control Parameters 
    -------------------------------------------------------------------
        External           Internal           Value            Units
          Name               Name
    -------------------------------------------------------------------
       ABCDTYPE             IABCDT         STANDARD    [  0]    ***   
       ANHARMONIC           IANHAR         OFF         [  0]    ***   
       ANH_ALGORIT          IANALG         STANDARD    [  0]    ***   
       ANH_DERIVAT          IANDER         SECOND      [  1]    ***   
       ANH_MODE             ANHMOD         VIBRATION   [  0]    ***   
       ANH_STEPSIZ          ICUBST             50000          x 10-6  
       ANH_SYMMETR          IANHSM         ABELIAN     [  0]    ***   
       AO_LADDERS           IAOLAD         SINGLEPASS  [  1]    ***   
       AV_SCF               IAVSCF         OFF         [  0]    ***   
       BASIS                IBASIS         AUG-PCVQZ   [ 52]    ***   
       BOTHVECTORS          BOTHVC         OFF         [  0]    ***   
       BOX_POTENT           IPIAB          OFF         [  0]    ***   
       BREIT                IBREIT         OFF         [  0]    ***   
       BRUCK_CONV           IBRTOL          10D-  4             ***   
       BRUECKNER            IBRKNR         OFF         [  0]    ***   
       BUFFERSIZE           IBUFFS              4096            ***   
       CACHE_RECS           ICHREC             10               ***   
       CALCLEVEL            ICLLVL         CCSD        [ 10]    ***   
       CCORBOPT             ICCORB         OFF         [  0]  x 0.01  
       CC_CONV              ICCCNV          10D- 14             ***   
       CC_EXPORDER          ICCEOR              5               ***   
       CC_EXTRAPOL          ICCEXT         DIIS        [  1]    ***   
       CC_GUESS             ICCGES         MP2         [  0]    ***   
       CC_MAXCYC            ICCCYC            100              cycles 
       CC_PROGRAM           ICCPRO         VCC         [  0]    ***   
       CHARGE               ICHRGE              0               ***   
       CHOLESKY             ICHOLE         OFF         [  0]    ***   
       CIS_CONV             ICISTL              5               ***   
       COMM_SIZE            IPSIZE            ***               ***   
       CONSTANT             ICONST         OLD         [  1]    ***   
       CONTINUUM            ICONTU         NONE        [  0]    ***   
       CONTRACTION          ICNTYP         GENERAL     [  1]    ***   
       COORDINATES          ICOORD         INTERNAL    [  0]    ***   
       CPHF_CONVER          ICPHFT          10D- 16             ***   
       CPHF_MAXCYC          ICPHFC             64              cycles 
       CUBIC                ICUBIC         OFF         [  0]    ***   
       CURVILINEAR          ICURVY         ON          [  1]    ***   
       DBOC                 IDBOC          ON          [  1]    ***   
       DCT                  IDCT           OFF         [  0]    ***   
       DERIV_LEV            IDRLVL         SECOND      [  2]    ***   
       DEVMEM_SIZE          IDVMEM          50000000           MByte  
       DIAG_MRCC            IEOMST          10D-  0             ***   
       DIFF_TYPE            IDIFTY         RELAXED     [  0]    ***   
       DIRECT               IDIRCT         OFF         [  0]    ***   
       DROPMO               IDRPMO      NONE         
       ECP                  IECP           OFF         [  0]    ***   
       EIGENVECTOR          IVEC                1               ***   
       EL_ANHARM            IELANH         OFF         [  0]    ***   
       EOMFOLLOW            IEOMSR         ENERGY      [  0]    ***   
       EOMIP                IEOMIP         OFF         [  0]    ***   
       EOMLEVEL             HBARFM         SAME        [  0]    ***   
       EOM_MRCC             IMRCCE         NEW         [  1]    ***   
       EOM_NONIT            EOMNON         OFF         [  0]    ***   
       EOM_NSING            IEOMSI          10D-  0             ***   
       EOM_NSTATES          IMRCCD         DAVIDSON    [  0]    ***   
       EOM_NTRIP            IEOMTR          10D-  0             ***   
       EOM_ORDER            IEXORD         ENERGY      [  0]    ***   
       EOM_PROPSTA          IEOMST              0               ***   
       ESTATE_CONV          IEXTOL          10D-  5             ***   
       ESTATE_DIAG          IEXDIG         ITERATIVE   [  0]    ***   
       ESTATE_LOCK          IESLOC         ON          [  1]    ***   
       ESTATE_MAXC          IEXMXC             40               ***   
       ESTATE_PROP          IEXPRP         OFF         [  0]    ***   
       EVAL_HESS            IRECAL              0            # of cyc.
       EXCITATION           IEXCIT              0               ***   
       EXCITE               IEXCIT         NONE        [  0]    ***   
       EXTERN_POT           IEXPOT         OFF         [  0]    ***   
       FCGRADNEW            IFCGNW         OFF         [  0]    ***   
       FC_FIELD             IFINFC              0             x 10-6  
       FD_CALTYPE           IFDCAL         GRADONLY    [  0]    ***   
       FD_PROJECT           IFDPRJ         OFF         [  1]    ***   
       FD_STEPSIZE          IDISFD              0            10-4 bohr
       FD_USEGROUP          IFDGRP         FULL        [  0]    ***   
       FILE_RECSIZ          IFLREC              4096           words  
       FINITE_PERT          IFIPER              0             x 10-6  
       FIXGEOM              IFIXGM         OFF         [  0]    ***   
       FOCK                 IFOCK          AO          [  1]    ***   
       FREQ_ALGORI          IVIALG         STANDARD    [  0]    ***   
       FROZEN_CORE          IFROCO         OFF         [  0]    ***   
       GAMMA_ABCD           IGABCD         STORE       [  0]    ***   
       GAMMA_ABCI           IGABCI         STORE       [  0]    ***   
       GENBAS_1             IGNBS1              0               ***   
       GENBAS_2             IGNBS2              0               ***   
       GENBAS_3             IGNBS3              0               ***   
       GENBAS_4             IGNBS4              0               ***   
       GEO_CONV             ICONTL              5              H/bohr 
       GEO_MAXCYC           IOPTCY             50               ***   
       GEO_MAXSTEP          IMXSTP            300            millibohr
       GEO_METHOD           INR            SINGLE_POINT[  5]    ***   
       GIAO                 IGIAO          OFF         [  1]    ***   
       GIMIC                IGIMIC         OFF         [  0]    ***   
       GRID                 IGRID          OFF         [  0]    ***   
       GRID_ALGO            IGALGO         SERIAL      [  0]    ***   
       GUESS                IGUESS         MOREAD      [  0]    ***   
       HBAR                 IHBAR          OFF         [  0]    ***   
       HESS_TYPE            IHESTP         SCF         [  0]    ***   
       HF2_FILE             IHF2Fl         USE         [  1]    ***   
       HFSTABILITY          ISTABL         OFF         [  0]    ***   
       INCORE               INCORE         OFF         [  0]    ***   
       INPUT_MRCC           IMRCC          ON          [  1]    ***   
       INTEGRALS            INTTYP         VMOL        [  1]    ***   
       JODA_PRINT           IJPRNT              0               ***   
       KEYWORD_OUT          IDMPKW         NO          [  0]    ***   
       LINDEP_TOL           ILINDP              8               ***   
       LINEQ_CONV           IZTACN          10D-  7           cycles  
       LINEQ_EXPOR          ILMAXD              5               ***   
       LINEQ_MAXCY          ILMAXC            100               ***   
       LINEQ_TYPE           ILTYPE         DIIS        [  1]    ***   
       LOCK_ORBOCC          ILOCOC         OFF         [  0]    ***   
       MEMORY_SIZE          IMEMSZ         500000000           words  
       MEM_UNIT             IMEMU          INTEGERWORDS[  0]    ***   
       MRCC                 IMRCCC         OFF         [  0]    ***   
       MULTIPLICTY          IMULTP              1               ***   
       NACOUPLING           IVCOUP         OFF         [  0]    ***   
       NEGEVAL              IDIE           ABORT       [  0]    ***   
       NEWNORM              INEWNO         OFF         [  0]    ***   
       NON-HF               INONHF         OFF         [  0]    ***   
       NTOP_TAMP            ITOPT2             15               ***   
       NUC_MODEL            INUCMO         POINT       [  0]    ***   
       OCCUPATION           IOCCU   ESTIMATED BY SCF 
       OPEN-SHELL           IOPEN          SPIN-ORBITAL[  0]    ***   
       OPTVIB               IOPTVB         OFF         [  0]    ***   
       ORBITALS             IORBTP         STANDARD    [  0]    ***   
       PARALLEL             IPARAL         ON          [  1]    ***   
       PARA_INT             IPINTS         ON          [  1]    ***   
       PARA_PRINT           IPPRIN              0               ***   
       PERT_ORB             IPTORB         STANDARD    [  0]    ***   
       POINTS               IGRDFD              0               ***   
       PRINT                IPRNT               0               ***   
       PROPS                IPROPS         OFF         [  0]    ***   
       PROP_INTEGR          IINTYP         INTERNAL    [  0]    ***   
       PSI                  IPSI           OFF         [  0]    ***   
       QC_ALG               IQCALG         FLM         [  0]    ***   
       QC_LINALG            IQCLIN         TRIDIAG     [  2]    ***   
       QC_MAXCYC            IQCMAX          10D-100           cycles  
       QC_MAXSCFCY          IQCMSC          10D- 15           cycles  
       QC_RTRUST            IQCRTR          10D-  0           x 10-3  
       QC_SKIPSCF           IQCSKI         OFF         [  0]    ***   
       QC_START             IQCSTA          10D-  1             ***   
       QRHFGUESS            IQGUES         OFF         [  0]    ***   
       QUARTIC              IQUART         OFF         [  0]    ***   
       RAMAN_INT            IRAMIN         OFF         [  0]    ***   
       RAMAN_ORB            IRAMRE         UNRELAXED   [  0]    ***   
       RDO                  IRDOFM         ON          [  1]    ***   
       REDUCE_REPR          REDREP         Ir          [  0]    ***   
       REFERENCE            IREFNC         RHF         [  0]    ***   
       RELATIVIST           IRELAT         OFF         [  0]    ***   
       RELAX_DENS           IRDENS         ON          [  1]    ***   
       RESET_FLAGS          IRESET         OFF         [  0]    ***   
       RESTART_CC           ICCRES         OFF         [  0]    ***   
       ROT_EVEC             ROTVEC              0               ***   
       SAVE_INTS            ISVINT         OFF         [  0]    ***   
       SCALE_ON             ISTCRT              0               ***   
       SCF_CONV             ISCFCV          10D- 10             ***   
       SCF_DAMPING          IDAMP               0             x 10-3  
       SCF_EXPORDE          IRPPOR              6               ***   
       SCF_EXPSTAR          IRPPLS              8               ***   
       SCF_EXTRAPO          IRPP           ON          [  1]    ***   
       SCF_MAXCYC           ISCFCY            150              cycles 
       SCF_NOSTOP           ISCFST         OFF         [  0]    ***   
       SCF_PRINT            ISCFPR              0               ***   
       SCF_PROG             ISCFPR         SCF         [  0]    ***   
       SD_FIELD             IFINSD              0             x 10-6  
       SOPERT               IPERSO         OFF         [  0]    ***   
       SPHERICAL            IDFGHI         ON          [  1]    ***   
       SPINORBIT            ISOCAL         OFF         [  0]    ***   
       SPINROTATIO          ISRCON         OFF         [  0]    ***   
       SPIN_FLIP            ISPFLP         OFF         [  0]    ***   
       SPIN_ORBIT           ISPORB         OFF         [  0]    ***   
       SPIN_SCAL            ISCSMP         OFF         [  0]    ***   
       STEEPSCALE           ISTPSC              1000          x 10-3  
       SUBGROUP             ISUBGP         DEFAULT     [  0]    ***   
       SUBGRPAXIS           ISBXYZ         X           [  0]    ***   
       SYMMETRY             ISYM           ON          [  0]    ***   
       SYM_CHECK            ISYMCK         OVERRIDE    [  1]    ***   
       T3_EXTRAPOL          IT3EXT         OFF         [  0]    ***   
       T4_EXTRAPOL          IT4EXP         OFF         [  0]    ***   
       TAMP_SUM             IEVERY              5               ***   
       TESTSUITE            ITESTS         OFF         [  0]    ***   
       THERMOCH             ITHERM         OFF         [  0]    ***   
       TOL_CHOLESK          ITOLCH          10D-  4             ***   
       TRANGRAD             IRESRM         OFF         [  0]    ***   
       TRANS_INV            ITRAIN         IGNORE      [  1]    ***   
       TREAT_PERT           ITREAT         SIMULTANEOUS[  0]    ***   
       TRIP_ALGORI          ITRALG         NORMAL      [  0]    ***   
       UIJ_THRESHO          IUIJTH              1               ***   
       UNITS                IUNITS         ANGSTROM    [  0]    ***   
       UNOS                 IUNOS          OFF         [  0]    ***   
       UPDATE_HESS          IHUPDT         ON          [  1]    ***   
       VIBPHASE             ISETPH         STANDARD    [  0]    ***   
       VIBRATION            IVIB           ANALYTIC    [  1]    ***   
       VIB_ALGORIT          IGEALG         STANDARD    [  0]    ***   
       VNATORB              IVNORB         OFF         [  0]    ***   
       VTRAN                IVTRAN         FULL/PARTIAL[  0]    ***   
       XFIELD               IXEFLD              0             x 10-6  
       XFORM_TOL            IXFTOL          10D- 11             ***   
       YFIELD               IYEFLD              0             x 10-6  
       ZFIELD               IZEFLD            ***             x 10-6  
       ZSCALE_EXP           IZEXPS         OFF         [  0]    ***   
    -------------------------------------------------------------------
   2 entries found in Z-matrix 
   Job Title : Carbon Monoxide DBOC calculation                                                
   There are  1 unique internal coordinates.
   Of these,  0 will be optimized.
   User supplied Z-matrix: 
--------------------------------------------------------------------------------
       SYMBOL    BOND      LENGTH    ANGLE     ANGLE     DIHED     ANGLE
                  TO      (ANGST)    WRT      (DEG)      WRT      (DEG)
--------------------------------------------------------------------------------
        C    
        O          1         r    
                  *Initial values for internal coordinates* 
                      Name             Value
                        r               1.4586206897
--------------------------------------------------------------------------------
  read isotopes from ZMAT file 
   Rotational constants (in cm-1): 
          1.1556539051             1.1556539051
   Rotational constants (in MHz): 
      34645.6373342474         34645.6373342474
********************************************************************************
   The full molecular point group is CXv .
   The largest Abelian subgroup of the full molecular point group is C2v .
   The computational point group is C2v .
********************************************************************************
--------------------------------------------------------------------------------
   Analysis of internal coordinates specified by Z-matrix 
--------------------------------------------------------------------------------
   *The nuclear repulsion energy is   17.414054921985816 a.u.
   *There is   1 degree of freedom within the tot. symm. molecular subspace.
   *Z-matrix requests optimization of   0 coordinates.
   *The optimization is constrained.
   *The following   1 parameters can have non-zero 
    derivatives within the totally symmetric subspace:
             r    [ 1]
   *The following   0 parameters are to be optimized:

   *The following coordinates must be varied in an  unconstrained optimization.
             r    [ 1]
--------------------------------------------------------------------------------


 ----------------------------------------------------------------
         Coordinates used in calculation (QCOMP) 
 ----------------------------------------------------------------
 Z-matrix   Atomic            Coordinates (in bohr)
  Symbol    Number           X              Y              Z
 ----------------------------------------------------------------
     C         6        -0.00000000     0.00000000     1.57486781
     O         8         0.00000000     0.00000000    -1.18152639
 ----------------------------------------------------------------
 
   Interatomic distance matrix (Angstroms) 
 
                 C             O    
                [ 1]        [ 2]
  C    [ 1]     0.00000
  O    [ 2]     1.45862     0.00000
 rotcon2
   Rotational constants (in cm-1): 
          1.1556539051             0.0000000000
   Rotational constants (in MHz): 
      34645.6373342474             0.0000000000
  ECPDATA file not present.   Using default ECPDATA. 
  @GTFLGS-I, Hessian will be transformed to curvilinear coordinates.
  There are  218 basis functions.
 @CHECKOUT-I, Total execution time (CPU/WALL):        0.12/       0.15 seconds.
--executable xjoda finished with status     0 in        0.17 seconds (walltime).
 --invoking executable--
/nfs/workspaces/public/cfour_mpi/bin/xvmol
 SERIAL VERSION OF MOLECULE STARTED
********************************************************************************
                    INPUT FROM MOL FILE
********************************************************************************
INTGRL        1    0    1    0    0    0    0    0    0                         
         *** CFOUR Program System (Release V0.1) ***                            
Carbon Monoxide DBOC calculation                                                
    2    2 X  Y       0.10E-08              0    0                              
   9999.00      3.00                                                            
          6.00000000    1    5    1    1    1    1    1                         
C #1  -0.000000000000000   0.000000000000000   1.574867811232818                
   16    9                                                                      
   33980.0000000000       9.100000000000000E-005 -1.900000000000000E-005        
  0.000000000000000E+000  0.000000000000000E+000  0.000000000000000E+000        
  0.000000000000000E+000  0.000000000000000E+000  0.000000000000000E+000        
  0.000000000000000E+000                                                        
   5089.00000000000       7.040000000000000E-004 -1.510000000000000E-004        
  0.000000000000000E+000  0.000000000000000E+000  0.000000000000000E+000        
  0.000000000000000E+000  0.000000000000000E+000  0.000000000000000E+000        
  0.000000000000000E+000                                                        
   1157.00000000000       3.693000000000000E-003 -7.850000000000000E-004        
  0.000000000000000E+000  0.000000000000000E+000  0.000000000000000E+000        
  0.000000000000000E+000  0.000000000000000E+000  0.000000000000000E+000        
  0.000000000000000E+000                                                        
   326.600000000000       1.536000000000000E-002 -3.324000000000000E-003        
  0.000000000000000E+000  0.000000000000000E+000  0.000000000000000E+000        
  0.000000000000000E+000  0.000000000000000E+000  0.000000000000000E+000        
  0.000000000000000E+000                                                        
   106.100000000000       5.292900000000000E-002 -1.151200000000000E-002        
  0.000000000000000E+000  0.000000000000000E+000  0.000000000000000E+000        
  0.000000000000000E+000  0.000000000000000E+000  0.000000000000000E+000        
  0.000000000000000E+000                                                        
   38.1100000000000       0.147043000000000      -3.416000000000000E-002        
  0.000000000000000E+000  0.000000000000000E+000  0.000000000000000E+000        
  0.000000000000000E+000  0.000000000000000E+000  0.000000000000000E+000        
  0.000000000000000E+000                                                        
   14.7500000000000       0.305631000000000      -7.717300000000001E-002        
  0.000000000000000E+000  0.000000000000000E+000  0.000000000000000E+000        
  0.000000000000000E+000  0.000000000000000E+000  0.000000000000000E+000        
  0.000000000000000E+000                                                        
   6.03500000000000       0.399345000000000      -0.141493000000000             
  0.000000000000000E+000  0.000000000000000E+000  0.000000000000000E+000        
  0.000000000000000E+000  0.000000000000000E+000  0.000000000000000E+000        
  0.000000000000000E+000                                                        
   2.53000000000000       0.217051000000000      -0.118019000000000             
  0.000000000000000E+000  0.000000000000000E+000  0.000000000000000E+000        
  0.000000000000000E+000  0.000000000000000E+000  0.000000000000000E+000        
  0.000000000000000E+000                                                        
  0.735500000000000       1.589400000000000E-002  0.273806000000000             
   1.00000000000000       0.000000000000000E+000  0.000000000000000E+000        
  0.000000000000000E+000  0.000000000000000E+000  0.000000000000000E+000        
  0.000000000000000E+000                                                        
  0.290500000000000      -3.084000000000000E-003  0.586510000000000             
  0.000000000000000E+000   1.00000000000000       0.000000000000000E+000        
  0.000000000000000E+000  0.000000000000000E+000  0.000000000000000E+000        
  0.000000000000000E+000                                                        
  0.111100000000000       9.779999999999999E-004  0.285430000000000             
  0.000000000000000E+000  0.000000000000000E+000   1.00000000000000             
  0.000000000000000E+000  0.000000000000000E+000  0.000000000000000E+000        
  0.000000000000000E+000                                                        
   7.21600000000000       0.000000000000000E+000  0.000000000000000E+000        
  0.000000000000000E+000  0.000000000000000E+000  0.000000000000000E+000        
   1.00000000000000       0.000000000000000E+000  0.000000000000000E+000        
  0.000000000000000E+000                                                        
   19.5700000000000       0.000000000000000E+000  0.000000000000000E+000        
  0.000000000000000E+000  0.000000000000000E+000  0.000000000000000E+000        
  0.000000000000000E+000   1.00000000000000       0.000000000000000E+000        
  0.000000000000000E+000                                                        
   53.0730000000000       0.000000000000000E+000  0.000000000000000E+000        
  0.000000000000000E+000  0.000000000000000E+000  0.000000000000000E+000        
  0.000000000000000E+000  0.000000000000000E+000   1.00000000000000             
  0.000000000000000E+000                                                        
  4.145000000000000E-002  0.000000000000000E+000  0.000000000000000E+000        
  0.000000000000000E+000  0.000000000000000E+000  0.000000000000000E+000        
  0.000000000000000E+000  0.000000000000000E+000  0.000000000000000E+000        
   1.00000000000000                                                             
   10    8                                                                      
   34.5100000000000       5.378000000000000E-003  0.000000000000000E+000        
  0.000000000000000E+000  0.000000000000000E+000  0.000000000000000E+000        
  0.000000000000000E+000  0.000000000000000E+000  0.000000000000000E+000        
   7.91500000000000       3.613200000000000E-002  0.000000000000000E+000        
  0.000000000000000E+000  0.000000000000000E+000  0.000000000000000E+000        
  0.000000000000000E+000  0.000000000000000E+000  0.000000000000000E+000        
   2.36800000000000       0.142493000000000       0.000000000000000E+000        
  0.000000000000000E+000  0.000000000000000E+000  0.000000000000000E+000        
  0.000000000000000E+000  0.000000000000000E+000  0.000000000000000E+000        
  0.813200000000000       0.342150000000000        1.00000000000000             
  0.000000000000000E+000  0.000000000000000E+000  0.000000000000000E+000        
  0.000000000000000E+000  0.000000000000000E+000  0.000000000000000E+000        
  0.289000000000000       0.463864000000000       0.000000000000000E+000        
   1.00000000000000       0.000000000000000E+000  0.000000000000000E+000        
  0.000000000000000E+000  0.000000000000000E+000  0.000000000000000E+000        
  0.100700000000000       0.250028000000000       0.000000000000000E+000        
  0.000000000000000E+000   1.00000000000000       0.000000000000000E+000        
  0.000000000000000E+000  0.000000000000000E+000  0.000000000000000E+000        
   8.18200000000000       0.000000000000000E+000  0.000000000000000E+000        
  0.000000000000000E+000  0.000000000000000E+000   1.00000000000000             
  0.000000000000000E+000  0.000000000000000E+000  0.000000000000000E+000        
   24.1860000000000       0.000000000000000E+000  0.000000000000000E+000        
  0.000000000000000E+000  0.000000000000000E+000  0.000000000000000E+000        
   1.00000000000000       0.000000000000000E+000  0.000000000000000E+000        
   71.4940000000000       0.000000000000000E+000  0.000000000000000E+000        
  0.000000000000000E+000  0.000000000000000E+000  0.000000000000000E+000        
  0.000000000000000E+000   1.00000000000000       0.000000000000000E+000        
  3.218000000000000E-002  0.000000000000000E+000  0.000000000000000E+000        
  0.000000000000000E+000  0.000000000000000E+000  0.000000000000000E+000        
  0.000000000000000E+000  0.000000000000000E+000   1.00000000000000             
    6    6                                                                      
   1.84800000000000        1.00000000000000       0.000000000000000E+000        
  0.000000000000000E+000  0.000000000000000E+000  0.000000000000000E+000        
  0.000000000000000E+000                                                        
  0.649000000000000       0.000000000000000E+000   1.00000000000000             
  0.000000000000000E+000  0.000000000000000E+000  0.000000000000000E+000        
  0.000000000000000E+000                                                        
  0.228000000000000       0.000000000000000E+000  0.000000000000000E+000        
   1.00000000000000       0.000000000000000E+000  0.000000000000000E+000        
  0.000000000000000E+000                                                        
   8.65600000000000       0.000000000000000E+000  0.000000000000000E+000        
  0.000000000000000E+000   1.00000000000000       0.000000000000000E+000        
  0.000000000000000E+000                                                        
   33.2130000000000       0.000000000000000E+000  0.000000000000000E+000        
  0.000000000000000E+000  0.000000000000000E+000   1.00000000000000             
  0.000000000000000E+000                                                        
  7.660000000000000E-002  0.000000000000000E+000  0.000000000000000E+000        
  0.000000000000000E+000  0.000000000000000E+000  0.000000000000000E+000        
   1.00000000000000                                                             
    4    4                                                                      
   1.41900000000000        1.00000000000000       0.000000000000000E+000        
  0.000000000000000E+000  0.000000000000000E+000                                
  0.485000000000000       0.000000000000000E+000   1.00000000000000             
  0.000000000000000E+000  0.000000000000000E+000                                
   24.6940000000000       0.000000000000000E+000  0.000000000000000E+000        
   1.00000000000000       0.000000000000000E+000                                
  0.187000000000000       0.000000000000000E+000  0.000000000000000E+000        
  0.000000000000000E+000   1.00000000000000                                     
    2    2                                                                      
   1.01100000000000        1.00000000000000       0.000000000000000E+000        
  0.424000000000000       0.000000000000000E+000   1.00000000000000             
          8.00000000    1    5    1    1    1    1    1                         
O #2   0.000000000000000   0.000000000000000  -1.181526389603107                
   16    9                                                                      
   61420.0000000000       9.000000000000001E-005 -2.000000000000000E-005        
  0.000000000000000E+000  0.000000000000000E+000  0.000000000000000E+000        
  0.000000000000000E+000  0.000000000000000E+000  0.000000000000000E+000        
  0.000000000000000E+000                                                        
   9199.00000000000       6.980000000000001E-004 -1.590000000000000E-004        
  0.000000000000000E+000  0.000000000000000E+000  0.000000000000000E+000        
  0.000000000000000E+000  0.000000000000000E+000  0.000000000000000E+000        
  0.000000000000000E+000                                                        
   2091.00000000000       3.664000000000000E-003 -8.290000000000000E-004        
  0.000000000000000E+000  0.000000000000000E+000  0.000000000000000E+000        
  0.000000000000000E+000  0.000000000000000E+000  0.000000000000000E+000        
  0.000000000000000E+000                                                        
   590.900000000000       1.521800000000000E-002 -3.508000000000000E-003        
  0.000000000000000E+000  0.000000000000000E+000  0.000000000000000E+000        
  0.000000000000000E+000  0.000000000000000E+000  0.000000000000000E+000        
  0.000000000000000E+000                                                        
   192.300000000000       5.242300000000000E-002 -1.215600000000000E-002        
  0.000000000000000E+000  0.000000000000000E+000  0.000000000000000E+000        
  0.000000000000000E+000  0.000000000000000E+000  0.000000000000000E+000        
  0.000000000000000E+000                                                        
   69.3200000000000       0.145921000000000      -3.626100000000000E-002        
  0.000000000000000E+000  0.000000000000000E+000  0.000000000000000E+000        
  0.000000000000000E+000  0.000000000000000E+000  0.000000000000000E+000        
  0.000000000000000E+000                                                        
   26.9700000000000       0.305258000000000      -8.299200000000000E-002        
  0.000000000000000E+000  0.000000000000000E+000  0.000000000000000E+000        
  0.000000000000000E+000  0.000000000000000E+000  0.000000000000000E+000        
  0.000000000000000E+000                                                        
   11.1000000000000       0.398508000000000      -0.152090000000000             
  0.000000000000000E+000  0.000000000000000E+000  0.000000000000000E+000        
  0.000000000000000E+000  0.000000000000000E+000  0.000000000000000E+000        
  0.000000000000000E+000                                                        
   4.68200000000000       0.216980000000000      -0.115331000000000             
  0.000000000000000E+000  0.000000000000000E+000  0.000000000000000E+000        
  0.000000000000000E+000  0.000000000000000E+000  0.000000000000000E+000        
  0.000000000000000E+000                                                        
   1.42800000000000       1.759400000000000E-002  0.288979000000000             
   1.00000000000000       0.000000000000000E+000  0.000000000000000E+000        
  0.000000000000000E+000  0.000000000000000E+000  0.000000000000000E+000        
  0.000000000000000E+000                                                        
  0.554700000000000      -2.502000000000000E-003  0.586128000000000             
  0.000000000000000E+000   1.00000000000000       0.000000000000000E+000        
  0.000000000000000E+000  0.000000000000000E+000  0.000000000000000E+000        
  0.000000000000000E+000                                                        
  0.206700000000000       9.540000000000000E-004  0.277624000000000             
  0.000000000000000E+000  0.000000000000000E+000   1.00000000000000             
  0.000000000000000E+000  0.000000000000000E+000  0.000000000000000E+000        
  0.000000000000000E+000                                                        
   12.9740000000000       0.000000000000000E+000  0.000000000000000E+000        
  0.000000000000000E+000  0.000000000000000E+000  0.000000000000000E+000        
   1.00000000000000       0.000000000000000E+000  0.000000000000000E+000        
  0.000000000000000E+000                                                        
   34.9000000000000       0.000000000000000E+000  0.000000000000000E+000        
  0.000000000000000E+000  0.000000000000000E+000  0.000000000000000E+000        
  0.000000000000000E+000   1.00000000000000       0.000000000000000E+000        
  0.000000000000000E+000                                                        
   93.8810000000000       0.000000000000000E+000  0.000000000000000E+000        
  0.000000000000000E+000  0.000000000000000E+000  0.000000000000000E+000        
  0.000000000000000E+000  0.000000000000000E+000   1.00000000000000             
  0.000000000000000E+000                                                        
  6.959000000000000E-002  0.000000000000000E+000  0.000000000000000E+000        
  0.000000000000000E+000  0.000000000000000E+000  0.000000000000000E+000        
  0.000000000000000E+000  0.000000000000000E+000  0.000000000000000E+000        
   1.00000000000000                                                             
   10    8                                                                      
   63.4200000000000       6.044000000000000E-003  0.000000000000000E+000        
  0.000000000000000E+000  0.000000000000000E+000  0.000000000000000E+000        
  0.000000000000000E+000  0.000000000000000E+000  0.000000000000000E+000        
   14.6600000000000       4.179900000000000E-002  0.000000000000000E+000        
  0.000000000000000E+000  0.000000000000000E+000  0.000000000000000E+000        
  0.000000000000000E+000  0.000000000000000E+000  0.000000000000000E+000        
   4.45900000000000       0.161143000000000       0.000000000000000E+000        
  0.000000000000000E+000  0.000000000000000E+000  0.000000000000000E+000        
  0.000000000000000E+000  0.000000000000000E+000  0.000000000000000E+000        
   1.53100000000000       0.356731000000000        1.00000000000000             
  0.000000000000000E+000  0.000000000000000E+000  0.000000000000000E+000        
  0.000000000000000E+000  0.000000000000000E+000  0.000000000000000E+000        
  0.530200000000000       0.448309000000000       0.000000000000000E+000        
   1.00000000000000       0.000000000000000E+000  0.000000000000000E+000        
  0.000000000000000E+000  0.000000000000000E+000  0.000000000000000E+000        
  0.175000000000000       0.244940000000000       0.000000000000000E+000        
  0.000000000000000E+000   1.00000000000000       0.000000000000000E+000        
  0.000000000000000E+000  0.000000000000000E+000  0.000000000000000E+000        
   14.4750000000000       0.000000000000000E+000  0.000000000000000E+000        
  0.000000000000000E+000  0.000000000000000E+000   1.00000000000000             
  0.000000000000000E+000  0.000000000000000E+000  0.000000000000000E+000        
   42.7300000000000       0.000000000000000E+000  0.000000000000000E+000        
  0.000000000000000E+000  0.000000000000000E+000  0.000000000000000E+000        
   1.00000000000000       0.000000000000000E+000  0.000000000000000E+000        
   126.140000000000       0.000000000000000E+000  0.000000000000000E+000        
  0.000000000000000E+000  0.000000000000000E+000  0.000000000000000E+000        
  0.000000000000000E+000   1.00000000000000       0.000000000000000E+000        
  5.348000000000000E-002  0.000000000000000E+000  0.000000000000000E+000        
  0.000000000000000E+000  0.000000000000000E+000  0.000000000000000E+000        
  0.000000000000000E+000  0.000000000000000E+000   1.00000000000000             
    6    6                                                                      
   3.77500000000000        1.00000000000000       0.000000000000000E+000        
  0.000000000000000E+000  0.000000000000000E+000  0.000000000000000E+000        
  0.000000000000000E+000                                                        
   1.30000000000000       0.000000000000000E+000   1.00000000000000             
  0.000000000000000E+000  0.000000000000000E+000  0.000000000000000E+000        
  0.000000000000000E+000                                                        
  0.444000000000000       0.000000000000000E+000  0.000000000000000E+000        
   1.00000000000000       0.000000000000000E+000  0.000000000000000E+000        
  0.000000000000000E+000                                                        
   14.9270000000000       0.000000000000000E+000  0.000000000000000E+000        
  0.000000000000000E+000   1.00000000000000       0.000000000000000E+000        
  0.000000000000000E+000                                                        
   57.5440000000000       0.000000000000000E+000  0.000000000000000E+000        
  0.000000000000000E+000  0.000000000000000E+000   1.00000000000000             
  0.000000000000000E+000                                                        
  0.154000000000000       0.000000000000000E+000  0.000000000000000E+000        
  0.000000000000000E+000  0.000000000000000E+000  0.000000000000000E+000        
   1.00000000000000                                                             
    4    4                                                                      
   2.66600000000000        1.00000000000000       0.000000000000000E+000        
  0.000000000000000E+000  0.000000000000000E+000                                
  0.859000000000000       0.000000000000000E+000   1.00000000000000             
  0.000000000000000E+000  0.000000000000000E+000                                
   26.4830000000000       0.000000000000000E+000  0.000000000000000E+000        
   1.00000000000000       0.000000000000000E+000                                
  0.324000000000000       0.000000000000000E+000  0.000000000000000E+000        
  0.000000000000000E+000   1.00000000000000                                     
    2    2                                                                      
   1.84600000000000        1.00000000000000       0.000000000000000E+000        
  0.714000000000000       0.000000000000000E+000   1.00000000000000             
FINISH                                                                          
 
********************************************************************************
 ONE- AND TWO-ELECTRON INTEGRALS OVER SYMMETRY-ADAPTED AOS ARE CALCULATED.

  SPHERICAL HARMONICS ARE USED.
  
  INTEGRALS LESS THAN  0.10E-13 ARE NEGLECTED.

  NUCLEAR REPULSION ENERGY :   17.4140549220 A.U.
  @MOLECU-I, ONE ELECTRON INTEGRALS (CPU/WALL):        0.06/       0.06 SECONDS.
  @TWOEL-I,    4481970 INTEGRALS OF SYMMETRY TYPE  I I I I
  @TWOEL-I,   19326808 INTEGRALS OF SYMMETRY TYPE  I J I J
  @TWOEL-I,   10176568 INTEGRALS OF SYMMETRY TYPE  I I J J
  @TWOEL-I,   14299419 INTEGRALS OF SYMMETRY TYPE  I J K L
  @TWOEL-I, TOTAL NUMBER OF 2-E INTEGRALS   48284765.
  @MOLECU-I, TWO ELECTRON INTEGRALS (CPU/WALL):      148.99/      20.24 SECONDS.
 @CHECKOUT-I, Total execution time (CPU/WALL):      149.07/      20.32 seconds.

Running with 14 threads/proc

--executable xvmol finished with status     0 in       20.35 seconds (walltime).
 --invoking executable--
/nfs/workspaces/public/cfour_mpi/bin/xvmol2ja
 @GETMEM-I,  Allocated    3814 MB of main memory.
 @CHECKOUT-I, Total execution time (CPU/WALL):        0.15/       0.03 seconds.
--executable xvmol2ja finished with status     0 in        0.06 seconds (walltime).
 --invoking executable--
/nfs/workspaces/public/cfour_mpi/bin/xvprop
 @GETMEM-I,  Allocated    3814 MB of main memory.
   Property integrals will be calculated.
    --------------------------------------------------------------
                                   Property evaluated at 
    Property type                X             Y             Z
    --------------------------------------------------------------
    Dipole moment               ----          ----          ----  
    Quadrupole moment           ----          ----          ----  
    Octopole moment             ----          ----          ----  
    Relativisitic corr.         ----          ----          ----  
    Second moment            0.0000000     0.0000000     0.0000000
    Electron density         0.0000000     0.0000000     1.5748678
    Electron density         0.0000000     0.0000000    -1.1815264
    Field gradient           0.0000000     0.0000000     1.5748678
    Field gradient           0.0000000     0.0000000    -1.1815264
    Potential                0.0000000     0.0000000     1.5748678
    Potential                0.0000000     0.0000000    -1.1815264
    --------------------------------------------------------------
 @CHECKOUT-I, Total execution time (CPU/WALL):        1.29/       1.30 seconds.
--executable xvprop finished with status     0 in        1.32 seconds (walltime).
 --invoking executable--
/nfs/workspaces/public/cfour_mpi/bin/xvscf
  There are  218 functions in the AO basis.

  There are 4 irreducible representations.

       Irrep        # of functions
         1                 86
         2                 52
         3                 52
         4                 28


  Parameters for SCF calculation: 
        SCF reference function:  RHF  
  Maximum number of iterations:  150
     Full symmetry point group: CXv 
     Computational point group: C2v 
        Initial density matrix: MOREAD                 
     SCF convergence tolerance: 10**(-10)
  DIIS convergence acceleration:  ON
          Latest start for DIIS:   8
                     DIIS order:   6

  Memory information:    2523578 words required.
  Fock matrices are constructed from AO integral file.
 @GETMEM-I,  Allocated      19 MB of main memory.
  Initialization and symmetry analysis required      0.001 seconds.

  Adding electric field perturbation to one-electron Hamiltonian.
  Field direction     : Z
  Field strength      : -0.0002000 a.u.

  @INITGES-I, Occupancies from core Hamiltonian:

          Alpha population by irrep:   5    1    1    0
           Beta population by irrep:   5    1    1    0


 total no. of electrons in initial guess :  0.000000000000000E+000
  --------------------------------------------------------------------
  Iteration         Total Energy            Largest Density Difference
  --------------------------------------------------------------------
       0            17.414054321135932              0.0000000000D+00
   current occupation vector 
     5  1  1  0
     5  1  1  0
       1           -93.327545173314533              0.1752057506D+02
   current occupation vector 
     5  1  1  0
     5  1  1  0
       2           -98.307171590272915              0.1752053853D+02
   current occupation vector 
     5  1  1  0
     5  1  1  0
       3          -102.744036904023034              0.6230058491D+01
   current occupation vector 
     5  1  1  0
     5  1  1  0
       4           -97.780478633902774              0.6222894666D+01
   current occupation vector 
     5  1  1  0
     5  1  1  0
       5          -100.945280110328085              0.6641218423D+01
   current occupation vector 
     5  1  1  0
     5  1  1  0
       6           -96.339950763256056              0.6636004227D+01
   current occupation vector 
     5  1  1  0
     5  1  1  0
       7          -100.902674700377531              0.6743550052D+01
   current occupation vector 
     5  1  1  0
     5  1  1  0
       8           -96.277360880195857              0.6743789037D+01
   current occupation vector 
     5  1  1  0
     5  1  1  0
       9          -107.641143660881426              0.5296309810D+01
   current occupation vector 
     5  1  1  0
     5  1  1  0
      10          -109.449776562907402              0.9032175774D+00
   current occupation vector 
     5  1  1  0
     5  1  1  0
      11          -112.306431559367056              0.1603726043D+01
   current occupation vector 
     5  1  1  0
     5  1  1  0
      12          -112.616949185677768              0.5284405769D+00
   current occupation vector 
     5  1  1  0
     5  1  1  0
      13          -112.620953212400266              0.1127655498D+00
   current occupation vector 
     5  1  1  0
     5  1  1  0
      14          -112.621976630655254              0.4772365000D-01
   current occupation vector 
     5  1  1  0
     5  1  1  0
      15          -112.622049921366553              0.1438679485D-01
   current occupation vector 
     5  1  1  0
     5  1  1  0
      16          -112.622067544181434              0.7398441389D-02
   current occupation vector 
     5  1  1  0
     5  1  1  0
      17          -112.622072090928597              0.5118599636D-02
   current occupation vector 
     5  1  1  0
     5  1  1  0
      18          -112.622072241852081              0.9277525212D-03
   current occupation vector 
     5  1  1  0
     5  1  1  0
      19          -112.622072243516797              0.1175796385D-03
   current occupation vector 
     5  1  1  0
     5  1  1  0
      20          -112.622072243665073              0.1903773531D-04
   current occupation vector 
     5  1  1  0
     5  1  1  0
      21          -112.622072243668114              0.1805040230D-05
   current occupation vector 
     5  1  1  0
     5  1  1  0
      22          -112.622072243668654              0.2445412928D-06
   current occupation vector 
     5  1  1  0
     5  1  1  0
      23          -112.622072243668171              0.3652772573D-07
   current occupation vector 
     5  1  1  0
     5  1  1  0
      24          -112.622072243667716              0.8528290962D-08
   current occupation vector 
     5  1  1  0
     5  1  1  0
      25          -112.622072243665357              0.1615557021D-08
   current occupation vector 
     5  1  1  0
     5  1  1  0
      26          -112.622072243667517              0.4508258211D-09
   current occupation vector 
     5  1  1  0
     5  1  1  0
      27          -112.622072243667290              0.3248075142D-09
   current occupation vector 
     5  1  1  0
     5  1  1  0

  SCF has converged.

 Density matrix saved to file den.dat
 total electron number:   14.0000000000001     
     E(SCF)=      -112.622072243667972              0.5336345255D-10

  Eigenvector printing suppressed.

 @PUTMOS-I, Writing converged MOs to NEWMOS. 
 @PUTMOS-I, Symmetry   1 Full Blocks 21 Partial Blocksize   2
 @PUTMOS-I, Symmetry   2 Full Blocks 13 Partial Blocksize   0
 @PUTMOS-I, Symmetry   3 Full Blocks 13 Partial Blocksize   0
 @PUTMOS-I, Symmetry   4 Full Blocks  7 Partial Blocksize   0
 @PUTFOCK-I, Writing converged Fock matrix to NEWFOCK. 
 @PUTFOCK-I, Symmetry   1 Full Blocks 21 Partial Blocksize   2
 @PUTFOCK-I, Symmetry   2 Full Blocks 13 Partial Blocksize   0
 @PUTFOCK-I, Symmetry   3 Full Blocks 13 Partial Blocksize   0
 @PUTFOCK-I, Symmetry   4 Full Blocks  7 Partial Blocksize   0


 
  ORBITAL EIGENVALUES (ALPHA)  (1H = 27.2113834 eV)

       MO #        E(hartree)               E(eV)           FULLSYM    COMPSYM
       ----   --------------------   --------------------   -------   ---------
    1     1         -20.6576062907        -562.1220449035     SG+        A1 (1)
    2     2         -11.4873693432        -312.5872114553     SG+        A1 (1)
    3     3          -1.3326264079         -36.2626081136     SG+        A1 (1)
    4     4          -0.7956615856         -21.6510524628     SG+        A1 (1)
    5     5          -0.5555173194         -15.1163947628     SG+        A1 (1)
    6   139          -0.5282402410         -14.3741477263      PI        B2 (3)
    7    87          -0.5282402410         -14.3741477263      PI        B1 (2)
  +++++++++++++++++++++++++++++++++++++++++++++++++++++++++++++++++++++++++++++
    8   140           0.0205731040           0.5598226201      PI        B2 (3)
    9    88           0.0205731040           0.5598226201      PI        B1 (2)
   10     6           0.0625962484           1.7033305149     SG+        A1 (1)
   11     7           0.0683730253           1.8605246060     SG+        A1 (1)
   12   141           0.0858879374           2.3371295932      PI        B2 (3)
   13    89           0.0858879374           2.3371295932      PI        B1 (2)
   14     8           0.1574042826           4.2831882822     SG+        A1 (1)
   15    90           0.1750214153           4.7625748345      PI        B1 (2)
   16   142           0.1750214153           4.7625748346      PI        B2 (3)
   17     9           0.2204754643           5.9994423897     SG+        A1 (1)
   18   191           0.2241749860           6.1001114926      DE        A2 (4)
   19    10           0.2241749860           6.1001114926      DE        A1 (1)
   20   143           0.2928220055           7.9680918585      PI        B2 (3)
   21    91           0.2928220055           7.9680918585      PI        B1 (2)
   22    11           0.2996496689           8.1538820255     SG+        A1 (1)
   23    12           0.3539039654           9.6302164903     SG+        A1 (1)
   24   144           0.4005572828          10.8997177949      PI        B2 (3)
   25    92           0.4005572828          10.8997177949      PI        B1 (2)
   26    13           0.4590816998          12.4922481462     SG+        A1 (1)
   27    14           0.5120857499          13.9345616745     SG+        A1 (1)
   28   192           0.5480761241          14.9139095464      DE        A2 (4)
   29    15           0.5480761241          14.9139095464      DE        A1 (1)
   30   145           0.6246256465          16.9969279493      PI        B2 (3)
   31    93           0.6246256465          16.9969279494      PI        B1 (2)
   32    16           0.7225267447          19.6609522656     SG+        A1 (1)
   33   146           0.7375898141          20.0708392241      PH        B2 (3)
   34    94           0.7375898141          20.0708392241      PH        B1 (2)
   35   193           0.7478998424          20.3513893577      DE        A2 (4)
   36    17           0.7478998424          20.3513893577      DE        A1 (1)
   37   147           0.7871539103          21.4195468477      PI        B2 (3)
   38    95           0.7871539103          21.4195468477      PI        B1 (2)
   39    18           0.8251850773          22.4544275144     SG+        A1 (1)
   40    19           0.8699850347          23.6734963321      DE        A1 (1)
   41   194           0.8699850347          23.6734963321      DE        A2 (4)
   42    20           0.8700535413          23.6753604919     SG+        A1 (1)
   43   148           0.8964437425          24.3934743743      PI        B2 (3)
   44    96           0.8964437425          24.3934743743      PI        B1 (2)
   45   149           1.0324429137          28.0941999642      PI        B2 (3)
   46    97           1.0324429137          28.0941999643      PI        B1 (2)
   47    21           1.1238095456          30.5804124143     SG+        A1 (1)
   48    22           1.3892194939          37.8025842747     SG+        A1 (1)
   49    98           1.4260845431          38.8057332638      PH        B1 (2)
   50   150           1.4260845431          38.8057332638      PH        B2 (3)
   51   151           1.5369639906          41.8229164203      PI        B2 (3)
   52    99           1.5369639906          41.8229164203      PI        B1 (2)
   53    23           1.5710238082          42.7497311755      DE        A1 (1)
   54   195           1.5710238082          42.7497311755      DE        A2 (4)
   55    24           1.6194892557          44.0685430498     SG+        A1 (1)
   56   152           1.6408387885          44.6494933702      PI        B2 (3)
   57   100           1.6408387885          44.6494933702      PI        B1 (2)
   58    25           1.7047321095          46.3881190267      DE        A1 (1)
   59   196           1.7047321095          46.3881190267      DE        A2 (4)
   60    26           1.8976309262          51.6371626837     SG+        A1 (1)
   61    27           1.9937197783          54.2518732784     SG+        A1 (1)
   62   197           2.0794540857          56.5848223878      PI        A2 (4)
   63    28           2.0794540857          56.5848223878      PI        A1 (1)
   64   153           2.0904118450          56.8829981782      PI        B2 (3)
   65   101           2.0904118450          56.8829981783      PI        B1 (2)
   66   198           2.1422463752          58.2934874536      DE        A2 (4)
   67    29           2.1422463752          58.2934874536      DE        A1 (1)
   68   154           2.2198126067          60.4041719168      PH        B2 (3)
   69   102           2.2198126067          60.4041719168      PH        B1 (2)
   70   103           2.2486780944          61.1896417689      PH        B1 (2)
   71   155           2.2486780944          61.1896417689      PH        B2 (3)
   72   156           2.2513261222          61.2616982689      PI        B2 (3)
   73   104           2.2513261222          61.2616982689      PI        B1 (2)
   74    30           2.2548949908          61.3588121214     SG+        A1 (1)
   75    31           2.3056065564          62.7387439754      DE        A1 (1)
   76   199           2.3056065564          62.7387439754      DE        A2 (4)
   77    32           2.4734351660          67.3055926158     SG+        A1 (1)
   78   157           2.5210013915          68.5999354161      PI        B2 (3)
   79   105           2.5210013915          68.5999354161      PI        B1 (2)
   80    33           2.6003398873          70.7588456445     SG+        A1 (1)
   81   158           2.6195157410          71.2806471500      PI        B2 (3)
   82   106           2.6195157410          71.2806471500      PI        B1 (2)
   83   200           2.7350174216          74.4236076650      DE        A2 (4)
   84    34           2.7350174216          74.4236076650      DE        A1 (1)
   85    35           3.1426707452          85.5164185463     SG+        A1 (1)
   86   107           3.5167476624          95.6955689623      PI        B1 (2)
   87   159           3.5167476624          95.6955689623      PI        B2 (3)
   88   201           3.7020414407         100.7376690068      PI        A2 (4)
   89    36           3.7020414407         100.7376690068      PI        A1 (1)
   90    37           3.9048708693         106.2569383525     SG+        A1 (1)
   91   160           3.9844873269         108.4234123047      PH        B2 (3)
   92   108           3.9844873269         108.4234123047      PH        B1 (2)
   93   109           4.1289890257         112.3555034315      PH        B1 (2)
   94   161           4.1289890257         112.3555034315      PH        B2 (3)
   95   162           4.1636029809         113.2973970385      PI        B2 (3)
   96   110           4.1636029809         113.2973970385      PI        B1 (2)
   97    38           4.1931645135         114.1018072363     SG+        A1 (1)
   98   202           4.2192374805         114.8112887372      DE        A2 (4)
   99    39           4.2192374805         114.8112887372      DE        A1 (1)
  100    40           4.2740013057         116.3014881808      DE        A1 (1)
  101   203           4.2740013057         116.3014881808      DE        A2 (4)
  102    41           4.4303022697         120.5546536380     SG+        A1 (1)
  103   163           4.6488366569         126.5012766358      PI        B2 (3)
  104   111           4.6488366569         126.5012766358      PI        B1 (2)
  105    42           4.8089526239         130.8582536008     SG+        A1 (1)
  106   204           4.8132334498         130.9747407974      DE        A2 (4)
  107    43           4.8132334498         130.9747407974      DE        A1 (1)
  108   164           5.1505924270         140.1547452674      PI        B2 (3)
  109   112           5.1505924270         140.1547452674      PI        B1 (2)
  110    44           5.3677108228         146.0628371796     SG+        A1 (1)
  111   165           5.4083150597         147.1677346387      PI        B2 (3)
  112   113           5.4083150597         147.1677346387      PI        B1 (2)
  113   205           5.8483181653         159.1408278424      PI        A2 (4)
  114    45           5.8483181653         159.1408278424      PI        A1 (1)
  115   114           5.9319786388         161.4173450619      PH        B1 (2)
  116   166           5.9319786388         161.4173450619      PH        B2 (3)
  117    46           6.1244659868         166.6551920883     SG+        A1 (1)
  118   206           6.1654282483         167.7698318889      DE        A2 (4)
  119    47           6.1654282483         167.7698318889      DE        A1 (1)
  120   167           6.1851077284         168.3053377682      PI        B2 (3)
  121   115           6.1851077284         168.3053377682      PI        B1 (2)
  122    48           6.2529091018         170.1503069353     SG+        A1 (1)
  123   168           6.3796216113         173.5983296113      PH        B2 (3)
  124   116           6.3796216113         173.5983296113      PH        B1 (2)
  125   207           6.4628641761         175.8634749579      DE        A2 (4)
  126    49           6.4628641761         175.8634749579      DE        A1 (1)
  127    50           6.5138448215         177.2507288454      DE        A1 (1)
  128   208           6.5138448215         177.2507288454      DE        A2 (4)
  129   169           6.9128716178         188.1087999861      PI        B2 (3)
  130   117           6.9128716178         188.1087999861      PI        B1 (2)
  131    51           7.1982081363         195.8732013895     SG+        A1 (1)
  132   170           7.5479184698         205.3893033545      PI        B2 (3)
  133   118           7.5479184698         205.3893033545      PI        B1 (2)
  134    52           8.1946184624         222.9869047967     SG+        A1 (1)
  135    53           9.6837184864         263.5073764700     SG+        A1 (1)
  136   171           9.8979778325         269.3376696838      PI        B2 (3)
  137   119           9.8979778325         269.3376696840      PI        B1 (2)
  138   209          10.6350874010         289.3954407614      PI        A2 (4)
  139    54          10.6350874010         289.3954407614      PI        A1 (1)
  140    55          10.7309325404         292.0035195955     SG+        A1 (1)
  141   172          10.7560736123         292.6876429433      PH        B2 (3)
  142   120          10.7560736123         292.6876429433      PH        B1 (2)
  143    56          10.9908409890         299.0759880410      DE        A1 (1)
  144   210          10.9908409890         299.0759880410      DE        A2 (4)
  145   121          11.0142938029         299.7141715523      PI        B1 (2)
  146   173          11.0142938029         299.7141715523      PI        B2 (3)
  147    57          11.2617041639         306.4465497410     SG+        A1 (1)
  148   122          11.8752379775         323.1416535717      PH        B1 (2)
  149   174          11.8752379775         323.1416535717      PH        B2 (3)
  150   211          12.0336448485         327.4521236718      DE        A2 (4)
  151    58          12.0336448485         327.4521236719      DE        A1 (1)
  152   175          12.5402129896         341.2365435788      PI        B2 (3)
  153   123          12.5402129896         341.2365435788      PI        B1 (2)
  154    59          12.7466742143         346.8546391198      DE        A1 (1)
  155   212          12.7466742143         346.8546391198      DE        A2 (4)
  156    60          12.7907749557         348.0546813032     SG+        A1 (1)
  157   124          13.0875671882         356.1308085314      PI        B1 (2)
  158   176          13.0875671882         356.1308085314      PI        B2 (3)
  159    61          13.8080738379         375.7367912190     SG+        A1 (1)
  160    62          17.4549619869         474.9736628593     SG+        A1 (1)
  161   125          18.8263078037         512.2898796521      PI        B1 (2)
  162   177          18.8263078037         512.2898796522      PI        B2 (3)
  163    63          20.1064100528         547.1232327440     SG+        A1 (1)
  164    64          26.3050206737         715.7960028973      DE        A1 (1)
  165   213          26.3050206737         715.7960028974      DE        A2 (4)
  166   178          26.6883913250         726.2280486742      PI        B2 (3)
  167   126          26.6883913250         726.2280486742      PI        B1 (2)
  168    65          27.1854524160         739.7537685936     SG+        A1 (1)
  169   179          33.5607612224         913.2347408194      PI        B2 (3)
  170   127          33.5607612225         913.2347408202      PI        B1 (2)
  171    66          34.3346127632         934.2923117887     SG+        A1 (1)
  172    67          35.8527929341         975.6040944903     SG+        A1 (1)
  173   214          47.0749342673        1280.9740848769      DE        A2 (4)
  174    68          47.0749342673        1280.9740848769      DE        A1 (1)
  175   128          47.2583080591        1285.9639394315      PI        B1 (2)
  176   180          47.2583080591        1285.9639394317      PI        B2 (3)
  177    69          47.6867388046        1297.6221327086     SG+        A1 (1)
  178    70          63.8684788916        1737.9496662930     SG+        A1 (1)
  179   129          66.3895188974        1806.5506524586      PI        B1 (2)
  180   181          66.3895188974        1806.5506524587      PI        B2 (3)
  181    71          67.3080140711        1831.5441767818     SG+        A1 (1)
  182   182          98.5432498652        2681.4981535638      PH        B2 (3)
  183   130          98.5432498652        2681.4981535639      PH        B1 (2)
  184    72          98.5566541700        2681.8629032424      DE        A1 (1)
  185   215          98.5566541700        2681.8629032424      DE        A2 (4)
  186   183          98.5730713183        2682.3096365567      PI        B2 (3)
  187   131          98.5730713183        2682.3096365567      PI        B1 (2)
  188    73          98.5896487085        2682.7607302789     SG+        A1 (1)
  189   184         103.2955837831        2810.8157338486      PH        B2 (3)
  190   132         103.2955837831        2810.8157338486      PH        B1 (2)
  191   216         103.3060921918        2811.1016821872      DE        A2 (4)
  192    74         103.3060921919        2811.1016821906      DE        A1 (1)
  193   133         103.3470862094        2812.2171861181      PI        B1 (2)
  194   185         103.3470862094        2812.2171861181      PI        B2 (3)
  195    75         103.3493841010        2812.2797149249     SG+        A1 (1)
  196    76         115.0011085249        3129.3392554973      DE        A1 (1)
  197   217         115.0011085249        3129.3392554974      DE        A2 (4)
  198   186         115.1853025716        3134.3514303220      PI        B2 (3)
  199   134         115.1853025716        3134.3514303220      PI        B1 (2)
  200    77         115.4547651438        3141.6838796862     SG+        A1 (1)
  201   187         116.8437543244        3179.4801968170      PI        B2 (3)
  202   135         116.8437543244        3179.4801968176      PI        B1 (2)
  203    78         117.4752306972        3196.6635425044     SG+        A1 (1)
  204    79         122.0642397899        3321.5368283527     SG+        A1 (1)
  205   218         198.5513858552        5402.8578851073      DE        A2 (4)
  206    80         198.5513858552        5402.8578851073      DE        A1 (1)
  207   136         198.6508305759        5405.5639135293      PI        B1 (2)
  208   188         198.6508305759        5405.5639135293      PI        B2 (3)
  209    81         198.8745683619        5411.6521282065     SG+        A1 (1)
  210    82         216.3999401089        5888.5417380392     SG+        A1 (1)
  211   137         224.8592748519        6118.7319390403      PI        B1 (2)
  212   189         224.8592748519        6118.7319390404      PI        B2 (3)
  213    83         225.5732633805        6138.1605546367     SG+        A1 (1)
  214   190         395.3393822842       10757.7315044533      PI        B2 (3)
  215   138         395.3393822842       10757.7315044535      PI        B1 (2)
  216    84         395.8758383629       10772.3292164898     SG+        A1 (1)
  217    85         508.7379040754       13843.4621579069     SG+        A1 (1)
  218    86         895.2274506532       24360.3773899301     SG+        A1 (1)


  VSCF finished.

 @CHECKOUT-I, Total execution time (CPU/WALL):       45.44/       8.19 seconds.
--executable xvscf finished with status     0 in        8.21 seconds (walltime).
 --invoking executable--
/nfs/workspaces/public/cfour_mpi/bin/xvtran
 @GETMEM-I,  Allocated    3814 MB of main memory.
  Full RHF integral transformation
  Transformation of IIII integrals :
  1 pass through the AO integral file was required.
     4481970 AO integrals were read.
     8723257 MO integrals were written to HF2.
  Transformation of IIJJ integrals :
  1 pass through the AO integral file was required.
    10176568 AO integrals were read.
    14482390 MO integrals were written to HF2.
  Transformation of IJIJ integrals :
  1 pass through the AO integral file was required.
    19326808 AO integrals were read.
    27083647 MO integrals were written to HF2.
  Transformation of IJKL integrals :
  1 pass through the AO integral file was required.
    14299419 AO integrals were read.
    18308874 MO integrals were written to HF2.
  Summary of active molecular orbitals: 
------------------------------------------------------------------------
 
  Index      Eigenvalue    Symmetry    Index      Eigenvalue    Symmetry
------------------------------------------------------------------------
     1       -20.6576063        1       110         4.1289890        2
     2       -11.4873693        1       111         4.1636030        2
     3        -1.3326264        1       112         4.6488367        2
     4        -0.7956616        1       113         5.1505924        2
     5        -0.5555173        1       114         5.4083151        2
     6        -0.5282402        2       115         5.9319786        2
     7        -0.5282402        3       116         6.1851077        2
     8         0.0625962        1       117         6.3796216        2
     9         0.0683730        1       118         6.9128716        2
    10         0.1574043        1       119         7.5479185        2
    11         0.2204755        1       120         9.8979778        2
    12         0.2241750        1       121        10.7560736        2
    13         0.2996497        1       122        11.0142938        2
    14         0.3539040        1       123        11.8752380        2
    15         0.4590817        1       124        12.5402130        2
    16         0.5120857        1       125        13.0875672        2
    17         0.5480761        1       126        18.8263078        2
    18         0.7225267        1       127        26.6883913        2
    19         0.7478998        1       128        33.5607612        2
    20         0.8251851        1       129        47.2583081        2
    21         0.8699850        1       130        66.3895189        2
    22         0.8700535        1       131        98.5432499        2
    23         1.1238095        1       132        98.5730713        2
    24         1.3892195        1       133       103.2955838        2
    25         1.5710238        1       134       103.3470862        2
    26         1.6194893        1       135       115.1853026        2
    27         1.7047321        1       136       116.8437543        2
    28         1.8976309        1       137       198.6508306        2
    29         1.9937198        1       138       224.8592749        2
    30         2.0794541        1       139       395.3393823        2
    31         2.1422464        1       140         0.0205731        3
    32         2.2548950        1       141         0.0858879        3
    33         2.3056066        1       142         0.1750214        3
    34         2.4734352        1       143         0.2928220        3
    35         2.6003399        1       144         0.4005573        3
    36         2.7350174        1       145         0.6246256        3
    37         3.1426707        1       146         0.7375898        3
    38         3.7020414        1       147         0.7871539        3
    39         3.9048709        1       148         0.8964437        3
    40         4.1931645        1       149         1.0324429        3
    41         4.2192375        1       150         1.4260845        3
    42         4.2740013        1       151         1.5369640        3
    43         4.4303023        1       152         1.6408388        3
    44         4.8089526        1       153         2.0904118        3
    45         4.8132334        1       154         2.2198126        3
    46         5.3677108        1       155         2.2486781        3
    47         5.8483182        1       156         2.2513261        3
    48         6.1244660        1       157         2.5210014        3
    49         6.1654282        1       158         2.6195157        3
    50         6.2529091        1       159         3.5167477        3
    51         6.4628642        1       160         3.9844873        3
    52         6.5138448        1       161         4.1289890        3
    53         7.1982081        1       162         4.1636030        3
    54         8.1946185        1       163         4.6488367        3
    55         9.6837185        1       164         5.1505924        3
    56        10.6350874        1       165         5.4083151        3
    57        10.7309325        1       166         5.9319786        3
    58        10.9908410        1       167         6.1851077        3
    59        11.2617042        1       168         6.3796216        3
    60        12.0336448        1       169         6.9128716        3
    61        12.7466742        1       170         7.5479185        3
    62        12.7907750        1       171         9.8979778        3
    63        13.8080738        1       172        10.7560736        3
    64        17.4549620        1       173        11.0142938        3
    65        20.1064101        1       174        11.8752380        3
    66        26.3050207        1       175        12.5402130        3
    67        27.1854524        1       176        13.0875672        3
    68        34.3346128        1       177        18.8263078        3
    69        35.8527929        1       178        26.6883913        3
    70        47.0749343        1       179        33.5607612        3
    71        47.6867388        1       180        47.2583081        3
    72        63.8684789        1       181        66.3895189        3
    73        67.3080141        1       182        98.5432499        3
    74        98.5566542        1       183        98.5730713        3
    75        98.5896487        1       184       103.2955838        3
    76       103.3060922        1       185       103.3470862        3
    77       103.3493841        1       186       115.1853026        3
    78       115.0011085        1       187       116.8437543        3
    79       115.4547651        1       188       198.6508306        3
    80       117.4752307        1       189       224.8592749        3
    81       122.0642398        1       190       395.3393823        3
    82       198.5513859        1       191         0.2241750        4
    83       198.8745684        1       192         0.5480761        4
    84       216.3999401        1       193         0.7478998        4
    85       225.5732634        1       194         0.8699850        4
    86       395.8758384        1       195         1.5710238        4
    87       508.7379041        1       196         1.7047321        4
    88       895.2274507        1       197         2.0794541        4
    89         0.0205731        2       198         2.1422464        4
    90         0.0858879        2       199         2.3056066        4
    91         0.1750214        2       200         2.7350174        4
    92         0.2928220        2       201         3.7020414        4
    93         0.4005573        2       202         4.2192375        4
    94         0.6246256        2       203         4.2740013        4
    95         0.7375898        2       204         4.8132334        4
    96         0.7871539        2       205         5.8483182        4
    97         0.8964437        2       206         6.1654282        4
    98         1.0324429        2       207         6.4628642        4
    99         1.4260845        2       208         6.5138448        4
   100         1.5369640        2       209        10.6350874        4
   101         1.6408388        2       210        10.9908410        4
   102         2.0904118        2       211        12.0336448        4
   103         2.2198126        2       212        12.7466742        4
   104         2.2486781        2       213        26.3050207        4
   105         2.2513261        2       214        47.0749343        4
   106         2.5210014        2       215        98.5566542        4
   107         2.6195157        2       216       103.3060922        4
   108         3.5167477        2       217       115.0011085        4
   109         3.9844873        2       218       198.5513859        4
------------------------------------------------------------------------
  -20.6576062907379       -11.4873693432036       -1.33262640787365     
 -0.795661585614524      -0.555517319374280      -0.528240241040238     
 -0.528240241040242       6.259624841155903E-002  6.837302531310195E-002
  0.157404282585780       0.220475464312544       0.224174985994536     
  0.299649668876098       0.353903965439299       0.459081699838856     
  0.512085749912265       0.548076124142526       0.722526744656209     
  0.747899842448341       0.825185077301072       0.869985034720986     
  0.870053541339951        1.12380954561514        1.38921949387997     
   1.57102380820038        1.61948925572649        1.70473210952988     
   1.89763092616943        1.99371977826029        2.07945408566884     
   2.14224637522905        2.25489499079997        2.30560655638575     
   2.47343516595391        2.60033988733006        2.73501742160460     
   3.14267074515041        3.70204144074653        3.90487086931836     
   4.19316451350758        4.21923748048841        4.27400130567379     
   4.43030226967392        4.80895262387792        4.81323344984420     
   5.36771082280094        5.84831816534475        6.12446598684621     
   6.16542824827224        6.25290910183382        6.46286417609688     
   6.51384482147872        7.19820813628724        8.19461846238706     
   9.68371848636119        10.6350874010088        10.7309325403687     
   10.9908409890313        11.2617041638897        12.0336448484979     
   12.7466742142856        12.7907749557182        13.8080738379155     
[...]
 Convergence information after    14 iterations: 
 Largest element of residual vector :  0.14298281E-05.
 Largest element of DIIS residual   :  0.99027027E-06.
 Convergence information after    15 iterations: 
 Largest element of residual vector :  0.90073926E-06.
 Largest element of DIIS residual   :  0.71348553E-06.
 Convergence information after    16 iterations: 
 Largest element of residual vector :  0.51783721E-06.
 Largest element of DIIS residual   :  0.21530706E-06.
 Convergence information after    17 iterations: 
 Largest element of residual vector :  0.22268861E-06.
 Largest element of DIIS residual   :  0.75304685E-07.
 Perturbed amplitude equations converged in    17 iterations.
  Dominant contributions to perturbed wavefunction:
    7    7  140   28   0.2405641447 ABAB
    7    7   28  140   0.2405641447 ABAB
    7    7  140   39  -0.2222195055 ABAB
    7    7   39  140  -0.2222195055 ABAB
    7    7  140   22  -0.1834889709 ABAB
    7    7   22  140  -0.1834889709 ABAB
    7    7  140   44   0.1746889967 ABAB
    7    7   44  140   0.1746889967 ABAB
    7    7  140   54  -0.1665790820 ABAB
    7    7   54  140  -0.1665790820 ABAB
    7    6   28   89   0.1515391430 ABAB
    6    7   89   28   0.1515391430 ABAB
    7    7  140   57   0.1434197281 ABAB
    7    7   57  140   0.1434197281 ABAB
    7    7  140   29  -0.1418050423 ABAB
    7    7   29  140  -0.1418050423 ABAB
    7    6   39   89  -0.1407871362 ABAB
    6    7   89   39  -0.1407871362 ABAB
    7    7  140   24   0.1331081417 ABAB
    7    7   24  140   0.1331081417 ABAB
  norm of converged amps    1.82235322946494     
 Starting iterative solution of the perturbed Lambda equations.
 The DIIS procedure is used to accelerate convergence.
 Convergence criterion is 10**(-7).
 Maximum number of iterations is 100.
 Convergence information after     1 iterations: 
 Largest element of residual vector :  0.69518740E-01.
 Largest element of DIIS residual   :  0.69518740E-01.
 Convergence information after     2 iterations: 
 Largest element of residual vector : -0.12564997E-01.
 Largest element of DIIS residual   :  0.87873422E-02.
 Convergence information after     3 iterations: 
 Largest element of residual vector : -0.61853631E-02.
 Largest element of DIIS residual   : -0.57363792E-02.
 Convergence information after     4 iterations: 
 Largest element of residual vector : -0.38294521E-02.
 Largest element of DIIS residual   : -0.33835570E-02.
 Convergence information after     5 iterations: 
 Largest element of residual vector : -0.29400184E-02.
 Largest element of DIIS residual   : -0.19805210E-02.
 Convergence information after     6 iterations: 
 Largest element of residual vector : -0.13056534E-02.
 Largest element of DIIS residual   : -0.57255362E-03.
 Convergence information after     7 iterations: 
 Largest element of residual vector : -0.57153590E-03.
 Largest element of DIIS residual   : -0.22814984E-03.
 Convergence information after     8 iterations: 
 Largest element of residual vector : -0.14883326E-03.
 Largest element of DIIS residual   : -0.10041044E-03.
 Convergence information after     9 iterations: 
 Largest element of residual vector : -0.59163488E-04.
 Largest element of DIIS residual   : -0.22504836E-04.
 Convergence information after    10 iterations: 
 Largest element of residual vector : -0.18564976E-04.
 Largest element of DIIS residual   : -0.84250923E-05.
 Convergence information after    11 iterations: 
 Largest element of residual vector : -0.38956977E-05.
 Largest element of DIIS residual   : -0.30234450E-05.
 Convergence information after    12 iterations: 
 Largest element of residual vector : -0.21504477E-05.
 Largest element of DIIS residual   : -0.15696625E-05.
 Convergence information after    13 iterations: 
 Largest element of residual vector :  0.12919137E-05.
 Largest element of DIIS residual   :  0.13563729E-05.
 Convergence information after    14 iterations: 
 Largest element of residual vector :  0.98674949E-06.
 Largest element of DIIS residual   :  0.78469461E-06.
 Convergence information after    15 iterations: 
 Largest element of residual vector :  0.68887902E-06.
 Largest element of DIIS residual   :  0.55395750E-06.
 Convergence information after    16 iterations: 
 Largest element of residual vector :  0.39635578E-06.
 Largest element of DIIS residual   :  0.20973868E-06.
 Convergence information after    17 iterations: 
 Largest element of residual vector :  0.19755128E-06.
 Largest element of DIIS residual   :  0.74763145E-07.
 Perturbed Lambda equations converged in    17 iterations.
  Dominant contributions to perturbed wavefunction:
    7    7  140   28   0.2126651342 ABAB
    7    7   28  140   0.2126651342 ABAB
    7    7  140   39  -0.1933833146 ABAB
    7    7   39  140  -0.1933833146 ABAB
    7    7  140   22  -0.1607491616 ABAB
    7    7   22  140  -0.1607491616 ABAB
    7    7  140   44   0.1524801569 ABAB
    7    7   44  140   0.1524801569 ABAB
    7    7  140   54  -0.1478252415 ABAB
    7    7   54  140  -0.1478252415 ABAB
    7    6   28   89   0.1316667497 ABAB
    6    7   89   28   0.1316667497 ABAB
    7    7  140   57   0.1242232859 ABAB
    7    7   57  140   0.1242232859 ABAB
    7    7  140   29  -0.1216814226 ABAB
    7    7   29  140  -0.1216814226 ABAB
    7    6   39   89  -0.1205276565 ABAB
    6    7   89   39  -0.1205276565 ABAB
    7    7  140   24   0.1128318342 ABAB
    7    7   24  140   0.1128318342 ABAB
        The DBOC first-order density matrix is being calculated 
             (Symmetry block 3, perturbation   2)
 term   3.62384931602799     
 final tnorm  0.833850734531473     
  norm contr. I: |<0|L dT/dx|0>|^2   0.000000000000000E+000
  norm contr. II: <0|[nabla(1+L)e-T][nabla e^T]|0>   3.62384931602799     
  total norm contribution   3.62384931602799     
 oo  8.089568798302898E-003
 vv  -27.1504648320299     
 vo  7.237905684146129E-002
  Correlated perturbed 1-el contribution to DBOC  -27.0699962063902       cm**-1
  SUM_I |dc_I/dx|^2 contribution to DBOC   13.6427403358712       cm**-1
 
 
  The total diagonal Born-Oppenheimer correction (DBOC) is:      0.0041399044 a.u.
  The total diagonal Born-Oppenheimer correction (DBOC) is:        908.603995 cm-1
 
 Total CC energy including DBOC  -113.151111659482     
 First-order density matrix is being calculated  (Symmetry block 3, perturbation   2)
 Calculation of the contributions of <pq||rs> to dI(i,j)/dx required   1.4 seconds.
 Calculation of the contributions of <pq||rs> to dI(a,b)/dx required  12.9 seconds.
 Calculation of the contributions of <pq||rs> to dI(i,a)/dx required   8.7 seconds.
 First-order Z-vector equations are solved for 1 perturbation.
 Convergence reached after  22 iterations.
        U*G(pq,rs) contribution is being calculated
             (Symmetry block 3, perturbation   2)

 CCSD contribution to force constants 

        0.0000000000        0.0000000000        0.0000000000
        0.0000000000        0.0000000000        0.0000000000
        0.0000000000        0.0000000000        0.0000000000
        0.0000000000        0.0000000000        0.0000000000
        0.0000000000        0.0000000000        0.0000000000
        0.0000000000        0.0000000000        0.0000000000
        0.0000000000        0.0000000000        0.0000000000
        0.0000000000        0.0000000000        0.0000000000
        0.0000000000        0.0000000000        0.0000000000
        0.0000000000        0.0000000000        0.0000000000
        0.0000000000        0.0000000000        0.0000000000
        0.0000000000       -0.9602027970        0.9602027970

 CCSD contribution to dipole derivatives 

        0.0000000000        0.0000000000        0.0000000000
        0.0000000000        0.0000000000        0.0000000000
        0.0000000000        0.0000000000        0.0000000000
        0.0000000000        0.0000000000       -0.0556541636
        0.0000000000        0.0000000000        0.0000000000
        0.0000000000        0.0000000000        0.0000000000
 @CHECKOUT-I, Total execution time (CPU/WALL):      967.33/     204.49 seconds.
--executable xsdcc finished with status     0 in      204.53 seconds (walltime).
 --invoking executable--
/nfs/workspaces/public/cfour_mpi/bin/xanti
 @GETMEM-I,  Allocated    3814 MB of main memory.
 CCSD MO derivative gammas will be sorted to Mulliken order.
 @CHECKOUT-I, Total execution time (CPU/WALL):        9.81/      24.55 seconds.
--executable xanti finished with status     0 in       24.58 seconds (walltime).
 --invoking executable--
/nfs/workspaces/public/cfour_mpi/bin/xbcktrn
 @GETMEM-I,  Allocated    3814 MB of main memory.
 CCSD MO derivative gammas will be transformed to the AO basis.
 @CHECKOUT-I, Total execution time (CPU/WALL):       17.02/       2.96 seconds.
--executable xbcktrn finished with status     0 in        2.99 seconds (walltime).
 --invoking executable--
/nfs/workspaces/public/cfour_mpi/bin/xvdint
 @GETMEM-I,  Allocated    3814 MB of main memory.
 One- and two-electron integral derivatives are calculated
 for RHF-CC/MBPT hessians and dipole derivatives.
 Spherical gaussians are used.
  magnet F F
                    8722  records have been written to the Sort file.
  Total length of Sort file :             178609116  words.
 Evaluation of 2el integral derivatives

                      Two-electron integral gradient
                      ------------------------------

                         C #1 z     0.0000000000
                         O #2 z     0.0000000000


 C #1       0.0000000000           -0.0036197750            0.0000000000
 O #2       0.0000000000            0.0036197750            0.0000000000


 Evaluation of 2e integral derivatives required  252.71 seconds.
  contribution to Hessian
        0.0000000000        0.0000000000        0.0000000000
        0.0000000000       -0.0036197750        0.0036197750
 @CHECKOUT-I, Total execution time (CPU/WALL):      252.70/      56.35 seconds.
--executable xvdint finished with status     0 in       56.37 seconds (walltime).
 --invoking executable--
/nfs/workspaces/public/cfour_mpi/bin/xanti
 @GETMEM-I,  Allocated    3814 MB of main memory.
 CCSD MO gammas will be sorted to Mulliken order.
 @CHECKOUT-I, Total execution time (CPU/WALL):       10.29/       8.86 seconds.
--executable xanti finished with status     0 in        8.89 seconds (walltime).
 --invoking executable--
/nfs/workspaces/public/cfour_mpi/bin/xbcktrn
 @GETMEM-I,  Allocated    3814 MB of main memory.
 CCSD MO gammas will be transformed to the AO basis.
 @CHECKOUT-I, Total execution time (CPU/WALL):       22.97/       3.66 seconds.
--executable xbcktrn finished with status     0 in        3.69 seconds (walltime).
 --invoking executable--
/nfs/workspaces/public/cfour_mpi/bin/xvdint
 @GETMEM-I,  Allocated    3814 MB of main memory.
 One- and two-electron integral derivatives are calculated
 for RHF-CC/MBPT hessians and dipole derivatives.
 Spherical gaussians are used.
  magnet F F

                     Kinetic energy integral gradient
                     --------------------------------

                         C #1 z    -0.7192463285
                         O #2 z     0.7192463285


 C #1       0.0000000000            0.0000000000           -0.7192463285
 O #2       0.0000000000            0.0000000000            0.7192463285



                   Nuclear attraction integral gradient
                   ------------------------------------

                         C #1 z    15.9948791485
                         O #2 z   -15.9948791485


 C #1       0.0000000000            0.0000000000           15.9948791485
 O #2       0.0000000000            0.0000000000          -15.9948791485



                      Reorthonormalization gradient
                      -----------------------------

                         C #1 z     0.0000000000
                         O #2 z     0.0000000000


 C #1       0.0000000000            0.0000000000            0.0000000000
 O #2       0.0000000000            0.0000000000            0.0000000000



                     Kinetic energy integral Hessian
                     -------------------------------


           Symmetry 1

           C #1 z      O #2 z

 C #1 z    0.737005
 O #2 z   -0.737005    0.737005


           Symmetry 2

           C #1 x      O #2 x

 C #1 x   -0.630404
 O #2 x    0.630404   -0.630404


           Symmetry 3

           C #1 y      O #2 y

 C #1 y   -0.630404
 O #2 y    0.630404   -0.630404




           C #1 x      C #1 y      C #1 z      O #2 x      O #2 y      O #2 z

 C #1 x   -0.630404
 C #1 y    0.000000   -0.630404
 C #1 z    0.000000    0.000000    0.737005

 O #2 x    0.630404    0.000000    0.000000   -0.630404
 O #2 y    0.000000    0.630404    0.000000    0.000000   -0.630404
 O #2 z    0.000000    0.000000   -0.737005    0.000000    0.000000    0.737005




                   Nuclear attraction integral Hessian
                   -----------------------------------


           Symmetry 1

           C #1 z      O #2 z

 C #1 z   -9.896783
 O #2 z    9.896783   -9.896783


           Symmetry 2

           C #1 x      O #2 x

 C #1 x    9.752017
 O #2 x   -9.752017    9.752017


           Symmetry 3

           C #1 y      O #2 y

 C #1 y    9.752017
 O #2 y   -9.752017    9.752017




           C #1 x      C #1 y      C #1 z      O #2 x      O #2 y      O #2 z

 C #1 x    9.752017
 C #1 y    0.000000    9.752017
 C #1 z    0.000000    0.000000   -9.896783

 O #2 x   -9.752017    0.000000    0.000000    9.752017
 O #2 y    0.000000   -9.752017    0.000000    0.000000    9.752017
 O #2 z    0.000000    0.000000    9.896783    0.000000    0.000000   -9.896783




                Highest order reorthonormalization Hessian
                ------------------------------------------


           Symmetry 1

           C #1 z      O #2 z

 C #1 z    0.000000
 O #2 z    0.000000    0.000000


           Symmetry 2

           C #1 x      O #2 x

 C #1 x    0.000000
 O #2 x    0.000000    0.000000


           Symmetry 3

           C #1 y      O #2 y

 C #1 y    0.000000
 O #2 y    0.000000    0.000000




           C #1 x      C #1 y      C #1 z      O #2 x      O #2 y      O #2 z




                Electronic contributions to dipole moment
                -----------------------------------------

                               au             Debye

                    z      0.34370788      0.87361844

  Conversion factor used: 1 a.u. =   2.54174691 Debye 



   Electronic contributions to static part of dipole moment derivatives
   --------------------------------------------------------------------


                     Total dipole moment derivatives
                     -------------------------------


           Symmetry 1
                              Ez

               C #1 z    -5.64634175
               O #2 z    -8.35365825

           Symmetry 2
                              Ex

               C #1 x    -5.67385698
               O #2 x    -8.32614302

           Symmetry 3
                              Ey

               C #1 y    -5.67385698
               O #2 y    -8.32614302



                       Ex          Ey          Ez

      C #1    x   -5.673857    0.000000    0.000000
      C #1    y    0.000000   -5.673857    0.000000
      C #1    z    0.000000    0.000000   -5.646342

      O #2    x   -8.326143    0.000000    0.000000
      O #2    y    0.000000   -8.326143    0.000000
      O #2    z    0.000000    0.000000   -8.353658

 Evaluation of 1e integral derivatives required    1.64 seconds.
                    8815  records have been written to the Sort file.
  Total length of Sort file :             180513570  words.
 Evaluation of 2el integral derivatives

                      Two-electron integral gradient
                      ------------------------------

                         C #1 z    -8.3060696485
                         O #2 z     8.3060696485


 C #1       0.0000000000            0.0000000000           -8.3060696485
 O #2       0.0000000000            0.0000000000            8.3060696485


 Evaluation of 2e integral derivatives required  536.57 seconds.

                            Molecular gradient
                            ------------------

                         C #1 z     0.6518692376
                         O #2 z    -0.6518692376


 C #1       0.0000000000            0.0000000000            0.6518692376
 O #2       0.0000000000            0.0000000000           -0.6518692376


  Molecular gradient norm 0.922E+00

                            Molecular hessian
                            -----------------


           Symmetry 1

           C #1 z      O #2 z

 C #1 z   25.663679
 O #2 z  -25.663679   25.663679


           Symmetry 2

           C #1 x      O #2 x

 C #1 x    1.241389
 O #2 x   -1.241389    1.241389


           Symmetry 3

           C #1 y      O #2 y

 C #1 y    1.241389
 O #2 y   -1.241389    1.241389




           C #1 x      C #1 y      C #1 z      O #2 x      O #2 y      O #2 z

 C #1 x    1.241389
 C #1 y    0.000000    1.241389
 C #1 z    0.000000    0.000000   25.663679

 O #2 x   -1.241389    0.000000    0.000000    1.241389
 O #2 y    0.000000   -1.241389    0.000000    0.000000    1.241389
 O #2 z    0.000000    0.000000  -25.663679    0.000000    0.000000   25.663679




                           Total dipole moment
                           -------------------

                               au             Debye

                    z      0.34070363      0.86598240

  Conversion factor used: 1 a.u. =   2.54174691 Debye 



                     Total dipole moment derivatives
                     -------------------------------


           Symmetry 1
                              Ez

               C #1 z     0.64444390
               O #2 z    -0.64444390

           Symmetry 2
                              Ex

               C #1 x     0.12855372
               O #2 x    -0.12855372

           Symmetry 3
                              Ey

               C #1 y     0.12855372
               O #2 y    -0.12855372



                       Ex          Ey          Ez

      C #1    x    0.128554    0.000000    0.000000
      C #1    y    0.000000    0.128554    0.000000
      C #1    z    0.000000    0.000000    0.644444

      O #2    x   -0.128554    0.000000    0.000000
      O #2    y    0.000000   -0.128554    0.000000
      O #2    z    0.000000    0.000000   -0.644444

 @CHECKOUT-I, Total execution time (CPU/WALL):      538.20/      93.88 seconds.
--executable xvdint finished with status     0 in       93.91 seconds (walltime).
 --invoking executable--
/nfs/workspaces/public/cfour_mpi/bin/xjoda
  @GTFLGS-I, Hessian will be transformed to curvilinear coordinates.
  @GTFLGS-I, Hessian will be transformed to curvilinear coordinates.
  igrd and ihes are                      0                     1
  gradient from JOBARC 
   0.000000000000000   0.000000000000000   0.651869237629987
   0.000000000000000   0.000000000000000  -0.651869237629987
 
  @PROJFCM-I, Projecting force constant matrix onto totally symmetric subspace.
  Largest difference between matrix elements of symmetrized
  and unsymmetrized FCM :     0.2057243265E-11.
  read isotopes from ZMAT file 
 
  Summary of diagonal Born-Oppenheimer correction at the correlated level
  The total diagonal Born-Oppenheimer correction (DBOC) is:      0.0041399044 a.u.
  The total diagonal Born-Oppenheimer correction (DBOC) is:        908.603995 cm-1
  The total diagonal Born-Oppenheimer correction (DBOC) is:            10.869 kJ/mole
  hellooooooo 
  readis is  F
 
 @CHECKOUT-I, Total execution time (CPU/WALL):        0.01/       0.01 seconds.
--executable xjoda finished with status     0 in        0.03 seconds (walltime).
  The final electronic energy is      -113.151111659482154 a.u. 
  This computation required                         2119.54 seconds (walltime).
