 --invoking executable--
/nfs/workspaces/public/cfour_mpi/bin/xjoda


   *************************************************************************
         <<<     CCCCCC     CCCCCC   |||     CCCCCC     CCCCCC   >>>
       <<<      CCC        CCC       |||    CCC        CCC         >>>
      <<<      CCC        CCC        |||   CCC        CCC            >>>
    <<<        CCC        CCC        |||   CCC        CCC              >>>
      <<<      CCC        CCC        |||   CCC        CCC            >>>
       <<<      CCC        CCC       |||    CCC        CCC         >>>
         <<<     CCCCCC     CCCCCC   |||     CCCCCC     CCCCCC   >>>
   *************************************************************************

     ****************************************************************
     * CFOUR Coupled-Cluster techniques for Computational Chemistry *
     ****************************************************************
 

   Department of Chemistry                Institut fuer Physikalische Chemie
   University of Florida                  Universitaet Mainz
   Gainesville, FL 32611, USA             D-55099 Mainz, Germany

   Department of Chemistry                Fakultaet fuer Chemie und Biowiss.
   Johns Hopkins University               Karlsruher Institut fuer Technologie
   Baltimore, MD 21218, USA               D-76131 Karlsruhe, Germany

   Department of Chemistry                Department of Physical Chemistry
   Southern Methodist University          Eotvos Lorand University
   Dallas, TX 75275, USA                  H-1053 Budapest, Hungary

 
                       Version 2.1
 
                     vincent.theory.phys.ucl.ac.uk                     
                     Tue 25 Feb 08:00:54 GMT 2025                      
                     integer*8 version is running
 
********************************************************************************
*                          Input from ZMAT file                                *
********************************************************************************
Carbon Monoxide DBOC calculation                                                
C                                                                               
O 1 r                                                                           
                                                                                
r=1.303448275862069                                                             
                                                                                
                                                                                
*CFOUR(CALC=CCSD,BASIS=AUG-PCVQZ,SCF_CONV=10                                    
CC_CONV=14,DBOC=ON,MEMORY=500000000                                             
ZFIELD=200)                                                                     
                                                                                
%isotopes                                                                       
12                                                                              
16                                                                              
********************************************************************************
  @GTFLGS-I, Hessian will be transformed to curvilinear coordinates.
    -------------------------------------------------------------------
                    CFOUR Control Parameters 
    -------------------------------------------------------------------
        External           Internal           Value            Units
          Name               Name
    -------------------------------------------------------------------
       ABCDTYPE             IABCDT         STANDARD    [  0]    ***   
       ANHARMONIC           IANHAR         OFF         [  0]    ***   
       ANH_ALGORIT          IANALG         STANDARD    [  0]    ***   
       ANH_DERIVAT          IANDER         SECOND      [  1]    ***   
       ANH_MODE             ANHMOD         VIBRATION   [  0]    ***   
       ANH_STEPSIZ          ICUBST             50000          x 10-6  
       ANH_SYMMETR          IANHSM         ABELIAN     [  0]    ***   
       AO_LADDERS           IAOLAD         SINGLEPASS  [  1]    ***   
       AV_SCF               IAVSCF         OFF         [  0]    ***   
       BASIS                IBASIS         AUG-PCVQZ   [ 52]    ***   
       BOTHVECTORS          BOTHVC         OFF         [  0]    ***   
       BOX_POTENT           IPIAB          OFF         [  0]    ***   
       BREIT                IBREIT         OFF         [  0]    ***   
       BRUCK_CONV           IBRTOL          10D-  4             ***   
       BRUECKNER            IBRKNR         OFF         [  0]    ***   
       BUFFERSIZE           IBUFFS              4096            ***   
       CACHE_RECS           ICHREC             10               ***   
       CALCLEVEL            ICLLVL         CCSD        [ 10]    ***   
       CCORBOPT             ICCORB         OFF         [  0]  x 0.01  
       CC_CONV              ICCCNV          10D- 14             ***   
       CC_EXPORDER          ICCEOR              5               ***   
       CC_EXTRAPOL          ICCEXT         DIIS        [  1]    ***   
       CC_GUESS             ICCGES         MP2         [  0]    ***   
       CC_MAXCYC            ICCCYC            100              cycles 
       CC_PROGRAM           ICCPRO         VCC         [  0]    ***   
       CHARGE               ICHRGE              0               ***   
       CHOLESKY             ICHOLE         OFF         [  0]    ***   
       CIS_CONV             ICISTL              5               ***   
       COMM_SIZE            IPSIZE            ***               ***   
       CONSTANT             ICONST         OLD         [  1]    ***   
       CONTINUUM            ICONTU         NONE        [  0]    ***   
       CONTRACTION          ICNTYP         GENERAL     [  1]    ***   
       COORDINATES          ICOORD         INTERNAL    [  0]    ***   
       CPHF_CONVER          ICPHFT          10D- 16             ***   
       CPHF_MAXCYC          ICPHFC             64              cycles 
       CUBIC                ICUBIC         OFF         [  0]    ***   
       CURVILINEAR          ICURVY         ON          [  1]    ***   
       DBOC                 IDBOC          ON          [  1]    ***   
       DCT                  IDCT           OFF         [  0]    ***   
       DERIV_LEV            IDRLVL         SECOND      [  2]    ***   
       DEVMEM_SIZE          IDVMEM          50000000           MByte  
       DIAG_MRCC            IEOMST          10D-  0             ***   
       DIFF_TYPE            IDIFTY         RELAXED     [  0]    ***   
       DIRECT               IDIRCT         OFF         [  0]    ***   
       DROPMO               IDRPMO      NONE         
       ECP                  IECP           OFF         [  0]    ***   
       EIGENVECTOR          IVEC                1               ***   
       EL_ANHARM            IELANH         OFF         [  0]    ***   
       EOMFOLLOW            IEOMSR         ENERGY      [  0]    ***   
       EOMIP                IEOMIP         OFF         [  0]    ***   
       EOMLEVEL             HBARFM         SAME        [  0]    ***   
       EOM_MRCC             IMRCCE         NEW         [  1]    ***   
       EOM_NONIT            EOMNON         OFF         [  0]    ***   
       EOM_NSING            IEOMSI          10D-  0             ***   
       EOM_NSTATES          IMRCCD         DAVIDSON    [  0]    ***   
       EOM_NTRIP            IEOMTR          10D-  0             ***   
       EOM_ORDER            IEXORD         ENERGY      [  0]    ***   
       EOM_PROPSTA          IEOMST              0               ***   
       ESTATE_CONV          IEXTOL          10D-  5             ***   
       ESTATE_DIAG          IEXDIG         ITERATIVE   [  0]    ***   
       ESTATE_LOCK          IESLOC         ON          [  1]    ***   
       ESTATE_MAXC          IEXMXC             40               ***   
       ESTATE_PROP          IEXPRP         OFF         [  0]    ***   
       EVAL_HESS            IRECAL              0            # of cyc.
       EXCITATION           IEXCIT              0               ***   
       EXCITE               IEXCIT         NONE        [  0]    ***   
       EXTERN_POT           IEXPOT         OFF         [  0]    ***   
       FCGRADNEW            IFCGNW         OFF         [  0]    ***   
       FC_FIELD             IFINFC              0             x 10-6  
       FD_CALTYPE           IFDCAL         GRADONLY    [  0]    ***   
       FD_PROJECT           IFDPRJ         OFF         [  1]    ***   
       FD_STEPSIZE          IDISFD              0            10-4 bohr
       FD_USEGROUP          IFDGRP         FULL        [  0]    ***   
       FILE_RECSIZ          IFLREC              4096           words  
       FINITE_PERT          IFIPER              0             x 10-6  
       FIXGEOM              IFIXGM         OFF         [  0]    ***   
       FOCK                 IFOCK          AO          [  1]    ***   
       FREQ_ALGORI          IVIALG         STANDARD    [  0]    ***   
       FROZEN_CORE          IFROCO         OFF         [  0]    ***   
       GAMMA_ABCD           IGABCD         STORE       [  0]    ***   
       GAMMA_ABCI           IGABCI         STORE       [  0]    ***   
       GENBAS_1             IGNBS1              0               ***   
       GENBAS_2             IGNBS2              0               ***   
       GENBAS_3             IGNBS3              0               ***   
       GENBAS_4             IGNBS4              0               ***   
       GEO_CONV             ICONTL              5              H/bohr 
       GEO_MAXCYC           IOPTCY             50               ***   
       GEO_MAXSTEP          IMXSTP            300            millibohr
       GEO_METHOD           INR            SINGLE_POINT[  5]    ***   
       GIAO                 IGIAO          OFF         [  1]    ***   
       GIMIC                IGIMIC         OFF         [  0]    ***   
       GRID                 IGRID          OFF         [  0]    ***   
       GRID_ALGO            IGALGO         SERIAL      [  0]    ***   
       GUESS                IGUESS         MOREAD      [  0]    ***   
       HBAR                 IHBAR          OFF         [  0]    ***   
       HESS_TYPE            IHESTP         SCF         [  0]    ***   
       HF2_FILE             IHF2Fl         USE         [  1]    ***   
       HFSTABILITY          ISTABL         OFF         [  0]    ***   
       INCORE               INCORE         OFF         [  0]    ***   
       INPUT_MRCC           IMRCC          ON          [  1]    ***   
       INTEGRALS            INTTYP         VMOL        [  1]    ***   
       JODA_PRINT           IJPRNT              0               ***   
       KEYWORD_OUT          IDMPKW         NO          [  0]    ***   
       LINDEP_TOL           ILINDP              8               ***   
       LINEQ_CONV           IZTACN          10D-  7           cycles  
       LINEQ_EXPOR          ILMAXD              5               ***   
       LINEQ_MAXCY          ILMAXC            100               ***   
       LINEQ_TYPE           ILTYPE         DIIS        [  1]    ***   
       LOCK_ORBOCC          ILOCOC         OFF         [  0]    ***   
       MEMORY_SIZE          IMEMSZ         500000000           words  
       MEM_UNIT             IMEMU          INTEGERWORDS[  0]    ***   
       MRCC                 IMRCCC         OFF         [  0]    ***   
       MULTIPLICTY          IMULTP              1               ***   
       NACOUPLING           IVCOUP         OFF         [  0]    ***   
       NEGEVAL              IDIE           ABORT       [  0]    ***   
       NEWNORM              INEWNO         OFF         [  0]    ***   
       NON-HF               INONHF         OFF         [  0]    ***   
       NTOP_TAMP            ITOPT2             15               ***   
       NUC_MODEL            INUCMO         POINT       [  0]    ***   
       OCCUPATION           IOCCU   ESTIMATED BY SCF 
       OPEN-SHELL           IOPEN          SPIN-ORBITAL[  0]    ***   
       OPTVIB               IOPTVB         OFF         [  0]    ***   
       ORBITALS             IORBTP         STANDARD    [  0]    ***   
       PARALLEL             IPARAL         ON          [  1]    ***   
       PARA_INT             IPINTS         ON          [  1]    ***   
       PARA_PRINT           IPPRIN              0               ***   
       PERT_ORB             IPTORB         STANDARD    [  0]    ***   
       POINTS               IGRDFD              0               ***   
       PRINT                IPRNT               0               ***   
       PROPS                IPROPS         OFF         [  0]    ***   
       PROP_INTEGR          IINTYP         INTERNAL    [  0]    ***   
       PSI                  IPSI           OFF         [  0]    ***   
       QC_ALG               IQCALG         FLM         [  0]    ***   
       QC_LINALG            IQCLIN         TRIDIAG     [  2]    ***   
       QC_MAXCYC            IQCMAX          10D-100           cycles  
       QC_MAXSCFCY          IQCMSC          10D- 15           cycles  
       QC_RTRUST            IQCRTR          10D-  0           x 10-3  
       QC_SKIPSCF           IQCSKI         OFF         [  0]    ***   
       QC_START             IQCSTA          10D-  1             ***   
       QRHFGUESS            IQGUES         OFF         [  0]    ***   
       QUARTIC              IQUART         OFF         [  0]    ***   
       RAMAN_INT            IRAMIN         OFF         [  0]    ***   
       RAMAN_ORB            IRAMRE         UNRELAXED   [  0]    ***   
       RDO                  IRDOFM         ON          [  1]    ***   
       REDUCE_REPR          REDREP         Ir          [  0]    ***   
       REFERENCE            IREFNC         RHF         [  0]    ***   
       RELATIVIST           IRELAT         OFF         [  0]    ***   
       RELAX_DENS           IRDENS         ON          [  1]    ***   
       RESET_FLAGS          IRESET         OFF         [  0]    ***   
       RESTART_CC           ICCRES         OFF         [  0]    ***   
       ROT_EVEC             ROTVEC              0               ***   
       SAVE_INTS            ISVINT         OFF         [  0]    ***   
       SCALE_ON             ISTCRT              0               ***   
       SCF_CONV             ISCFCV          10D- 10             ***   
       SCF_DAMPING          IDAMP               0             x 10-3  
       SCF_EXPORDE          IRPPOR              6               ***   
       SCF_EXPSTAR          IRPPLS              8               ***   
       SCF_EXTRAPO          IRPP           ON          [  1]    ***   
       SCF_MAXCYC           ISCFCY            150              cycles 
       SCF_NOSTOP           ISCFST         OFF         [  0]    ***   
       SCF_PRINT            ISCFPR              0               ***   
       SCF_PROG             ISCFPR         SCF         [  0]    ***   
       SD_FIELD             IFINSD              0             x 10-6  
       SOPERT               IPERSO         OFF         [  0]    ***   
       SPHERICAL            IDFGHI         ON          [  1]    ***   
       SPINORBIT            ISOCAL         OFF         [  0]    ***   
       SPINROTATIO          ISRCON         OFF         [  0]    ***   
       SPIN_FLIP            ISPFLP         OFF         [  0]    ***   
       SPIN_ORBIT           ISPORB         OFF         [  0]    ***   
       SPIN_SCAL            ISCSMP         OFF         [  0]    ***   
       STEEPSCALE           ISTPSC              1000          x 10-3  
       SUBGROUP             ISUBGP         DEFAULT     [  0]    ***   
       SUBGRPAXIS           ISBXYZ         X           [  0]    ***   
       SYMMETRY             ISYM           ON          [  0]    ***   
       SYM_CHECK            ISYMCK         OVERRIDE    [  1]    ***   
       T3_EXTRAPOL          IT3EXT         OFF         [  0]    ***   
       T4_EXTRAPOL          IT4EXP         OFF         [  0]    ***   
       TAMP_SUM             IEVERY              5               ***   
       TESTSUITE            ITESTS         OFF         [  0]    ***   
       THERMOCH             ITHERM         OFF         [  0]    ***   
       TOL_CHOLESK          ITOLCH          10D-  4             ***   
       TRANGRAD             IRESRM         OFF         [  0]    ***   
       TRANS_INV            ITRAIN         IGNORE      [  1]    ***   
       TREAT_PERT           ITREAT         SIMULTANEOUS[  0]    ***   
       TRIP_ALGORI          ITRALG         NORMAL      [  0]    ***   
       UIJ_THRESHO          IUIJTH              1               ***   
       UNITS                IUNITS         ANGSTROM    [  0]    ***   
       UNOS                 IUNOS          OFF         [  0]    ***   
       UPDATE_HESS          IHUPDT         ON          [  1]    ***   
       VIBPHASE             ISETPH         STANDARD    [  0]    ***   
       VIBRATION            IVIB           ANALYTIC    [  1]    ***   
       VIB_ALGORIT          IGEALG         STANDARD    [  0]    ***   
       VNATORB              IVNORB         OFF         [  0]    ***   
       VTRAN                IVTRAN         FULL/PARTIAL[  0]    ***   
       XFIELD               IXEFLD              0             x 10-6  
       XFORM_TOL            IXFTOL          10D- 11             ***   
       YFIELD               IYEFLD              0             x 10-6  
       ZFIELD               IZEFLD            200             x 10-6  
       ZSCALE_EXP           IZEXPS         OFF         [  0]    ***   
    -------------------------------------------------------------------
   2 entries found in Z-matrix 
   Job Title : Carbon Monoxide DBOC calculation                                                
   There are  1 unique internal coordinates.
   Of these,  0 will be optimized.
   User supplied Z-matrix: 
--------------------------------------------------------------------------------
       SYMBOL    BOND      LENGTH    ANGLE     ANGLE     DIHED     ANGLE
                  TO      (ANGST)    WRT      (DEG)      WRT      (DEG)
--------------------------------------------------------------------------------
        C    
        O          1         r    
                  *Initial values for internal coordinates* 
                      Name             Value
                        r               1.3034482759
--------------------------------------------------------------------------------
  read isotopes from ZMAT file 
   Rotational constants (in cm-1): 
          1.4471879118             1.4471879118
   Rotational constants (in MHz): 
      43385.6082037146         43385.6082037146
********************************************************************************
   The full molecular point group is CXv .
   The largest Abelian subgroup of the full molecular point group is C2v .
   The computational point group is C2v .
********************************************************************************
--------------------------------------------------------------------------------
   Analysis of internal coordinates specified by Z-matrix 
--------------------------------------------------------------------------------
   *The nuclear repulsion energy is   19.487156698412697 a.u.
   *There is   1 degree of freedom within the tot. symm. molecular subspace.
   *Z-matrix requests optimization of   0 coordinates.
   *The optimization is constrained.
   *The following   1 parameters can have non-zero 
    derivatives within the totally symmetric subspace:
             r    [ 1]
   *The following   0 parameters are to be optimized:

   *The following coordinates must be varied in an  unconstrained optimization.
             r    [ 1]
--------------------------------------------------------------------------------


 ----------------------------------------------------------------
         Coordinates used in calculation (QCOMP) 
 ----------------------------------------------------------------
 Z-matrix   Atomic            Coordinates (in bohr)
  Symbol    Number           X              Y              Z
 ----------------------------------------------------------------
     C         6        -0.00000000     0.00000000     1.40732868
     O         8         0.00000000     0.00000000    -1.05583209
 ----------------------------------------------------------------
 
   Interatomic distance matrix (Angstroms) 
 
                 C             O    
                [ 1]        [ 2]
  C    [ 1]     0.00000
  O    [ 2]     1.30345     0.00000
 rotcon2
   Rotational constants (in cm-1): 
          1.4471879118             0.0000000000
   Rotational constants (in MHz): 
      43385.6082037146             0.0000000000
  ECPDATA file not present.   Using default ECPDATA. 
  @GTFLGS-I, Hessian will be transformed to curvilinear coordinates.
  There are  218 basis functions.
 @CHECKOUT-I, Total execution time (CPU/WALL):        0.11/       0.16 seconds.
--executable xjoda finished with status     0 in        0.18 seconds (walltime).
 --invoking executable--
/nfs/workspaces/public/cfour_mpi/bin/xvmol
 SERIAL VERSION OF MOLECULE STARTED
********************************************************************************
                    INPUT FROM MOL FILE
********************************************************************************
INTGRL        1    0    1    0    0    0    0    0    0                         
         *** CFOUR Program System (Release V0.1) ***                            
Carbon Monoxide DBOC calculation                                                
    2    2 X  Y       0.10E-08              0    0                              
   9999.00      3.00                                                            
          6.00000000    1    5    1    1    1    1    1                         
C #1  -0.000000000000000   0.000000000000000   1.407328682378263                
   16    9                                                                      
   33980.0000000000       9.100000000000000E-005 -1.900000000000000E-005        
  0.000000000000000E+000  0.000000000000000E+000  0.000000000000000E+000        
  0.000000000000000E+000  0.000000000000000E+000  0.000000000000000E+000        
  0.000000000000000E+000                                                        
   5089.00000000000       7.040000000000000E-004 -1.510000000000000E-004        
  0.000000000000000E+000  0.000000000000000E+000  0.000000000000000E+000        
  0.000000000000000E+000  0.000000000000000E+000  0.000000000000000E+000        
  0.000000000000000E+000                                                        
   1157.00000000000       3.693000000000000E-003 -7.850000000000000E-004        
  0.000000000000000E+000  0.000000000000000E+000  0.000000000000000E+000        
  0.000000000000000E+000  0.000000000000000E+000  0.000000000000000E+000        
  0.000000000000000E+000                                                        
   326.600000000000       1.536000000000000E-002 -3.324000000000000E-003        
  0.000000000000000E+000  0.000000000000000E+000  0.000000000000000E+000        
  0.000000000000000E+000  0.000000000000000E+000  0.000000000000000E+000        
  0.000000000000000E+000                                                        
   106.100000000000       5.292900000000000E-002 -1.151200000000000E-002        
  0.000000000000000E+000  0.000000000000000E+000  0.000000000000000E+000        
  0.000000000000000E+000  0.000000000000000E+000  0.000000000000000E+000        
  0.000000000000000E+000                                                        
   38.1100000000000       0.147043000000000      -3.416000000000000E-002        
  0.000000000000000E+000  0.000000000000000E+000  0.000000000000000E+000        
  0.000000000000000E+000  0.000000000000000E+000  0.000000000000000E+000        
  0.000000000000000E+000                                                        
   14.7500000000000       0.305631000000000      -7.717300000000001E-002        
  0.000000000000000E+000  0.000000000000000E+000  0.000000000000000E+000        
  0.000000000000000E+000  0.000000000000000E+000  0.000000000000000E+000        
  0.000000000000000E+000                                                        
   6.03500000000000       0.399345000000000      -0.141493000000000             
  0.000000000000000E+000  0.000000000000000E+000  0.000000000000000E+000        
  0.000000000000000E+000  0.000000000000000E+000  0.000000000000000E+000        
  0.000000000000000E+000                                                        
   2.53000000000000       0.217051000000000      -0.118019000000000             
  0.000000000000000E+000  0.000000000000000E+000  0.000000000000000E+000        
  0.000000000000000E+000  0.000000000000000E+000  0.000000000000000E+000        
  0.000000000000000E+000                                                        
  0.735500000000000       1.589400000000000E-002  0.273806000000000             
   1.00000000000000       0.000000000000000E+000  0.000000000000000E+000        
  0.000000000000000E+000  0.000000000000000E+000  0.000000000000000E+000        
  0.000000000000000E+000                                                        
  0.290500000000000      -3.084000000000000E-003  0.586510000000000             
  0.000000000000000E+000   1.00000000000000       0.000000000000000E+000        
  0.000000000000000E+000  0.000000000000000E+000  0.000000000000000E+000        
  0.000000000000000E+000                                                        
  0.111100000000000       9.779999999999999E-004  0.285430000000000             
  0.000000000000000E+000  0.000000000000000E+000   1.00000000000000             
  0.000000000000000E+000  0.000000000000000E+000  0.000000000000000E+000        
  0.000000000000000E+000                                                        
   7.21600000000000       0.000000000000000E+000  0.000000000000000E+000        
  0.000000000000000E+000  0.000000000000000E+000  0.000000000000000E+000        
   1.00000000000000       0.000000000000000E+000  0.000000000000000E+000        
  0.000000000000000E+000                                                        
   19.5700000000000       0.000000000000000E+000  0.000000000000000E+000        
  0.000000000000000E+000  0.000000000000000E+000  0.000000000000000E+000        
  0.000000000000000E+000   1.00000000000000       0.000000000000000E+000        
  0.000000000000000E+000                                                        
   53.0730000000000       0.000000000000000E+000  0.000000000000000E+000        
  0.000000000000000E+000  0.000000000000000E+000  0.000000000000000E+000        
  0.000000000000000E+000  0.000000000000000E+000   1.00000000000000             
  0.000000000000000E+000                                                        
  4.145000000000000E-002  0.000000000000000E+000  0.000000000000000E+000        
  0.000000000000000E+000  0.000000000000000E+000  0.000000000000000E+000        
  0.000000000000000E+000  0.000000000000000E+000  0.000000000000000E+000        
   1.00000000000000                                                             
   10    8                                                                      
   34.5100000000000       5.378000000000000E-003  0.000000000000000E+000        
  0.000000000000000E+000  0.000000000000000E+000  0.000000000000000E+000        
  0.000000000000000E+000  0.000000000000000E+000  0.000000000000000E+000        
   7.91500000000000       3.613200000000000E-002  0.000000000000000E+000        
  0.000000000000000E+000  0.000000000000000E+000  0.000000000000000E+000        
  0.000000000000000E+000  0.000000000000000E+000  0.000000000000000E+000        
   2.36800000000000       0.142493000000000       0.000000000000000E+000        
  0.000000000000000E+000  0.000000000000000E+000  0.000000000000000E+000        
  0.000000000000000E+000  0.000000000000000E+000  0.000000000000000E+000        
  0.813200000000000       0.342150000000000        1.00000000000000             
  0.000000000000000E+000  0.000000000000000E+000  0.000000000000000E+000        
  0.000000000000000E+000  0.000000000000000E+000  0.000000000000000E+000        
  0.289000000000000       0.463864000000000       0.000000000000000E+000        
   1.00000000000000       0.000000000000000E+000  0.000000000000000E+000        
  0.000000000000000E+000  0.000000000000000E+000  0.000000000000000E+000        
  0.100700000000000       0.250028000000000       0.000000000000000E+000        
  0.000000000000000E+000   1.00000000000000       0.000000000000000E+000        
  0.000000000000000E+000  0.000000000000000E+000  0.000000000000000E+000        
   8.18200000000000       0.000000000000000E+000  0.000000000000000E+000        
  0.000000000000000E+000  0.000000000000000E+000   1.00000000000000             
  0.000000000000000E+000  0.000000000000000E+000  0.000000000000000E+000        
   24.1860000000000       0.000000000000000E+000  0.000000000000000E+000        
  0.000000000000000E+000  0.000000000000000E+000  0.000000000000000E+000        
   1.00000000000000       0.000000000000000E+000  0.000000000000000E+000        
   71.4940000000000       0.000000000000000E+000  0.000000000000000E+000        
  0.000000000000000E+000  0.000000000000000E+000  0.000000000000000E+000        
  0.000000000000000E+000   1.00000000000000       0.000000000000000E+000        
  3.218000000000000E-002  0.000000000000000E+000  0.000000000000000E+000        
  0.000000000000000E+000  0.000000000000000E+000  0.000000000000000E+000        
  0.000000000000000E+000  0.000000000000000E+000   1.00000000000000             
    6    6                                                                      
   1.84800000000000        1.00000000000000       0.000000000000000E+000        
  0.000000000000000E+000  0.000000000000000E+000  0.000000000000000E+000        
  0.000000000000000E+000                                                        
  0.649000000000000       0.000000000000000E+000   1.00000000000000             
  0.000000000000000E+000  0.000000000000000E+000  0.000000000000000E+000        
  0.000000000000000E+000                                                        
  0.228000000000000       0.000000000000000E+000  0.000000000000000E+000        
   1.00000000000000       0.000000000000000E+000  0.000000000000000E+000        
  0.000000000000000E+000                                                        
   8.65600000000000       0.000000000000000E+000  0.000000000000000E+000        
  0.000000000000000E+000   1.00000000000000       0.000000000000000E+000        
  0.000000000000000E+000                                                        
   33.2130000000000       0.000000000000000E+000  0.000000000000000E+000        
  0.000000000000000E+000  0.000000000000000E+000   1.00000000000000             
  0.000000000000000E+000                                                        
  7.660000000000000E-002  0.000000000000000E+000  0.000000000000000E+000        
  0.000000000000000E+000  0.000000000000000E+000  0.000000000000000E+000        
   1.00000000000000                                                             
    4    4                                                                      
   1.41900000000000        1.00000000000000       0.000000000000000E+000        
  0.000000000000000E+000  0.000000000000000E+000                                
  0.485000000000000       0.000000000000000E+000   1.00000000000000             
  0.000000000000000E+000  0.000000000000000E+000                                
   24.6940000000000       0.000000000000000E+000  0.000000000000000E+000        
   1.00000000000000       0.000000000000000E+000                                
  0.187000000000000       0.000000000000000E+000  0.000000000000000E+000        
  0.000000000000000E+000   1.00000000000000                                     
    2    2                                                                      
   1.01100000000000        1.00000000000000       0.000000000000000E+000        
  0.424000000000000       0.000000000000000E+000   1.00000000000000             
          8.00000000    1    5    1    1    1    1    1                         
O #2   0.000000000000000   0.000000000000000  -1.055832092836819                
   16    9                                                                      
   61420.0000000000       9.000000000000001E-005 -2.000000000000000E-005        
  0.000000000000000E+000  0.000000000000000E+000  0.000000000000000E+000        
  0.000000000000000E+000  0.000000000000000E+000  0.000000000000000E+000        
  0.000000000000000E+000                                                        
   9199.00000000000       6.980000000000001E-004 -1.590000000000000E-004        
  0.000000000000000E+000  0.000000000000000E+000  0.000000000000000E+000        
  0.000000000000000E+000  0.000000000000000E+000  0.000000000000000E+000        
  0.000000000000000E+000                                                        
   2091.00000000000       3.664000000000000E-003 -8.290000000000000E-004        
  0.000000000000000E+000  0.000000000000000E+000  0.000000000000000E+000        
  0.000000000000000E+000  0.000000000000000E+000  0.000000000000000E+000        
  0.000000000000000E+000                                                        
   590.900000000000       1.521800000000000E-002 -3.508000000000000E-003        
  0.000000000000000E+000  0.000000000000000E+000  0.000000000000000E+000        
  0.000000000000000E+000  0.000000000000000E+000  0.000000000000000E+000        
  0.000000000000000E+000                                                        
   192.300000000000       5.242300000000000E-002 -1.215600000000000E-002        
  0.000000000000000E+000  0.000000000000000E+000  0.000000000000000E+000        
  0.000000000000000E+000  0.000000000000000E+000  0.000000000000000E+000        
  0.000000000000000E+000                                                        
   69.3200000000000       0.145921000000000      -3.626100000000000E-002        
  0.000000000000000E+000  0.000000000000000E+000  0.000000000000000E+000        
  0.000000000000000E+000  0.000000000000000E+000  0.000000000000000E+000        
  0.000000000000000E+000                                                        
   26.9700000000000       0.305258000000000      -8.299200000000000E-002        
  0.000000000000000E+000  0.000000000000000E+000  0.000000000000000E+000        
  0.000000000000000E+000  0.000000000000000E+000  0.000000000000000E+000        
  0.000000000000000E+000                                                        
   11.1000000000000       0.398508000000000      -0.152090000000000             
  0.000000000000000E+000  0.000000000000000E+000  0.000000000000000E+000        
  0.000000000000000E+000  0.000000000000000E+000  0.000000000000000E+000        
  0.000000000000000E+000                                                        
   4.68200000000000       0.216980000000000      -0.115331000000000             
  0.000000000000000E+000  0.000000000000000E+000  0.000000000000000E+000        
  0.000000000000000E+000  0.000000000000000E+000  0.000000000000000E+000        
  0.000000000000000E+000                                                        
   1.42800000000000       1.759400000000000E-002  0.288979000000000             
   1.00000000000000       0.000000000000000E+000  0.000000000000000E+000        
  0.000000000000000E+000  0.000000000000000E+000  0.000000000000000E+000        
  0.000000000000000E+000                                                        
  0.554700000000000      -2.502000000000000E-003  0.586128000000000             
  0.000000000000000E+000   1.00000000000000       0.000000000000000E+000        
  0.000000000000000E+000  0.000000000000000E+000  0.000000000000000E+000        
  0.000000000000000E+000                                                        
  0.206700000000000       9.540000000000000E-004  0.277624000000000             
  0.000000000000000E+000  0.000000000000000E+000   1.00000000000000             
  0.000000000000000E+000  0.000000000000000E+000  0.000000000000000E+000        
  0.000000000000000E+000                                                        
   12.9740000000000       0.000000000000000E+000  0.000000000000000E+000        
  0.000000000000000E+000  0.000000000000000E+000  0.000000000000000E+000        
   1.00000000000000       0.000000000000000E+000  0.000000000000000E+000        
  0.000000000000000E+000                                                        
   34.9000000000000       0.000000000000000E+000  0.000000000000000E+000        
  0.000000000000000E+000  0.000000000000000E+000  0.000000000000000E+000        
  0.000000000000000E+000   1.00000000000000       0.000000000000000E+000        
  0.000000000000000E+000                                                        
   93.8810000000000       0.000000000000000E+000  0.000000000000000E+000        
  0.000000000000000E+000  0.000000000000000E+000  0.000000000000000E+000        
  0.000000000000000E+000  0.000000000000000E+000   1.00000000000000             
  0.000000000000000E+000                                                        
  6.959000000000000E-002  0.000000000000000E+000  0.000000000000000E+000        
  0.000000000000000E+000  0.000000000000000E+000  0.000000000000000E+000        
  0.000000000000000E+000  0.000000000000000E+000  0.000000000000000E+000        
   1.00000000000000                                                             
   10    8                                                                      
   63.4200000000000       6.044000000000000E-003  0.000000000000000E+000        
  0.000000000000000E+000  0.000000000000000E+000  0.000000000000000E+000        
  0.000000000000000E+000  0.000000000000000E+000  0.000000000000000E+000        
   14.6600000000000       4.179900000000000E-002  0.000000000000000E+000        
  0.000000000000000E+000  0.000000000000000E+000  0.000000000000000E+000        
  0.000000000000000E+000  0.000000000000000E+000  0.000000000000000E+000        
   4.45900000000000       0.161143000000000       0.000000000000000E+000        
  0.000000000000000E+000  0.000000000000000E+000  0.000000000000000E+000        
  0.000000000000000E+000  0.000000000000000E+000  0.000000000000000E+000        
   1.53100000000000       0.356731000000000        1.00000000000000             
  0.000000000000000E+000  0.000000000000000E+000  0.000000000000000E+000        
  0.000000000000000E+000  0.000000000000000E+000  0.000000000000000E+000        
  0.530200000000000       0.448309000000000       0.000000000000000E+000        
   1.00000000000000       0.000000000000000E+000  0.000000000000000E+000        
  0.000000000000000E+000  0.000000000000000E+000  0.000000000000000E+000        
  0.175000000000000       0.244940000000000       0.000000000000000E+000        
  0.000000000000000E+000   1.00000000000000       0.000000000000000E+000        
  0.000000000000000E+000  0.000000000000000E+000  0.000000000000000E+000        
   14.4750000000000       0.000000000000000E+000  0.000000000000000E+000        
  0.000000000000000E+000  0.000000000000000E+000   1.00000000000000             
  0.000000000000000E+000  0.000000000000000E+000  0.000000000000000E+000        
   42.7300000000000       0.000000000000000E+000  0.000000000000000E+000        
  0.000000000000000E+000  0.000000000000000E+000  0.000000000000000E+000        
   1.00000000000000       0.000000000000000E+000  0.000000000000000E+000        
   126.140000000000       0.000000000000000E+000  0.000000000000000E+000        
  0.000000000000000E+000  0.000000000000000E+000  0.000000000000000E+000        
  0.000000000000000E+000   1.00000000000000       0.000000000000000E+000        
  5.348000000000000E-002  0.000000000000000E+000  0.000000000000000E+000        
  0.000000000000000E+000  0.000000000000000E+000  0.000000000000000E+000        
  0.000000000000000E+000  0.000000000000000E+000   1.00000000000000             
    6    6                                                                      
   3.77500000000000        1.00000000000000       0.000000000000000E+000        
  0.000000000000000E+000  0.000000000000000E+000  0.000000000000000E+000        
  0.000000000000000E+000                                                        
   1.30000000000000       0.000000000000000E+000   1.00000000000000             
  0.000000000000000E+000  0.000000000000000E+000  0.000000000000000E+000        
  0.000000000000000E+000                                                        
  0.444000000000000       0.000000000000000E+000  0.000000000000000E+000        
   1.00000000000000       0.000000000000000E+000  0.000000000000000E+000        
  0.000000000000000E+000                                                        
   14.9270000000000       0.000000000000000E+000  0.000000000000000E+000        
  0.000000000000000E+000   1.00000000000000       0.000000000000000E+000        
  0.000000000000000E+000                                                        
   57.5440000000000       0.000000000000000E+000  0.000000000000000E+000        
  0.000000000000000E+000  0.000000000000000E+000   1.00000000000000             
  0.000000000000000E+000                                                        
  0.154000000000000       0.000000000000000E+000  0.000000000000000E+000        
  0.000000000000000E+000  0.000000000000000E+000  0.000000000000000E+000        
   1.00000000000000                                                             
    4    4                                                                      
   2.66600000000000        1.00000000000000       0.000000000000000E+000        
  0.000000000000000E+000  0.000000000000000E+000                                
  0.859000000000000       0.000000000000000E+000   1.00000000000000             
  0.000000000000000E+000  0.000000000000000E+000                                
   26.4830000000000       0.000000000000000E+000  0.000000000000000E+000        
   1.00000000000000       0.000000000000000E+000                                
  0.324000000000000       0.000000000000000E+000  0.000000000000000E+000        
  0.000000000000000E+000   1.00000000000000                                     
    2    2                                                                      
   1.84600000000000        1.00000000000000       0.000000000000000E+000        
  0.714000000000000       0.000000000000000E+000   1.00000000000000             
FINISH                                                                          
 
********************************************************************************
 ONE- AND TWO-ELECTRON INTEGRALS OVER SYMMETRY-ADAPTED AOS ARE CALCULATED.

  SPHERICAL HARMONICS ARE USED.
  
  INTEGRALS LESS THAN  0.10E-13 ARE NEGLECTED.

  NUCLEAR REPULSION ENERGY :   19.4871566984 A.U.
  @MOLECU-I, ONE ELECTRON INTEGRALS (CPU/WALL):        0.06/       0.07 SECONDS.
  @TWOEL-I,    4525655 INTEGRALS OF SYMMETRY TYPE  I I I I
  @TWOEL-I,   19472818 INTEGRALS OF SYMMETRY TYPE  I J I J
  @TWOEL-I,   10258323 INTEGRALS OF SYMMETRY TYPE  I I J J
  @TWOEL-I,   14415548 INTEGRALS OF SYMMETRY TYPE  I J K L
  @TWOEL-I, TOTAL NUMBER OF 2-E INTEGRALS   48672344.
  @MOLECU-I, TWO ELECTRON INTEGRALS (CPU/WALL):      189.70/      25.73 SECONDS.
 @CHECKOUT-I, Total execution time (CPU/WALL):      189.77/      25.82 seconds.

Running with 14 threads/proc

--executable xvmol finished with status     0 in       25.84 seconds (walltime).
 --invoking executable--
/nfs/workspaces/public/cfour_mpi/bin/xvmol2ja
 @GETMEM-I,  Allocated    3814 MB of main memory.
 @CHECKOUT-I, Total execution time (CPU/WALL):        0.15/       0.05 seconds.
--executable xvmol2ja finished with status     0 in        0.07 seconds (walltime).
 --invoking executable--
/nfs/workspaces/public/cfour_mpi/bin/xvprop
 @GETMEM-I,  Allocated    3814 MB of main memory.
   Property integrals will be calculated.
    --------------------------------------------------------------
                                   Property evaluated at 
    Property type                X             Y             Z
    --------------------------------------------------------------
    Dipole moment               ----          ----          ----  
    Quadrupole moment           ----          ----          ----  
    Octopole moment             ----          ----          ----  
    Relativisitic corr.         ----          ----          ----  
    Second moment            0.0000000     0.0000000     0.0000000
    Electron density         0.0000000     0.0000000     1.4073287
    Electron density         0.0000000     0.0000000    -1.0558321
    Field gradient           0.0000000     0.0000000     1.4073287
    Field gradient           0.0000000     0.0000000    -1.0558321
    Potential                0.0000000     0.0000000     1.4073287
    Potential                0.0000000     0.0000000    -1.0558321
    --------------------------------------------------------------
 @CHECKOUT-I, Total execution time (CPU/WALL):        1.41/       1.46 seconds.
--executable xvprop finished with status     0 in        1.48 seconds (walltime).
 --invoking executable--
/nfs/workspaces/public/cfour_mpi/bin/xvscf
  There are  218 functions in the AO basis.

  There are 4 irreducible representations.

       Irrep        # of functions
         1                 86
         2                 52
         3                 52
         4                 28


  Parameters for SCF calculation: 
        SCF reference function:  RHF  
  Maximum number of iterations:  150
     Full symmetry point group: CXv 
     Computational point group: C2v 
        Initial density matrix: MOREAD                 
     SCF convergence tolerance: 10**(-10)
  DIIS convergence acceleration:  ON
          Latest start for DIIS:   8
                     DIIS order:   6

  Memory information:    2523578 words required.
  Fock matrices are constructed from AO integral file.
 @GETMEM-I,  Allocated      19 MB of main memory.
  Initialization and symmetry analysis required      0.001 seconds.

  Adding electric field perturbation to one-electron Hamiltonian.
  Field direction     : Z
  Field strength      :  0.0002000 a.u.

  @INITGES-I, Occupancies from core Hamiltonian:

          Alpha population by irrep:   5    1    1    0
           Beta population by irrep:   5    1    1    0


 total no. of electrons in initial guess :  0.000000000000000E+000
  --------------------------------------------------------------------
  Iteration         Total Energy            Largest Density Difference
  --------------------------------------------------------------------
       0            19.487157235342384              0.0000000000D+00
   current occupation vector 
     5  1  1  0
     5  1  1  0
       1           -92.819614267181521              0.1790328252D+02
   current occupation vector 
     5  1  1  0
     5  1  1  0
       2           -98.298903444600896              0.1789952603D+02
   current occupation vector 
     5  1  1  0
     5  1  1  0
       3          -103.503842137074528              0.7392217677D+01
   current occupation vector 
     5  1  1  0
     5  1  1  0
       4           -99.334287923266643              0.7052823005D+01
   current occupation vector 
     5  1  1  0
     5  1  1  0
       5          -101.891630439226049              0.6107096954D+01
   current occupation vector 
     5  1  1  0
     5  1  1  0
       6           -98.143151026794300              0.6081155355D+01
   current occupation vector 
     5  1  1  0
     5  1  1  0
       7          -101.905622350601149              0.6260376211D+01
   current occupation vector 
     5  1  1  0
     5  1  1  0
       8           -98.050100807525340              0.6258844553D+01
   current occupation vector 
     5  1  1  0
     5  1  1  0
       9          -109.096317172281687              0.4695397211D+01
   current occupation vector 
     5  1  1  0
     5  1  1  0
      10          -111.170931883661069              0.1132206447D+01
   current occupation vector 
     5  1  1  0
     5  1  1  0
      11          -112.589078927829803              0.9073549653D+00
   current occupation vector 
     5  1  1  0
     5  1  1  0
      12          -112.716840254583758              0.3578725130D+00
   current occupation vector 
     5  1  1  0
     5  1  1  0
      13          -112.718578523885725              0.4472354546D-01
   current occupation vector 
     5  1  1  0
     5  1  1  0
      14          -112.718797526883606              0.1535182362D-01
   current occupation vector 
     5  1  1  0
     5  1  1  0
      15          -112.718830574533598              0.9723840830D-02
   current occupation vector 
     5  1  1  0
     5  1  1  0
      16          -112.718831175206020              0.1211539090D-02
   current occupation vector 
     5  1  1  0
     5  1  1  0
      17          -112.718831222209559              0.3947873311D-03
   current occupation vector 
     5  1  1  0
     5  1  1  0
      18          -112.718831226512975              0.1337395517D-03
   current occupation vector 
     5  1  1  0
     5  1  1  0
      19          -112.718831226599889              0.2105300064D-04
   current occupation vector 
     5  1  1  0
     5  1  1  0
      20          -112.718831226602248              0.3540119354D-05
   current occupation vector 
     5  1  1  0
     5  1  1  0
      21          -112.718831226602560              0.5293691818D-06
   current occupation vector 
     5  1  1  0
     5  1  1  0
      22          -112.718831226603015              0.9728525585D-07
   current occupation vector 
     5  1  1  0
     5  1  1  0
      23          -112.718831226602504              0.2478427263D-07
   current occupation vector 
     5  1  1  0
     5  1  1  0
      24          -112.718831226603328              0.9004035295D-09
   current occupation vector 
     5  1  1  0
     5  1  1  0
      25          -112.718831226602020              0.5503117961D-09
   current occupation vector 
     5  1  1  0
     5  1  1  0
      26          -112.718831226603442              0.1815425588D-09
   current occupation vector 
     5  1  1  0
     5  1  1  0
      27          -112.718831226603015              0.2315931891D-09
   current occupation vector 
     5  1  1  0
     5  1  1  0

  SCF has converged.

 Density matrix saved to file den.dat
 total electron number:   14.0000000000001     
     E(SCF)=      -112.718831226603413              0.3576752783D-10

  Eigenvector printing suppressed.

 @PUTMOS-I, Writing converged MOs to NEWMOS. 
 @PUTMOS-I, Symmetry   1 Full Blocks 21 Partial Blocksize   2
 @PUTMOS-I, Symmetry   2 Full Blocks 13 Partial Blocksize   0
 @PUTMOS-I, Symmetry   3 Full Blocks 13 Partial Blocksize   0
 @PUTMOS-I, Symmetry   4 Full Blocks  7 Partial Blocksize   0
 @PUTFOCK-I, Writing converged Fock matrix to NEWFOCK. 
 @PUTFOCK-I, Symmetry   1 Full Blocks 21 Partial Blocksize   2
 @PUTFOCK-I, Symmetry   2 Full Blocks 13 Partial Blocksize   0
 @PUTFOCK-I, Symmetry   3 Full Blocks 13 Partial Blocksize   0
 @PUTFOCK-I, Symmetry   4 Full Blocks  7 Partial Blocksize   0


 
  ORBITAL EIGENVALUES (ALPHA)  (1H = 27.2113834 eV)

       MO #        E(hartree)               E(eV)           FULLSYM    COMPSYM
       ----   --------------------   --------------------   -------   ---------
    1     1         -20.6653523604        -562.3328261749     SG+        A1 (1)
    2     2         -11.4343060388        -311.1432855349     SG+        A1 (1)
    3     3          -1.4106073509         -38.3845774517     SG+        A1 (1)
    4     4          -0.7936101080         -21.5952289185     SG+        A1 (1)
    5   139          -0.5734932903         -15.6055458006      PI        B2 (3)
    6    87          -0.5734932903         -15.6055458006      PI        B1 (2)
    7     5          -0.5655988620         -15.3907274838     SG+        A1 (1)
  +++++++++++++++++++++++++++++++++++++++++++++++++++++++++++++++++++++++++++++
    8   140           0.0497152674           1.3528212019      PI        B2 (3)
    9    88           0.0497152674           1.3528212019      PI        B1 (2)
   10     6           0.0626250097           1.7041131491     SG+        A1 (1)
   11     7           0.0717609973           1.9527160115     SG+        A1 (1)
   12   141           0.1015190828           2.7624746832      PI        B2 (3)
   13    89           0.1015190828           2.7624746832      PI        B1 (2)
   14     8           0.1563660771           4.2549372739     SG+        A1 (1)
   15   142           0.1688382762           4.5943230672      PI        B2 (3)
   16    90           0.1688382762           4.5943230672      PI        B1 (2)
   17     9           0.2269340112           6.1751883863      DE        A1 (1)
   18   191           0.2269340112           6.1751883863      DE        A2 (4)
   19    10           0.2278513509           6.2001504675     SG+        A1 (1)
   20    11           0.2997966884           8.1578826309     SG+        A1 (1)
   21   143           0.3049799749           8.2989270268      PI        B2 (3)
   22    91           0.3049799749           8.2989270268      PI        B1 (2)
   23    12           0.3819143944          10.3924190114     SG+        A1 (1)
   24   144           0.3965293983          10.7901134853      PI        B2 (3)
   25    92           0.3965293983          10.7901134853      PI        B1 (2)
   26    13           0.5092245954          13.8567057013     SG+        A1 (1)
   27   192           0.5435104142          14.7896702620      DE        A2 (4)
   28    14           0.5435104142          14.7896702620      DE        A1 (1)
   29    15           0.5581905677          15.1891375471     SG+        A1 (1)
   30   145           0.6254141535          17.0183843157      PI        B2 (3)
   31    93           0.6254141535          17.0183843157      PI        B1 (2)
   32   146           0.7441656529          20.2497768944      PH        B2 (3)
   33    94           0.7441656529          20.2497768944      PH        B1 (2)
   34    16           0.7593256933          20.6623025662      DE        A1 (1)
   35   193           0.7593256933          20.6623025662      DE        A2 (4)
   36    17           0.7604695020          20.6934271834     SG+        A1 (1)
   37   147           0.8032190471          21.8567014436      PI        B2 (3)
   38    95           0.8032190471          21.8567014436      PI        B1 (2)
   39    18           0.8289024950          22.5555835927     SG+        A1 (1)
   40    19           0.8693422340          23.6560048364     SG+        A1 (1)
   41   194           0.8808090485          23.9680327205      DE        A2 (4)
   42    20           0.8808090485          23.9680327205      DE        A1 (1)
   43   148           0.8943787436          24.3372828970      PI        B2 (3)
   44    96           0.8943787436          24.3372828970      PI        B1 (2)
   45   149           1.0439725616          28.4079376325      PI        B2 (3)
   46    97           1.0439725616          28.4079376325      PI        B1 (2)
   47    21           1.1275763471          30.6829122935     SG+        A1 (1)
   48    22           1.4216463046          38.6849626542     SG+        A1 (1)
   49   150           1.4348876017          39.0452766664      PH        B2 (3)
   50    98           1.4348876017          39.0452766664      PH        B1 (2)
   51   195           1.5470104762          42.0962951927      DE        A2 (4)
   52    23           1.5470104762          42.0962951927      DE        A1 (1)
   53   151           1.5696109495          42.7112853351      PI        B2 (3)
   54    99           1.5696109495          42.7112853351      PI        B1 (2)
   55    24           1.6527160689          44.9726906010     SG+        A1 (1)
   56   100           1.6845920874          45.8400811636      PI        B1 (2)
   57   152           1.6845920874          45.8400811636      PI        B2 (3)
   58   196           1.7387203032          47.3129847956      DE        A2 (4)
   59    25           1.7387203032          47.3129847957      DE        A1 (1)
   60    26           1.8398661738          50.0653038605     SG+        A1 (1)
   61    27           2.0437430839          55.6130766259     SG+        A1 (1)
   62   153           2.0519785342          55.8371746222      PI        B2 (3)
   63   101           2.0519785342          55.8371746222      PI        B1 (2)
   64   197           2.0927826870          56.9475120677      PI        A2 (4)
   65    28           2.0927826870          56.9475120677      PI        A1 (1)
   66    29           2.1646078019          58.9019728081      DE        A1 (1)
   67   198           2.1646078019          58.9019728081      DE        A2 (4)
   68   102           2.2359118182          60.8422537344      PH        B1 (2)
   69   154           2.2359118182          60.8422537344      PH        B2 (3)
   70   155           2.2870948344          62.2350144113      PI        B2 (3)
   71   103           2.2870948344          62.2350144113      PI        B1 (2)
   72    30           2.2950353265          62.4510861850     SG+        A1 (1)
   73   104           2.3007896988          62.6076706179      PH        B1 (2)
   74   156           2.3007896988          62.6076706179      PH        B2 (3)
   75   199           2.3345540610          63.5264456217      DE        A2 (4)
   76    31           2.3345540610          63.5264456217      DE        A1 (1)
   77    32           2.4935037484          67.8516865058     SG+        A1 (1)
   78   157           2.5482462016          69.3413043888      PI        B2 (3)
   79   105           2.5482462016          69.3413043888      PI        B1 (2)
   80   106           2.7004737205          73.4836257709      PI        B1 (2)
   81   158           2.7004737205          73.4836257709      PI        B2 (3)
   82    33           2.7060228676          73.6346257388     SG+        A1 (1)
   83    34           2.8598981225          77.8217842973      DE        A1 (1)
   84   200           2.8598981225          77.8217842974      DE        A2 (4)
   85    35           3.3980059043          92.4644414566     SG+        A1 (1)
   86   159           3.6520150332          99.3763812522      PI        B2 (3)
   87   107           3.6520150332          99.3763812522      PI        B1 (2)
   88    36           3.7035288845         100.7781444099      PI        A1 (1)
   89   201           3.7035288845         100.7781444099      PI        A2 (4)
   90    37           3.8992961207         106.1052417303     SG+        A1 (1)
   91   108           4.0753179365         110.8950388464      PH        B1 (2)
   92   160           4.0753179365         110.8950388464      PH        B2 (3)
   93   161           4.1376129358         112.5901719576      PH        B2 (3)
   94   109           4.1376129358         112.5901719576      PH        B1 (2)
   95   110           4.1836300600         113.8423615674      PI        B1 (2)
   96   162           4.1836300600         113.8423615674      PI        B2 (3)
   97   202           4.2044897288         114.4099820105      DE        A2 (4)
   98    38           4.2044897288         114.4099820105      DE        A1 (1)
   99    39           4.2214196954         114.8706698245     SG+        A1 (1)
  100    40           4.3086282753         117.2437359283      DE        A1 (1)
  101   203           4.3086282753         117.2437359284      DE        A2 (4)
  102    41           4.3820813337         119.2424952621     SG+        A1 (1)
  103   111           4.8530088687         132.0570849689      PI        B1 (2)
  104   163           4.8530088687         132.0570849689      PI        B2 (3)
  105   164           4.9396355030         134.4143155294      PI        B2 (3)
  106   112           4.9396355030         134.4143155294      PI        B1 (2)
  107    42           4.9945903164         135.9097120267      DE        A1 (1)
  108   204           4.9945903164         135.9097120268      DE        A2 (4)
  109    43           5.1561642046         140.3063610434     SG+        A1 (1)
  110    44           5.3464770077         145.4850356952     SG+        A1 (1)
  111   113           5.6034283377         152.4770368504      PI        B1 (2)
  112   165           5.6034283377         152.4770368504      PI        B2 (3)
  113   205           5.8738688246         159.8360966273      PI        A2 (4)
  114    45           5.8738688246         159.8360966273      PI        A1 (1)
  115   114           6.0004060708         163.2793501482      PH        B1 (2)
  116   166           6.0004060708         163.2793501482      PH        B2 (3)
  117    46           6.2183641997         169.2102923578     SG+        A1 (1)
  118    47           6.2341966779         169.6411159947      DE        A1 (1)
  119   206           6.2341966779         169.6411159947      DE        A2 (4)
  120   167           6.2659659434         170.5056016580      PI        B2 (3)
  121   115           6.2659659434         170.5056016580      PI        B1 (2)
  122   116           6.4110944299         174.4547485468      PH        B1 (2)
  123   168           6.4110944299         174.4547485468      PH        B2 (3)
  124    48           6.5404935119         177.9758765785      DE        A1 (1)
  125   207           6.5404935119         177.9758765786      DE        A2 (4)
  126    49           6.5429236519         178.0420040484     SG+        A1 (1)
  127    50           6.7848690353         184.6256726371      DE        A1 (1)
  128   208           6.7848690353         184.6256726372      DE        A2 (4)
  129   169           7.1318316186         194.0670045177      PI        B2 (3)
  130   117           7.1318316186         194.0670045177      PI        B1 (2)
  131    51           7.4644836239         203.1189257732     SG+        A1 (1)
  132   118           7.9556903758         216.4853410288      PI        B1 (2)
  133   170           7.9556903758         216.4853410289      PI        B2 (3)
  134    52           8.2435913961         224.3195260717     SG+        A1 (1)
  135   171          10.0659308785         273.9079044124      PI        B2 (3)
  136   119          10.0659308785         273.9079044129      PI        B1 (2)
  137    53          10.0867750573         274.4751033530     SG+        A1 (1)
  138   209          10.6157024784         288.8679501995      PI        A2 (4)
  139    54          10.6157024784         288.8679501995      PI        A1 (1)
  140   172          10.7953639595         293.7567876456      PH        B2 (3)
  141   120          10.7953639595         293.7567876456      PH        B1 (2)
  142    55          10.8675657033         295.7214969762     SG+        A1 (1)
  143   210          11.0289353087         300.1125871784      DE        A2 (4)
  144    56          11.0289353087         300.1125871784      DE        A1 (1)
  145   173          11.1932162357         304.5828984685      PI        B2 (3)
  146   121          11.1932162357         304.5828984685      PI        B1 (2)
  147    57          11.5050505199         313.0683407342     SG+        A1 (1)
  148   174          11.8610225106         322.7548310517      PH        B2 (3)
  149   122          11.8610225106         322.7548310517      PH        B1 (2)
  150    58          12.1296113451         330.0635048045      DE        A1 (1)
  151   211          12.1296113451         330.0635048045      DE        A2 (4)
  152   175          12.5888120136         342.5589902523      PI        B2 (3)
  153   123          12.5888120136         342.5589902524      PI        B1 (2)
  154    59          12.7904987862         348.0471663484      DE        A1 (1)
  155   212          12.7904987862         348.0471663484      DE        A2 (4)
  156    60          12.9800992260         353.2064566095     SG+        A1 (1)
  157   124          13.3596607300         363.5348502175      PI        B1 (2)
  158   176          13.3596607300         363.5348502175      PI        B2 (3)
  159    61          14.4309617238         392.6864322963     SG+        A1 (1)
  160    62          17.7067039309         481.8239094133     SG+        A1 (1)
  161   125          19.0539530680         518.4844222182      PI        B1 (2)
  162   177          19.0539530680         518.4844222183      PI        B2 (3)
  163    63          20.4926454635         557.6332325884     SG+        A1 (1)
  164    64          26.3899558878         718.1072075725      DE        A1 (1)
  165   213          26.3899558878         718.1072075725      DE        A2 (4)
  166   178          26.8197870136         729.8035071347      PI        B2 (3)
  167   126          26.8197870136         729.8035071347      PI        B1 (2)
  168    65          27.4888439486         748.0094719080     SG+        A1 (1)
  169   179          33.7120491375         917.3514942795      PI        B2 (3)
  170   127          33.7120491375         917.3514942808      PI        B1 (2)
  171    66          34.5529153046         940.2326259406     SG+        A1 (1)
  172    67          36.2543087217         986.5298945276     SG+        A1 (1)
  173    68          47.0892134213        1281.3626404128      DE        A1 (1)
  174   214          47.0892134214        1281.3626404128      DE        A2 (4)
  175   128          47.3505720214        1288.4745694835      PI        B1 (2)
  176   180          47.3505720214        1288.4745694835      PI        B2 (3)
  177    69          48.0399333439        1307.2330447304     SG+        A1 (1)
  178    70          64.0022688691        1741.5902766672     SG+        A1 (1)
  179   129          66.5671505480        1811.3842554062      PI        B1 (2)
  180   181          66.5671505480        1811.3842554063      PI        B2 (3)
  181    71          67.6244932914        1840.1560141817     SG+        A1 (1)
  182   182          98.5982896503        2682.9958622580      PH        B2 (3)
  183   130          98.5982896503        2682.9958622580      PH        B1 (2)
  184   215          98.6129971074        2683.3960725124      DE        A2 (4)
  185    72          98.6129971074        2683.3960725124      DE        A1 (1)
  186   131          98.6459208653        2684.2919735126      PI        B1 (2)
  187   183          98.6459208653        2684.2919735127      PI        B2 (3)
  188    73          98.6680821789        2684.8950135128     SG+        A1 (1)
  189   132         103.2849701623        2810.5269225440      PH        B1 (2)
  190   184         103.2849701623        2810.5269225440      PH        B2 (3)
  191   216         103.3119741490        2811.2617383790      DE        A2 (4)
  192    74         103.3119741490        2811.2617383791      DE        A1 (1)
  193   133         103.3534199071        2812.3895347938      PI        B1 (2)
  194   185         103.3534199071        2812.3895347938      PI        B2 (3)
  195    75         103.3679410739        2812.7846758312     SG+        A1 (1)
  196   217         115.0727965575        3131.2899860376      DE        A2 (4)
  197    76         115.0727965576        3131.2899860378      DE        A1 (1)
  198   134         115.2807531199        3136.9487717875      PI        B1 (2)
  199   186         115.2807531199        3136.9487717875      PI        B2 (3)
  200    77         115.6160896442        3146.0737425178     SG+        A1 (1)
  201   187         116.9740531205        3183.0258073148      PI        B2 (3)
  202   135         116.9740531206        3183.0258073156      PI        B1 (2)
  203    78         117.6472463856        3201.3443273535     SG+        A1 (1)
  204    79         122.4528459707        3332.1113401311     SG+        A1 (1)
  205    80         198.5571999793        5403.0160954670      DE        A1 (1)
  206   218         198.5571999793        5403.0160954670      DE        A2 (4)
  207   188         198.6966699965        5406.8112675786      PI        B2 (3)
  208   136         198.6966699965        5406.8112675787      PI        B1 (2)
  209    81         199.0538689832        5416.5311461552     SG+        A1 (1)
  210    82         216.5152219089        5891.6787152983     SG+        A1 (1)
  211   189         225.0128197827        6122.9101090210      PI        B2 (3)
  212   137         225.0128197827        6122.9101090210      PI        B1 (2)
  213    83         225.8520116177        6145.7456797907     SG+        A1 (1)
  214   190         395.4373323995       10760.3968625970      PI        B2 (3)
  215   138         395.4373323995       10760.3968625972      PI        B1 (2)
  216    84         395.9934779244       10775.5303517012     SG+        A1 (1)
  217    85         509.0524987390       13852.0227139157     SG+        A1 (1)
  218    86         895.3480186338       24363.6582114754     SG+        A1 (1)


  VSCF finished.

 @CHECKOUT-I, Total execution time (CPU/WALL):       51.14/      12.53 seconds.
--executable xvscf finished with status     0 in       12.55 seconds (walltime).
 --invoking executable--
/nfs/workspaces/public/cfour_mpi/bin/xvtran
 @GETMEM-I,  Allocated    3814 MB of main memory.
  Full RHF integral transformation
  Transformation of IIII integrals :
  1 pass through the AO integral file was required.
     4525655 AO integrals were read.
     8777125 MO integrals were written to HF2.
  Transformation of IIJJ integrals :
  1 pass through the AO integral file was required.
    10258323 AO integrals were read.
    14561953 MO integrals were written to HF2.
  Transformation of IJIJ integrals :
  1 pass through the AO integral file was required.
    19472818 AO integrals were read.
    27329170 MO integrals were written to HF2.
  Transformation of IJKL integrals :
  1 pass through the AO integral file was required.
    14415548 AO integrals were read.
    18455635 MO integrals were written to HF2.
  Summary of active molecular orbitals: 
------------------------------------------------------------------------
 
  Index      Eigenvalue    Symmetry    Index      Eigenvalue    Symmetry
------------------------------------------------------------------------
     1       -20.6653524        1       110         4.1376129        2
     2       -11.4343060        1       111         4.1836301        2
     3        -1.4106074        1       112         4.8530089        2
     4        -0.7936101        1       113         4.9396355        2
     5        -0.5655989        1       114         5.6034283        2
     6        -0.5734933        2       115         6.0004061        2
     7        -0.5734933        3       116         6.2659659        2
     8         0.0626250        1       117         6.4110944        2
     9         0.0717610        1       118         7.1318316        2
    10         0.1563661        1       119         7.9556904        2
    11         0.2269340        1       120        10.0659309        2
    12         0.2278514        1       121        10.7953640        2
    13         0.2997967        1       122        11.1932162        2
    14         0.3819144        1       123        11.8610225        2
    15         0.5092246        1       124        12.5888120        2
    16         0.5435104        1       125        13.3596607        2
    17         0.5581906        1       126        19.0539531        2
    18         0.7593257        1       127        26.8197870        2
    19         0.7604695        1       128        33.7120491        2
    20         0.8289025        1       129        47.3505720        2
    21         0.8693422        1       130        66.5671505        2
    22         0.8808090        1       131        98.5982897        2
    23         1.1275763        1       132        98.6459209        2
    24         1.4216463        1       133       103.2849702        2
    25         1.5470105        1       134       103.3534199        2
    26         1.6527161        1       135       115.2807531        2
    27         1.7387203        1       136       116.9740531        2
    28         1.8398662        1       137       198.6966700        2
    29         2.0437431        1       138       225.0128198        2
    30         2.0927827        1       139       395.4373324        2
    31         2.1646078        1       140         0.0497153        3
    32         2.2950353        1       141         0.1015191        3
    33         2.3345541        1       142         0.1688383        3
    34         2.4935037        1       143         0.3049800        3
    35         2.7060229        1       144         0.3965294        3
    36         2.8598981        1       145         0.6254142        3
    37         3.3980059        1       146         0.7441657        3
    38         3.7035289        1       147         0.8032190        3
    39         3.8992961        1       148         0.8943787        3
    40         4.2044897        1       149         1.0439726        3
    41         4.2214197        1       150         1.4348876        3
    42         4.3086283        1       151         1.5696109        3
    43         4.3820813        1       152         1.6845921        3
    44         4.9945903        1       153         2.0519785        3
    45         5.1561642        1       154         2.2359118        3
    46         5.3464770        1       155         2.2870948        3
    47         5.8738688        1       156         2.3007897        3
    48         6.2183642        1       157         2.5482462        3
    49         6.2341967        1       158         2.7004737        3
    50         6.5404935        1       159         3.6520150        3
    51         6.5429237        1       160         4.0753179        3
    52         6.7848690        1       161         4.1376129        3
    53         7.4644836        1       162         4.1836301        3
    54         8.2435914        1       163         4.8530089        3
    55        10.0867751        1       164         4.9396355        3
    56        10.6157025        1       165         5.6034283        3
    57        10.8675657        1       166         6.0004061        3
    58        11.0289353        1       167         6.2659659        3
    59        11.5050505        1       168         6.4110944        3
    60        12.1296113        1       169         7.1318316        3
    61        12.7904988        1       170         7.9556904        3
    62        12.9800992        1       171        10.0659309        3
    63        14.4309617        1       172        10.7953640        3
    64        17.7067039        1       173        11.1932162        3
    65        20.4926455        1       174        11.8610225        3
    66        26.3899559        1       175        12.5888120        3
    67        27.4888439        1       176        13.3596607        3
    68        34.5529153        1       177        19.0539531        3
    69        36.2543087        1       178        26.8197870        3
    70        47.0892134        1       179        33.7120491        3
    71        48.0399333        1       180        47.3505720        3
    72        64.0022689        1       181        66.5671505        3
    73        67.6244933        1       182        98.5982897        3
    74        98.6129971        1       183        98.6459209        3
    75        98.6680822        1       184       103.2849702        3
    76       103.3119741        1       185       103.3534199        3
    77       103.3679411        1       186       115.2807531        3
    78       115.0727966        1       187       116.9740531        3
    79       115.6160896        1       188       198.6966700        3
    80       117.6472464        1       189       225.0128198        3
    81       122.4528460        1       190       395.4373324        3
    82       198.5572000        1       191         0.2269340        4
    83       199.0538690        1       192         0.5435104        4
    84       216.5152219        1       193         0.7593257        4
    85       225.8520116        1       194         0.8808090        4
    86       395.9934779        1       195         1.5470105        4
    87       509.0524987        1       196         1.7387203        4
    88       895.3480186        1       197         2.0927827        4
    89         0.0497153        2       198         2.1646078        4
    90         0.1015191        2       199         2.3345541        4
    91         0.1688383        2       200         2.8598981        4
    92         0.3049800        2       201         3.7035289        4
    93         0.3965294        2       202         4.2044897        4
    94         0.6254142        2       203         4.3086283        4
    95         0.7441657        2       204         4.9945903        4
    96         0.8032190        2       205         5.8738688        4
    97         0.8943787        2       206         6.2341967        4
    98         1.0439726        2       207         6.5404935        4
    99         1.4348876        2       208         6.7848690        4
   100         1.5696109        2       209        10.6157025        4
   101         1.6845921        2       210        11.0289353        4
   102         2.0519785        2       211        12.1296113        4
   103         2.2359118        2       212        12.7904988        4
   104         2.2870948        2       213        26.3899559        4
   105         2.3007897        2       214        47.0892134        4
   106         2.5482462        2       215        98.6129971        4
   107         2.7004737        2       216       103.3119741        4
   108         3.6520150        2       217       115.0727966        4
   109         4.0753179        2       218       198.5572000        4
------------------------------------------------------------------------
  -20.6653523603979       -11.4343060388077       -1.41060735088048     
 -0.793610107985772      -0.565598861975612      -0.573493290334997     
 -0.573493290335002       6.262500968982614E-002  7.176099733101760E-002
  0.156366077068390       0.226934011238755       0.227851350899760     
  0.299796688429929       0.381914394379863       0.509224595368967     
  0.543510414173340       0.558190567670028       0.759325693311316     
  0.760469502019098       0.828902495003196       0.869342234042996     
  0.880809048485039        1.12757634709399        1.42164630462050     
   1.54701047623620        1.65271606885650        1.73872030319722     
   1.83986617382093        2.04374308385552        2.09278268695710     
   2.16460780189962        2.29503532646686        2.33455406099136     
   2.49350374835308        2.70602286757587        2.85989812253605     
   3.39800590427079        3.70352888452772        3.89929612069270     
   4.20448972875371        4.22141969542461        4.30862827533909     
   4.38208133372901        4.99459031644500        5.15616420455177     
   5.34647700767938        5.87386882459357        6.21836419966222     
   6.23419667794908        6.54049351193698        6.54292365188559     
   6.78486903525530        7.46448362390985        8.24359139608207     
   10.0867750572724        10.6157024783776        10.8675657032654     
   11.0289353086845        11.5050505199309        12.1296113450990     
   12.7904987861950        12.9800992260297        14.4309617237731     
[...]
 Convergence information after    11 iterations: 
 Largest element of residual vector : -0.37555255E-05.
 Largest element of DIIS residual   : -0.16160588E-05.
 Convergence information after    12 iterations: 
 Largest element of residual vector : -0.20521506E-05.
 Largest element of DIIS residual   : -0.93315898E-06.
 Convergence information after    13 iterations: 
 Largest element of residual vector : -0.80042145E-06.
 Largest element of DIIS residual   : -0.24778372E-06.
 Convergence information after    14 iterations: 
 Largest element of residual vector : -0.33819439E-06.
 Largest element of DIIS residual   : -0.13873683E-06.
 Convergence information after    15 iterations: 
 Largest element of residual vector : -0.90175900E-07.
 Largest element of DIIS residual   : -0.53977924E-07.
 Perturbed amplitude equations converged in    15 iterations.
  Dominant contributions to perturbed wavefunction:
    7    7  140   28  -0.2169949960 ABAB
    7    7   28  140  -0.2169949960 ABAB
    7    7  141   28  -0.1996074924 ABAB
    7    7   28  141  -0.1996074924 ABAB
    7    7  140   39   0.1781308272 ABAB
    7    7   39  140   0.1781308272 ABAB
    7    7  141   39   0.1697302941 ABAB
    7    7   39  141   0.1697302941 ABAB
    7    7  140   54  -0.1406303227 ABAB
    7    7   54  140  -0.1406303227 ABAB
    7    6   28   89  -0.1405736372 ABAB
    6    7   89   28  -0.1405736372 ABAB
    7    7  141   54  -0.1345387731 ABAB
    7    7   54  141  -0.1345387731 ABAB
    7    7  140   20  -0.1289056527 ABAB
    7    7   20  140  -0.1289056527 ABAB
    7    7  141   45   0.1277792643 ABAB
    7    7   45  141   0.1277792643 ABAB
    7    6   28   90  -0.1273173590 ABAB
    6    7   90   28  -0.1273173590 ABAB
  norm of converged amps    2.06008938409211     
 Starting iterative solution of the perturbed Lambda equations.
 The DIIS procedure is used to accelerate convergence.
 Convergence criterion is 10**(-7).
 Maximum number of iterations is 100.
 Convergence information after     1 iterations: 
 Largest element of residual vector :  0.61756299E-01.
 Largest element of DIIS residual   :  0.61756299E-01.
 Convergence information after     2 iterations: 
 Largest element of residual vector : -0.11429468E-01.
 Largest element of DIIS residual   :  0.72935729E-02.
 Convergence information after     3 iterations: 
 Largest element of residual vector :  0.46479968E-02.
 Largest element of DIIS residual   :  0.41490402E-02.
 Convergence information after     4 iterations: 
 Largest element of residual vector :  0.28449363E-02.
 Largest element of DIIS residual   :  0.24175055E-02.
 Convergence information after     5 iterations: 
 Largest element of residual vector :  0.19347162E-02.
 Largest element of DIIS residual   :  0.10721021E-02.
 Convergence information after     6 iterations: 
 Largest element of residual vector :  0.72089687E-03.
 Largest element of DIIS residual   :  0.26765516E-03.
 Convergence information after     7 iterations: 
 Largest element of residual vector :  0.23776572E-03.
 Largest element of DIIS residual   :  0.12279010E-03.
 Convergence information after     8 iterations: 
 Largest element of residual vector :  0.76710863E-04.
 Largest element of DIIS residual   :  0.44912914E-04.
 Convergence information after     9 iterations: 
 Largest element of residual vector :  0.27309479E-04.
 Largest element of DIIS residual   : -0.79142540E-05.
 Convergence information after    10 iterations: 
 Largest element of residual vector : -0.53665500E-05.
 Largest element of DIIS residual   : -0.48168231E-05.
 Convergence information after    11 iterations: 
 Largest element of residual vector : -0.27643422E-05.
 Largest element of DIIS residual   : -0.14891629E-05.
 Convergence information after    12 iterations: 
 Largest element of residual vector : -0.16032396E-05.
 Largest element of DIIS residual   : -0.12267525E-05.
 Convergence information after    13 iterations: 
 Largest element of residual vector : -0.91686093E-06.
 Largest element of DIIS residual   : -0.54234960E-06.
 Convergence information after    14 iterations: 
 Largest element of residual vector : -0.55158040E-06.
 Largest element of DIIS residual   : -0.31617722E-06.
 Convergence information after    15 iterations: 
 Largest element of residual vector : -0.21593477E-06.
 Largest element of DIIS residual   : -0.12679864E-06.
 Convergence information after    16 iterations: 
 Largest element of residual vector : -0.10997052E-06.
 Largest element of DIIS residual   : -0.41373718E-07.
 Perturbed Lambda equations converged in    16 iterations.
  Dominant contributions to perturbed wavefunction:
    7    7  140   28  -0.2001357225 ABAB
    7    7   28  140  -0.2001357225 ABAB
    7    7  141   28  -0.1827780490 ABAB
    7    7   28  141  -0.1827780490 ABAB
    7    7  140   39   0.1626142707 ABAB
    7    7   39  140   0.1626142707 ABAB
    7    7  141   39   0.1538628700 ABAB
    7    7   39  141   0.1538628700 ABAB
    7    7  140   54  -0.1311633655 ABAB
    7    7   54  140  -0.1311633655 ABAB
    7    6   28   89  -0.1274060928 ABAB
    6    7   89   28  -0.1274060928 ABAB
    7    7  141   54  -0.1247425424 ABAB
    7    7   54  141  -0.1247425424 ABAB
    7    7  140   20  -0.1165571965 ABAB
    7    7   20  140  -0.1165571965 ABAB
    7    6   28   90  -0.1147394843 ABAB
    6    7   90   28  -0.1147394843 ABAB
    7    7  141   45   0.1143654846 ABAB
    7    7   45  141   0.1143654846 ABAB
        The DBOC first-order density matrix is being calculated 
             (Symmetry block 3, perturbation   2)
 term   4.82305312679024     
 final tnorm  0.862803593832972     
  norm contr. I: |<0|L dT/dx|0>|^2   0.000000000000000E+000
  norm contr. II: <0|[nabla(1+L)e-T][nabla e^T]|0>   4.82305312679024     
  total norm contribution   4.82305312679024     
 oo  8.803608189394765E-003
 vv  -36.1684361450956     
 vo  6.546893113145227E-002
  Correlated perturbed 1-el contribution to DBOC  -36.0941636057747       cm**-1
  SUM_I |dc_I/dx|^2 contribution to DBOC   18.1573944434953       cm**-1
 
 
  The total diagonal Born-Oppenheimer correction (DBOC) is:      0.0041388955 a.u.
  The total diagonal Born-Oppenheimer correction (DBOC) is:        908.382573 cm-1
 
 Total CC energy including DBOC  -113.230273104813     
 First-order density matrix is being calculated  (Symmetry block 3, perturbation   2)
 Calculation of the contributions of <pq||rs> to dI(i,j)/dx required   2.3 seconds.
 Calculation of the contributions of <pq||rs> to dI(a,b)/dx required  15.9 seconds.
 Calculation of the contributions of <pq||rs> to dI(i,a)/dx required   9.5 seconds.
 First-order Z-vector equations are solved for 1 perturbation.
 Convergence reached after  18 iterations.
        U*G(pq,rs) contribution is being calculated
             (Symmetry block 3, perturbation   2)

 CCSD contribution to force constants 

        0.0000000000        0.0000000000        0.0000000000
        0.0000000000        0.0000000000        0.0000000000
        0.0000000000        0.0000000000        0.0000000000
        0.0000000000        0.0000000000        0.0000000000
        0.0000000000        0.0000000000        0.0000000000
        0.0000000000        0.0000000000        0.0000000000
        0.0000000000        0.0000000000        0.0000000000
        0.0000000000        0.0000000000        0.0000000000
        0.0000000000        0.0000000000        0.0000000000
        0.0000000000        0.0000000000        0.0000000000
        0.0000000000        0.0000000000        0.0000000000
        0.0000000000        1.4177800033       -1.4177800033

 CCSD contribution to dipole derivatives 

        0.0000000000        0.0000000000        0.0000000000
        0.0000000000        0.0000000000        0.0000000000
        0.0000000000        0.0000000000        0.0000000000
        0.0000000000        0.0000000000       -0.0514952488
        0.0000000000        0.0000000000        0.0000000000
        0.0000000000        0.0000000000        0.0000000000
 @CHECKOUT-I, Total execution time (CPU/WALL):     1036.82/     278.36 seconds.
--executable xsdcc finished with status     0 in      278.40 seconds (walltime).
 --invoking executable--
/nfs/workspaces/public/cfour_mpi/bin/xanti
 @GETMEM-I,  Allocated    3814 MB of main memory.
 CCSD MO derivative gammas will be sorted to Mulliken order.
 @CHECKOUT-I, Total execution time (CPU/WALL):        9.56/      15.73 seconds.
--executable xanti finished with status     0 in       15.75 seconds (walltime).
 --invoking executable--
/nfs/workspaces/public/cfour_mpi/bin/xbcktrn
 @GETMEM-I,  Allocated    3814 MB of main memory.
 CCSD MO derivative gammas will be transformed to the AO basis.
 @CHECKOUT-I, Total execution time (CPU/WALL):       21.98/       5.27 seconds.
--executable xbcktrn finished with status     0 in        5.29 seconds (walltime).
 --invoking executable--
/nfs/workspaces/public/cfour_mpi/bin/xvdint
 @GETMEM-I,  Allocated    3814 MB of main memory.
 One- and two-electron integral derivatives are calculated
 for RHF-CC/MBPT hessians and dipole derivatives.
 Spherical gaussians are used.
  magnet F F
                    8722  records have been written to the Sort file.
  Total length of Sort file :             178609116  words.
 Evaluation of 2el integral derivatives

                      Two-electron integral gradient
                      ------------------------------

                         C #1 z     0.0000000000
                         O #2 z     0.0000000000


 C #1       0.0000000000           -0.1938784943            0.0000000000
 O #2       0.0000000000            0.1938784943            0.0000000000


 Evaluation of 2e integral derivatives required  329.35 seconds.
  contribution to Hessian
        0.0000000000        0.0000000000        0.0000000000
        0.0000000000       -0.1938784943        0.1938784943
 @CHECKOUT-I, Total execution time (CPU/WALL):      329.35/      66.61 seconds.
--executable xvdint finished with status     0 in       66.63 seconds (walltime).
 --invoking executable--
/nfs/workspaces/public/cfour_mpi/bin/xanti
 @GETMEM-I,  Allocated    3814 MB of main memory.
 CCSD MO gammas will be sorted to Mulliken order.
 @CHECKOUT-I, Total execution time (CPU/WALL):       11.25/       9.90 seconds.
--executable xanti finished with status     0 in        9.92 seconds (walltime).
 --invoking executable--
/nfs/workspaces/public/cfour_mpi/bin/xbcktrn
 @GETMEM-I,  Allocated    3814 MB of main memory.
 CCSD MO gammas will be transformed to the AO basis.
 @CHECKOUT-I, Total execution time (CPU/WALL):       27.06/       4.08 seconds.
--executable xbcktrn finished with status     0 in        4.11 seconds (walltime).
 --invoking executable--
/nfs/workspaces/public/cfour_mpi/bin/xvdint
 @GETMEM-I,  Allocated    3814 MB of main memory.
 One- and two-electron integral derivatives are calculated
 for RHF-CC/MBPT hessians and dipole derivatives.
 Spherical gaussians are used.
  magnet F F

                     Kinetic energy integral gradient
                     --------------------------------

                         C #1 z    -1.0232713968
                         O #2 z     1.0232713968


 C #1       0.0000000000            0.0000000000           -1.0232713968
 O #2       0.0000000000            0.0000000000            1.0232713968



                   Nuclear attraction integral gradient
                   ------------------------------------

                         C #1 z    19.2159836382
                         O #2 z   -19.2159836382


 C #1       0.0000000000            0.0000000000           19.2159836382
 O #2       0.0000000000            0.0000000000          -19.2159836382



                      Reorthonormalization gradient
                      -----------------------------

                         C #1 z     0.0000000000
                         O #2 z     0.0000000000


 C #1       0.0000000000            0.0000000000            0.0000000000
 O #2       0.0000000000            0.0000000000            0.0000000000



                     Kinetic energy integral Hessian
                     -------------------------------


           Symmetry 1

           C #1 z      O #2 z

 C #1 z    0.961332
 O #2 z   -0.961332    0.961332


           Symmetry 2

           C #1 x      O #2 x

 C #1 x   -1.070981
 O #2 x    1.070981   -1.070981


           Symmetry 3

           C #1 y      O #2 y

 C #1 y   -1.070981
 O #2 y    1.070981   -1.070981




           C #1 x      C #1 y      C #1 z      O #2 x      O #2 y      O #2 z

 C #1 x   -1.070981
 C #1 y    0.000000   -1.070981
 C #1 z    0.000000    0.000000    0.961332

 O #2 x    1.070981    0.000000    0.000000   -1.070981
 O #2 y    0.000000    1.070981    0.000000    0.000000   -1.070981
 O #2 z    0.000000    0.000000   -0.961332    0.000000    0.000000    0.961332




                   Nuclear attraction integral Hessian
                   -----------------------------------


           Symmetry 1

           C #1 z      O #2 z

 C #1 z  -11.774938
 O #2 z   11.774938  -11.774938


           Symmetry 2

           C #1 x      O #2 x

 C #1 x   13.838686
 O #2 x  -13.838686   13.838686


           Symmetry 3

           C #1 y      O #2 y

 C #1 y   13.838686
 O #2 y  -13.838686   13.838686




           C #1 x      C #1 y      C #1 z      O #2 x      O #2 y      O #2 z

 C #1 x   13.838686
 C #1 y    0.000000   13.838686
 C #1 z    0.000000    0.000000  -11.774938

 O #2 x  -13.838686    0.000000    0.000000   13.838686
 O #2 y    0.000000  -13.838686    0.000000    0.000000   13.838686
 O #2 z    0.000000    0.000000   11.774938    0.000000    0.000000  -11.774938




                Highest order reorthonormalization Hessian
                ------------------------------------------


           Symmetry 1

           C #1 z      O #2 z

 C #1 z    0.000000
 O #2 z    0.000000    0.000000


           Symmetry 2

           C #1 x      O #2 x

 C #1 x    0.000000
 O #2 x    0.000000    0.000000


           Symmetry 3

           C #1 y      O #2 y

 C #1 y    0.000000
 O #2 y    0.000000    0.000000




           C #1 x      C #1 y      C #1 z      O #2 x      O #2 y      O #2 z




                Electronic contributions to dipole moment
                -----------------------------------------

                               au             Debye

                    z      0.17587396      0.44702711

  Conversion factor used: 1 a.u. =   2.54174691 Debye 



   Electronic contributions to static part of dipole moment derivatives
   --------------------------------------------------------------------


                     Total dipole moment derivatives
                     -------------------------------


           Symmetry 1
                              Ez

               C #1 z    -5.66500659
               O #2 z    -8.33499341

           Symmetry 2
                              Ex

               C #1 x    -5.70528043
               O #2 x    -8.29471957

           Symmetry 3
                              Ey

               C #1 y    -5.70528043
               O #2 y    -8.29471957



                       Ex          Ey          Ez

      C #1    x   -5.705280    0.000000    0.000000
      C #1    y    0.000000   -5.705280    0.000000
      C #1    z    0.000000    0.000000   -5.665007

      O #2    x   -8.294720    0.000000    0.000000
      O #2    y    0.000000   -8.294720    0.000000
      O #2    z    0.000000    0.000000   -8.334993

 Evaluation of 1e integral derivatives required    1.67 seconds.
                    8815  records have been written to the Sort file.
  Total length of Sort file :             180513570  words.
 Evaluation of 2el integral derivatives

                      Two-electron integral gradient
                      ------------------------------

                         C #1 z    -9.6110789327
                         O #2 z     9.6110789327


 C #1       0.0000000000            0.0000000000           -9.6110789327
 O #2       0.0000000000            0.0000000000            9.6110789327


 Evaluation of 2e integral derivatives required  707.90 seconds.

                            Molecular gradient
                            ------------------

                         C #1 z     0.6701900547
                         O #2 z    -0.6701900547


 C #1       0.0000000000            0.0000000000            0.6701900547
 O #2       0.0000000000            0.0000000000           -0.6701900547


  Molecular gradient norm 0.948E+00

                            Molecular hessian
                            -----------------


           Symmetry 1

           C #1 z      O #2 z

 C #1 z   40.790916
 O #2 z  -40.790916   40.790916


           Symmetry 2

           C #1 x      O #2 x

 C #1 x   -0.938407
 O #2 x    0.938407   -0.938407


           Symmetry 3

           C #1 y      O #2 y

 C #1 y   -0.938407
 O #2 y    0.938407   -0.938407




           C #1 x      C #1 y      C #1 z      O #2 x      O #2 y      O #2 z

 C #1 x   -0.938407
 C #1 y    0.000000   -0.938407
 C #1 z    0.000000    0.000000   40.790916

 O #2 x    0.938407    0.000000    0.000000   -0.938407
 O #2 y    0.000000    0.938407    0.000000    0.000000   -0.938407
 O #2 z    0.000000    0.000000  -40.790916    0.000000    0.000000   40.790916




                           Total dipole moment
                           -------------------

                               au             Debye

                    z      0.17318932      0.44020341

  Conversion factor used: 1 a.u. =   2.54174691 Debye 



                     Total dipole moment derivatives
                     -------------------------------


           Symmetry 1
                              Ez

               C #1 z     0.70281967
               O #2 z    -0.70281967

           Symmetry 2
                              Ex

               C #1 x     0.06953524
               O #2 x    -0.06953524

           Symmetry 3
                              Ey

               C #1 y     0.06953524
               O #2 y    -0.06953524



                       Ex          Ey          Ez

      C #1    x    0.069535    0.000000    0.000000
      C #1    y    0.000000    0.069535    0.000000
      C #1    z    0.000000    0.000000    0.702820

      O #2    x   -0.069535    0.000000    0.000000
      O #2    y    0.000000   -0.069535    0.000000
      O #2    z    0.000000    0.000000   -0.702820

 @CHECKOUT-I, Total execution time (CPU/WALL):      709.57/     118.16 seconds.
--executable xvdint finished with status     0 in      118.18 seconds (walltime).
 --invoking executable--
/nfs/workspaces/public/cfour_mpi/bin/xjoda
  @GTFLGS-I, Hessian will be transformed to curvilinear coordinates.
  @GTFLGS-I, Hessian will be transformed to curvilinear coordinates.
  igrd and ihes are                      0                     1
  gradient from JOBARC 
   0.000000000000000   0.000000000000000   0.670190054743462
   0.000000000000000   0.000000000000000  -0.670190054743462
 
  @PROJFCM-I, Projecting force constant matrix onto totally symmetric subspace.
  Largest difference between matrix elements of symmetrized
  and unsymmetrized FCM :     0.3179267960E-10.
  read isotopes from ZMAT file 
 
  Summary of diagonal Born-Oppenheimer correction at the correlated level
  The total diagonal Born-Oppenheimer correction (DBOC) is:      0.0041388955 a.u.
  The total diagonal Born-Oppenheimer correction (DBOC) is:        908.382573 cm-1
  The total diagonal Born-Oppenheimer correction (DBOC) is:            10.867 kJ/mole
  hellooooooo 
  readis is  F
 
 @CHECKOUT-I, Total execution time (CPU/WALL):        0.01/       0.04 seconds.
--executable xjoda finished with status     0 in        0.07 seconds (walltime).
  The final electronic energy is      -113.230273104813392 a.u. 
  This computation required                         2595.03 seconds (walltime).
