 --invoking executable--
/nfs/workspaces/public/cfour_mpi/bin/xjoda


   *************************************************************************
         <<<     CCCCCC     CCCCCC   |||     CCCCCC     CCCCCC   >>>
       <<<      CCC        CCC       |||    CCC        CCC         >>>
      <<<      CCC        CCC        |||   CCC        CCC            >>>
    <<<        CCC        CCC        |||   CCC        CCC              >>>
      <<<      CCC        CCC        |||   CCC        CCC            >>>
       <<<      CCC        CCC       |||    CCC        CCC         >>>
         <<<     CCCCCC     CCCCCC   |||     CCCCCC     CCCCCC   >>>
   *************************************************************************

     ****************************************************************
     * CFOUR Coupled-Cluster techniques for Computational Chemistry *
     ****************************************************************
 

   Department of Chemistry                Institut fuer Physikalische Chemie
   University of Florida                  Universitaet Mainz
   Gainesville, FL 32611, USA             D-55099 Mainz, Germany

   Department of Chemistry                Fakultaet fuer Chemie und Biowiss.
   Johns Hopkins University               Karlsruher Institut fuer Technologie
   Baltimore, MD 21218, USA               D-76131 Karlsruhe, Germany

   Department of Chemistry                Department of Physical Chemistry
   Southern Methodist University          Eotvos Lorand University
   Dallas, TX 75275, USA                  H-1053 Budapest, Hungary

 
                       Version 2.1
 
                     vincent.theory.phys.ucl.ac.uk                     
                     Mon 24 Feb 14:16:00 GMT 2025                      
                     integer*8 version is running
 
********************************************************************************
*                          Input from ZMAT file                                *
********************************************************************************
Carbon Monoxide DBOC calculation                                                
C                                                                               
O 1 r                                                                           
                                                                                
r=0.9310344827586207                                                            
                                                                                
                                                                                
*CFOUR(CALC=CCSD,BASIS=AUG-PCVQZ,SCF_CONV=10                                    
CC_CONV=14,DBOC=ON,MEMORY=500000000                                             
ZFIELD=-200)                                                                    
                                                                                
%isotopes                                                                       
12                                                                              
16                                                                              
********************************************************************************
  @GTFLGS-I, Hessian will be transformed to curvilinear coordinates.
    -------------------------------------------------------------------
                    CFOUR Control Parameters 
    -------------------------------------------------------------------
        External           Internal           Value            Units
          Name               Name
    -------------------------------------------------------------------
       ABCDTYPE             IABCDT         STANDARD    [  0]    ***   
       ANHARMONIC           IANHAR         OFF         [  0]    ***   
       ANH_ALGORIT          IANALG         STANDARD    [  0]    ***   
       ANH_DERIVAT          IANDER         SECOND      [  1]    ***   
       ANH_MODE             ANHMOD         VIBRATION   [  0]    ***   
       ANH_STEPSIZ          ICUBST             50000          x 10-6  
       ANH_SYMMETR          IANHSM         ABELIAN     [  0]    ***   
       AO_LADDERS           IAOLAD         SINGLEPASS  [  1]    ***   
       AV_SCF               IAVSCF         OFF         [  0]    ***   
       BASIS                IBASIS         AUG-PCVQZ   [ 52]    ***   
       BOTHVECTORS          BOTHVC         OFF         [  0]    ***   
       BOX_POTENT           IPIAB          OFF         [  0]    ***   
       BREIT                IBREIT         OFF         [  0]    ***   
       BRUCK_CONV           IBRTOL          10D-  4             ***   
       BRUECKNER            IBRKNR         OFF         [  0]    ***   
       BUFFERSIZE           IBUFFS              4096            ***   
       CACHE_RECS           ICHREC             10               ***   
       CALCLEVEL            ICLLVL         CCSD        [ 10]    ***   
       CCORBOPT             ICCORB         OFF         [  0]  x 0.01  
       CC_CONV              ICCCNV          10D- 14             ***   
       CC_EXPORDER          ICCEOR              5               ***   
       CC_EXTRAPOL          ICCEXT         DIIS        [  1]    ***   
       CC_GUESS             ICCGES         MP2         [  0]    ***   
       CC_MAXCYC            ICCCYC            100              cycles 
       CC_PROGRAM           ICCPRO         VCC         [  0]    ***   
       CHARGE               ICHRGE              0               ***   
       CHOLESKY             ICHOLE         OFF         [  0]    ***   
       CIS_CONV             ICISTL              5               ***   
       COMM_SIZE            IPSIZE            ***               ***   
       CONSTANT             ICONST         OLD         [  1]    ***   
       CONTINUUM            ICONTU         NONE        [  0]    ***   
       CONTRACTION          ICNTYP         GENERAL     [  1]    ***   
       COORDINATES          ICOORD         INTERNAL    [  0]    ***   
       CPHF_CONVER          ICPHFT          10D- 16             ***   
       CPHF_MAXCYC          ICPHFC             64              cycles 
       CUBIC                ICUBIC         OFF         [  0]    ***   
       CURVILINEAR          ICURVY         ON          [  1]    ***   
       DBOC                 IDBOC          ON          [  1]    ***   
       DCT                  IDCT           OFF         [  0]    ***   
       DERIV_LEV            IDRLVL         SECOND      [  2]    ***   
       DEVMEM_SIZE          IDVMEM          50000000           MByte  
       DIAG_MRCC            IEOMST          10D-  0             ***   
       DIFF_TYPE            IDIFTY         RELAXED     [  0]    ***   
       DIRECT               IDIRCT         OFF         [  0]    ***   
       DROPMO               IDRPMO      NONE         
       ECP                  IECP           OFF         [  0]    ***   
       EIGENVECTOR          IVEC                1               ***   
       EL_ANHARM            IELANH         OFF         [  0]    ***   
       EOMFOLLOW            IEOMSR         ENERGY      [  0]    ***   
       EOMIP                IEOMIP         OFF         [  0]    ***   
       EOMLEVEL             HBARFM         SAME        [  0]    ***   
       EOM_MRCC             IMRCCE         NEW         [  1]    ***   
       EOM_NONIT            EOMNON         OFF         [  0]    ***   
       EOM_NSING            IEOMSI          10D-  0             ***   
       EOM_NSTATES          IMRCCD         DAVIDSON    [  0]    ***   
       EOM_NTRIP            IEOMTR          10D-  0             ***   
       EOM_ORDER            IEXORD         ENERGY      [  0]    ***   
       EOM_PROPSTA          IEOMST              0               ***   
       ESTATE_CONV          IEXTOL          10D-  5             ***   
       ESTATE_DIAG          IEXDIG         ITERATIVE   [  0]    ***   
       ESTATE_LOCK          IESLOC         ON          [  1]    ***   
       ESTATE_MAXC          IEXMXC             40               ***   
       ESTATE_PROP          IEXPRP         OFF         [  0]    ***   
       EVAL_HESS            IRECAL              0            # of cyc.
       EXCITATION           IEXCIT              0               ***   
       EXCITE               IEXCIT         NONE        [  0]    ***   
       EXTERN_POT           IEXPOT         OFF         [  0]    ***   
       FCGRADNEW            IFCGNW         OFF         [  0]    ***   
       FC_FIELD             IFINFC              0             x 10-6  
       FD_CALTYPE           IFDCAL         GRADONLY    [  0]    ***   
       FD_PROJECT           IFDPRJ         OFF         [  1]    ***   
       FD_STEPSIZE          IDISFD              0            10-4 bohr
       FD_USEGROUP          IFDGRP         FULL        [  0]    ***   
       FILE_RECSIZ          IFLREC              4096           words  
       FINITE_PERT          IFIPER              0             x 10-6  
       FIXGEOM              IFIXGM         OFF         [  0]    ***   
       FOCK                 IFOCK          AO          [  1]    ***   
       FREQ_ALGORI          IVIALG         STANDARD    [  0]    ***   
       FROZEN_CORE          IFROCO         OFF         [  0]    ***   
       GAMMA_ABCD           IGABCD         STORE       [  0]    ***   
       GAMMA_ABCI           IGABCI         STORE       [  0]    ***   
       GENBAS_1             IGNBS1              0               ***   
       GENBAS_2             IGNBS2              0               ***   
       GENBAS_3             IGNBS3              0               ***   
       GENBAS_4             IGNBS4              0               ***   
       GEO_CONV             ICONTL              5              H/bohr 
       GEO_MAXCYC           IOPTCY             50               ***   
       GEO_MAXSTEP          IMXSTP            300            millibohr
       GEO_METHOD           INR            SINGLE_POINT[  5]    ***   
       GIAO                 IGIAO          OFF         [  1]    ***   
       GIMIC                IGIMIC         OFF         [  0]    ***   
       GRID                 IGRID          OFF         [  0]    ***   
       GRID_ALGO            IGALGO         SERIAL      [  0]    ***   
       GUESS                IGUESS         MOREAD      [  0]    ***   
       HBAR                 IHBAR          OFF         [  0]    ***   
       HESS_TYPE            IHESTP         SCF         [  0]    ***   
       HF2_FILE             IHF2Fl         USE         [  1]    ***   
       HFSTABILITY          ISTABL         OFF         [  0]    ***   
       INCORE               INCORE         OFF         [  0]    ***   
       INPUT_MRCC           IMRCC          ON          [  1]    ***   
       INTEGRALS            INTTYP         VMOL        [  1]    ***   
       JODA_PRINT           IJPRNT              0               ***   
       KEYWORD_OUT          IDMPKW         NO          [  0]    ***   
       LINDEP_TOL           ILINDP              8               ***   
       LINEQ_CONV           IZTACN          10D-  7           cycles  
       LINEQ_EXPOR          ILMAXD              5               ***   
       LINEQ_MAXCY          ILMAXC            100               ***   
       LINEQ_TYPE           ILTYPE         DIIS        [  1]    ***   
       LOCK_ORBOCC          ILOCOC         OFF         [  0]    ***   
       MEMORY_SIZE          IMEMSZ         500000000           words  
       MEM_UNIT             IMEMU          INTEGERWORDS[  0]    ***   
       MRCC                 IMRCCC         OFF         [  0]    ***   
       MULTIPLICTY          IMULTP              1               ***   
       NACOUPLING           IVCOUP         OFF         [  0]    ***   
       NEGEVAL              IDIE           ABORT       [  0]    ***   
       NEWNORM              INEWNO         OFF         [  0]    ***   
       NON-HF               INONHF         OFF         [  0]    ***   
       NTOP_TAMP            ITOPT2             15               ***   
       NUC_MODEL            INUCMO         POINT       [  0]    ***   
       OCCUPATION           IOCCU   ESTIMATED BY SCF 
       OPEN-SHELL           IOPEN          SPIN-ORBITAL[  0]    ***   
       OPTVIB               IOPTVB         OFF         [  0]    ***   
       ORBITALS             IORBTP         STANDARD    [  0]    ***   
       PARALLEL             IPARAL         ON          [  1]    ***   
       PARA_INT             IPINTS         ON          [  1]    ***   
       PARA_PRINT           IPPRIN              0               ***   
       PERT_ORB             IPTORB         STANDARD    [  0]    ***   
       POINTS               IGRDFD              0               ***   
       PRINT                IPRNT               0               ***   
       PROPS                IPROPS         OFF         [  0]    ***   
       PROP_INTEGR          IINTYP         INTERNAL    [  0]    ***   
       PSI                  IPSI           OFF         [  0]    ***   
       QC_ALG               IQCALG         FLM         [  0]    ***   
       QC_LINALG            IQCLIN         TRIDIAG     [  2]    ***   
       QC_MAXCYC            IQCMAX          10D-100           cycles  
       QC_MAXSCFCY          IQCMSC          10D- 15           cycles  
       QC_RTRUST            IQCRTR          10D-  0           x 10-3  
       QC_SKIPSCF           IQCSKI         OFF         [  0]    ***   
       QC_START             IQCSTA          10D-  1             ***   
       QRHFGUESS            IQGUES         OFF         [  0]    ***   
       QUARTIC              IQUART         OFF         [  0]    ***   
       RAMAN_INT            IRAMIN         OFF         [  0]    ***   
       RAMAN_ORB            IRAMRE         UNRELAXED   [  0]    ***   
       RDO                  IRDOFM         ON          [  1]    ***   
       REDUCE_REPR          REDREP         Ir          [  0]    ***   
       REFERENCE            IREFNC         RHF         [  0]    ***   
       RELATIVIST           IRELAT         OFF         [  0]    ***   
       RELAX_DENS           IRDENS         ON          [  1]    ***   
       RESET_FLAGS          IRESET         OFF         [  0]    ***   
       RESTART_CC           ICCRES         OFF         [  0]    ***   
       ROT_EVEC             ROTVEC              0               ***   
       SAVE_INTS            ISVINT         OFF         [  0]    ***   
       SCALE_ON             ISTCRT              0               ***   
       SCF_CONV             ISCFCV          10D- 10             ***   
       SCF_DAMPING          IDAMP               0             x 10-3  
       SCF_EXPORDE          IRPPOR              6               ***   
       SCF_EXPSTAR          IRPPLS              8               ***   
       SCF_EXTRAPO          IRPP           ON          [  1]    ***   
       SCF_MAXCYC           ISCFCY            150              cycles 
       SCF_NOSTOP           ISCFST         OFF         [  0]    ***   
       SCF_PRINT            ISCFPR              0               ***   
       SCF_PROG             ISCFPR         SCF         [  0]    ***   
       SD_FIELD             IFINSD              0             x 10-6  
       SOPERT               IPERSO         OFF         [  0]    ***   
       SPHERICAL            IDFGHI         ON          [  1]    ***   
       SPINORBIT            ISOCAL         OFF         [  0]    ***   
       SPINROTATIO          ISRCON         OFF         [  0]    ***   
       SPIN_FLIP            ISPFLP         OFF         [  0]    ***   
       SPIN_ORBIT           ISPORB         OFF         [  0]    ***   
       SPIN_SCAL            ISCSMP         OFF         [  0]    ***   
       STEEPSCALE           ISTPSC              1000          x 10-3  
       SUBGROUP             ISUBGP         DEFAULT     [  0]    ***   
       SUBGRPAXIS           ISBXYZ         X           [  0]    ***   
       SYMMETRY             ISYM           ON          [  0]    ***   
       SYM_CHECK            ISYMCK         OVERRIDE    [  1]    ***   
       T3_EXTRAPOL          IT3EXT         OFF         [  0]    ***   
       T4_EXTRAPOL          IT4EXP         OFF         [  0]    ***   
       TAMP_SUM             IEVERY              5               ***   
       TESTSUITE            ITESTS         OFF         [  0]    ***   
       THERMOCH             ITHERM         OFF         [  0]    ***   
       TOL_CHOLESK          ITOLCH          10D-  4             ***   
       TRANGRAD             IRESRM         OFF         [  0]    ***   
       TRANS_INV            ITRAIN         IGNORE      [  1]    ***   
       TREAT_PERT           ITREAT         SIMULTANEOUS[  0]    ***   
       TRIP_ALGORI          ITRALG         NORMAL      [  0]    ***   
       UIJ_THRESHO          IUIJTH              1               ***   
       UNITS                IUNITS         ANGSTROM    [  0]    ***   
       UNOS                 IUNOS          OFF         [  0]    ***   
       UPDATE_HESS          IHUPDT         ON          [  1]    ***   
       VIBPHASE             ISETPH         STANDARD    [  0]    ***   
       VIBRATION            IVIB           ANALYTIC    [  1]    ***   
       VIB_ALGORIT          IGEALG         STANDARD    [  0]    ***   
       VNATORB              IVNORB         OFF         [  0]    ***   
       VTRAN                IVTRAN         FULL/PARTIAL[  0]    ***   
       XFIELD               IXEFLD              0             x 10-6  
       XFORM_TOL            IXFTOL          10D- 11             ***   
       YFIELD               IYEFLD              0             x 10-6  
       ZFIELD               IZEFLD            ***             x 10-6  
       ZSCALE_EXP           IZEXPS         OFF         [  0]    ***   
    -------------------------------------------------------------------
   2 entries found in Z-matrix 
   Job Title : Carbon Monoxide DBOC calculation                                                
   There are  1 unique internal coordinates.
   Of these,  0 will be optimized.
   User supplied Z-matrix: 
--------------------------------------------------------------------------------
       SYMBOL    BOND      LENGTH    ANGLE     ANGLE     DIHED     ANGLE
                  TO      (ANGST)    WRT      (DEG)      WRT      (DEG)
--------------------------------------------------------------------------------
        C    
        O          1         r    
                  *Initial values for internal coordinates* 
                      Name             Value
                        r               0.9310344828
--------------------------------------------------------------------------------
  read isotopes from ZMAT file 
   Rotational constants (in cm-1): 
          2.8364883071             2.8364883071
   Rotational constants (in MHz): 
      85035.7920792806         85035.7920792806
********************************************************************************
   The full molecular point group is CXv .
   The largest Abelian subgroup of the full molecular point group is C2v .
   The computational point group is C2v .
********************************************************************************
--------------------------------------------------------------------------------
   Analysis of internal coordinates specified by Z-matrix 
--------------------------------------------------------------------------------
   *The nuclear repulsion energy is   27.282019377777775 a.u.
   *There is   1 degree of freedom within the tot. symm. molecular subspace.
   *Z-matrix requests optimization of   0 coordinates.
   *The optimization is constrained.
   *The following   1 parameters can have non-zero 
    derivatives within the totally symmetric subspace:
             r    [ 1]
   *The following   0 parameters are to be optimized:

   *The following coordinates must be varied in an  unconstrained optimization.
             r    [ 1]
--------------------------------------------------------------------------------


 ----------------------------------------------------------------
         Coordinates used in calculation (QCOMP) 
 ----------------------------------------------------------------
 Z-matrix   Atomic            Coordinates (in bohr)
  Symbol    Number           X              Y              Z
 ----------------------------------------------------------------
     C         6        -0.00000000     0.00000000     1.00523477
     O         8         0.00000000     0.00000000    -0.75416578
 ----------------------------------------------------------------
 
   Interatomic distance matrix (Angstroms) 
 
                 C             O    
                [ 1]        [ 2]
  C    [ 1]     0.00000
  O    [ 2]     0.93103     0.00000
 rotcon2
   Rotational constants (in cm-1): 
          2.8364883071             0.0000000000
   Rotational constants (in MHz): 
      85035.7920792806             0.0000000000
  ECPDATA file not present.   Using default ECPDATA. 
  @GTFLGS-I, Hessian will be transformed to curvilinear coordinates.
  There are  218 basis functions.
 @CHECKOUT-I, Total execution time (CPU/WALL):        0.11/       0.12 seconds.
--executable xjoda finished with status     0 in        0.13 seconds (walltime).
 --invoking executable--
/nfs/workspaces/public/cfour_mpi/bin/xvmol
 SERIAL VERSION OF MOLECULE STARTED
********************************************************************************
                    INPUT FROM MOL FILE
********************************************************************************
INTGRL        1    0    1    0    0    0    0    0    0                         
         *** CFOUR Program System (Release V0.1) ***                            
Carbon Monoxide DBOC calculation                                                
    2    2 X  Y       0.10E-08              0    0                              
   9999.00      3.00                                                            
          6.00000000    1    5    1    1    1    1    1                         
C #1  -0.000000000000000   0.000000000000000   1.005234773127331                
   16    9                                                                      
   33980.0000000000       9.100000000000000E-005 -1.900000000000000E-005        
  0.000000000000000E+000  0.000000000000000E+000  0.000000000000000E+000        
  0.000000000000000E+000  0.000000000000000E+000  0.000000000000000E+000        
  0.000000000000000E+000                                                        
   5089.00000000000       7.040000000000000E-004 -1.510000000000000E-004        
  0.000000000000000E+000  0.000000000000000E+000  0.000000000000000E+000        
  0.000000000000000E+000  0.000000000000000E+000  0.000000000000000E+000        
  0.000000000000000E+000                                                        
   1157.00000000000       3.693000000000000E-003 -7.850000000000000E-004        
  0.000000000000000E+000  0.000000000000000E+000  0.000000000000000E+000        
  0.000000000000000E+000  0.000000000000000E+000  0.000000000000000E+000        
  0.000000000000000E+000                                                        
   326.600000000000       1.536000000000000E-002 -3.324000000000000E-003        
  0.000000000000000E+000  0.000000000000000E+000  0.000000000000000E+000        
  0.000000000000000E+000  0.000000000000000E+000  0.000000000000000E+000        
  0.000000000000000E+000                                                        
   106.100000000000       5.292900000000000E-002 -1.151200000000000E-002        
  0.000000000000000E+000  0.000000000000000E+000  0.000000000000000E+000        
  0.000000000000000E+000  0.000000000000000E+000  0.000000000000000E+000        
  0.000000000000000E+000                                                        
   38.1100000000000       0.147043000000000      -3.416000000000000E-002        
  0.000000000000000E+000  0.000000000000000E+000  0.000000000000000E+000        
  0.000000000000000E+000  0.000000000000000E+000  0.000000000000000E+000        
  0.000000000000000E+000                                                        
   14.7500000000000       0.305631000000000      -7.717300000000001E-002        
  0.000000000000000E+000  0.000000000000000E+000  0.000000000000000E+000        
  0.000000000000000E+000  0.000000000000000E+000  0.000000000000000E+000        
  0.000000000000000E+000                                                        
   6.03500000000000       0.399345000000000      -0.141493000000000             
  0.000000000000000E+000  0.000000000000000E+000  0.000000000000000E+000        
  0.000000000000000E+000  0.000000000000000E+000  0.000000000000000E+000        
  0.000000000000000E+000                                                        
   2.53000000000000       0.217051000000000      -0.118019000000000             
  0.000000000000000E+000  0.000000000000000E+000  0.000000000000000E+000        
  0.000000000000000E+000  0.000000000000000E+000  0.000000000000000E+000        
  0.000000000000000E+000                                                        
  0.735500000000000       1.589400000000000E-002  0.273806000000000             
   1.00000000000000       0.000000000000000E+000  0.000000000000000E+000        
  0.000000000000000E+000  0.000000000000000E+000  0.000000000000000E+000        
  0.000000000000000E+000                                                        
  0.290500000000000      -3.084000000000000E-003  0.586510000000000             
  0.000000000000000E+000   1.00000000000000       0.000000000000000E+000        
  0.000000000000000E+000  0.000000000000000E+000  0.000000000000000E+000        
  0.000000000000000E+000                                                        
  0.111100000000000       9.779999999999999E-004  0.285430000000000             
  0.000000000000000E+000  0.000000000000000E+000   1.00000000000000             
  0.000000000000000E+000  0.000000000000000E+000  0.000000000000000E+000        
  0.000000000000000E+000                                                        
   7.21600000000000       0.000000000000000E+000  0.000000000000000E+000        
  0.000000000000000E+000  0.000000000000000E+000  0.000000000000000E+000        
   1.00000000000000       0.000000000000000E+000  0.000000000000000E+000        
  0.000000000000000E+000                                                        
   19.5700000000000       0.000000000000000E+000  0.000000000000000E+000        
  0.000000000000000E+000  0.000000000000000E+000  0.000000000000000E+000        
  0.000000000000000E+000   1.00000000000000       0.000000000000000E+000        
  0.000000000000000E+000                                                        
   53.0730000000000       0.000000000000000E+000  0.000000000000000E+000        
  0.000000000000000E+000  0.000000000000000E+000  0.000000000000000E+000        
  0.000000000000000E+000  0.000000000000000E+000   1.00000000000000             
  0.000000000000000E+000                                                        
  4.145000000000000E-002  0.000000000000000E+000  0.000000000000000E+000        
  0.000000000000000E+000  0.000000000000000E+000  0.000000000000000E+000        
  0.000000000000000E+000  0.000000000000000E+000  0.000000000000000E+000        
   1.00000000000000                                                             
   10    8                                                                      
   34.5100000000000       5.378000000000000E-003  0.000000000000000E+000        
  0.000000000000000E+000  0.000000000000000E+000  0.000000000000000E+000        
  0.000000000000000E+000  0.000000000000000E+000  0.000000000000000E+000        
   7.91500000000000       3.613200000000000E-002  0.000000000000000E+000        
  0.000000000000000E+000  0.000000000000000E+000  0.000000000000000E+000        
  0.000000000000000E+000  0.000000000000000E+000  0.000000000000000E+000        
   2.36800000000000       0.142493000000000       0.000000000000000E+000        
  0.000000000000000E+000  0.000000000000000E+000  0.000000000000000E+000        
  0.000000000000000E+000  0.000000000000000E+000  0.000000000000000E+000        
  0.813200000000000       0.342150000000000        1.00000000000000             
  0.000000000000000E+000  0.000000000000000E+000  0.000000000000000E+000        
  0.000000000000000E+000  0.000000000000000E+000  0.000000000000000E+000        
  0.289000000000000       0.463864000000000       0.000000000000000E+000        
   1.00000000000000       0.000000000000000E+000  0.000000000000000E+000        
  0.000000000000000E+000  0.000000000000000E+000  0.000000000000000E+000        
  0.100700000000000       0.250028000000000       0.000000000000000E+000        
  0.000000000000000E+000   1.00000000000000       0.000000000000000E+000        
  0.000000000000000E+000  0.000000000000000E+000  0.000000000000000E+000        
   8.18200000000000       0.000000000000000E+000  0.000000000000000E+000        
  0.000000000000000E+000  0.000000000000000E+000   1.00000000000000             
  0.000000000000000E+000  0.000000000000000E+000  0.000000000000000E+000        
   24.1860000000000       0.000000000000000E+000  0.000000000000000E+000        
  0.000000000000000E+000  0.000000000000000E+000  0.000000000000000E+000        
   1.00000000000000       0.000000000000000E+000  0.000000000000000E+000        
   71.4940000000000       0.000000000000000E+000  0.000000000000000E+000        
  0.000000000000000E+000  0.000000000000000E+000  0.000000000000000E+000        
  0.000000000000000E+000   1.00000000000000       0.000000000000000E+000        
  3.218000000000000E-002  0.000000000000000E+000  0.000000000000000E+000        
  0.000000000000000E+000  0.000000000000000E+000  0.000000000000000E+000        
  0.000000000000000E+000  0.000000000000000E+000   1.00000000000000             
    6    6                                                                      
   1.84800000000000        1.00000000000000       0.000000000000000E+000        
  0.000000000000000E+000  0.000000000000000E+000  0.000000000000000E+000        
  0.000000000000000E+000                                                        
  0.649000000000000       0.000000000000000E+000   1.00000000000000             
  0.000000000000000E+000  0.000000000000000E+000  0.000000000000000E+000        
  0.000000000000000E+000                                                        
  0.228000000000000       0.000000000000000E+000  0.000000000000000E+000        
   1.00000000000000       0.000000000000000E+000  0.000000000000000E+000        
  0.000000000000000E+000                                                        
   8.65600000000000       0.000000000000000E+000  0.000000000000000E+000        
  0.000000000000000E+000   1.00000000000000       0.000000000000000E+000        
  0.000000000000000E+000                                                        
   33.2130000000000       0.000000000000000E+000  0.000000000000000E+000        
  0.000000000000000E+000  0.000000000000000E+000   1.00000000000000             
  0.000000000000000E+000                                                        
  7.660000000000000E-002  0.000000000000000E+000  0.000000000000000E+000        
  0.000000000000000E+000  0.000000000000000E+000  0.000000000000000E+000        
   1.00000000000000                                                             
    4    4                                                                      
   1.41900000000000        1.00000000000000       0.000000000000000E+000        
  0.000000000000000E+000  0.000000000000000E+000                                
  0.485000000000000       0.000000000000000E+000   1.00000000000000             
  0.000000000000000E+000  0.000000000000000E+000                                
   24.6940000000000       0.000000000000000E+000  0.000000000000000E+000        
   1.00000000000000       0.000000000000000E+000                                
  0.187000000000000       0.000000000000000E+000  0.000000000000000E+000        
  0.000000000000000E+000   1.00000000000000                                     
    2    2                                                                      
   1.01100000000000        1.00000000000000       0.000000000000000E+000        
  0.424000000000000       0.000000000000000E+000   1.00000000000000             
          8.00000000    1    5    1    1    1    1    1                         
O #2   0.000000000000000   0.000000000000000  -0.754165780597728                
   16    9                                                                      
   61420.0000000000       9.000000000000001E-005 -2.000000000000000E-005        
  0.000000000000000E+000  0.000000000000000E+000  0.000000000000000E+000        
  0.000000000000000E+000  0.000000000000000E+000  0.000000000000000E+000        
  0.000000000000000E+000                                                        
   9199.00000000000       6.980000000000001E-004 -1.590000000000000E-004        
  0.000000000000000E+000  0.000000000000000E+000  0.000000000000000E+000        
  0.000000000000000E+000  0.000000000000000E+000  0.000000000000000E+000        
  0.000000000000000E+000                                                        
   2091.00000000000       3.664000000000000E-003 -8.290000000000000E-004        
  0.000000000000000E+000  0.000000000000000E+000  0.000000000000000E+000        
  0.000000000000000E+000  0.000000000000000E+000  0.000000000000000E+000        
  0.000000000000000E+000                                                        
   590.900000000000       1.521800000000000E-002 -3.508000000000000E-003        
  0.000000000000000E+000  0.000000000000000E+000  0.000000000000000E+000        
  0.000000000000000E+000  0.000000000000000E+000  0.000000000000000E+000        
  0.000000000000000E+000                                                        
   192.300000000000       5.242300000000000E-002 -1.215600000000000E-002        
  0.000000000000000E+000  0.000000000000000E+000  0.000000000000000E+000        
  0.000000000000000E+000  0.000000000000000E+000  0.000000000000000E+000        
  0.000000000000000E+000                                                        
   69.3200000000000       0.145921000000000      -3.626100000000000E-002        
  0.000000000000000E+000  0.000000000000000E+000  0.000000000000000E+000        
  0.000000000000000E+000  0.000000000000000E+000  0.000000000000000E+000        
  0.000000000000000E+000                                                        
   26.9700000000000       0.305258000000000      -8.299200000000000E-002        
  0.000000000000000E+000  0.000000000000000E+000  0.000000000000000E+000        
  0.000000000000000E+000  0.000000000000000E+000  0.000000000000000E+000        
  0.000000000000000E+000                                                        
   11.1000000000000       0.398508000000000      -0.152090000000000             
  0.000000000000000E+000  0.000000000000000E+000  0.000000000000000E+000        
  0.000000000000000E+000  0.000000000000000E+000  0.000000000000000E+000        
  0.000000000000000E+000                                                        
   4.68200000000000       0.216980000000000      -0.115331000000000             
  0.000000000000000E+000  0.000000000000000E+000  0.000000000000000E+000        
  0.000000000000000E+000  0.000000000000000E+000  0.000000000000000E+000        
  0.000000000000000E+000                                                        
   1.42800000000000       1.759400000000000E-002  0.288979000000000             
   1.00000000000000       0.000000000000000E+000  0.000000000000000E+000        
  0.000000000000000E+000  0.000000000000000E+000  0.000000000000000E+000        
  0.000000000000000E+000                                                        
  0.554700000000000      -2.502000000000000E-003  0.586128000000000             
  0.000000000000000E+000   1.00000000000000       0.000000000000000E+000        
  0.000000000000000E+000  0.000000000000000E+000  0.000000000000000E+000        
  0.000000000000000E+000                                                        
  0.206700000000000       9.540000000000000E-004  0.277624000000000             
  0.000000000000000E+000  0.000000000000000E+000   1.00000000000000             
  0.000000000000000E+000  0.000000000000000E+000  0.000000000000000E+000        
  0.000000000000000E+000                                                        
   12.9740000000000       0.000000000000000E+000  0.000000000000000E+000        
  0.000000000000000E+000  0.000000000000000E+000  0.000000000000000E+000        
   1.00000000000000       0.000000000000000E+000  0.000000000000000E+000        
  0.000000000000000E+000                                                        
   34.9000000000000       0.000000000000000E+000  0.000000000000000E+000        
  0.000000000000000E+000  0.000000000000000E+000  0.000000000000000E+000        
  0.000000000000000E+000   1.00000000000000       0.000000000000000E+000        
  0.000000000000000E+000                                                        
   93.8810000000000       0.000000000000000E+000  0.000000000000000E+000        
  0.000000000000000E+000  0.000000000000000E+000  0.000000000000000E+000        
  0.000000000000000E+000  0.000000000000000E+000   1.00000000000000             
  0.000000000000000E+000                                                        
  6.959000000000000E-002  0.000000000000000E+000  0.000000000000000E+000        
  0.000000000000000E+000  0.000000000000000E+000  0.000000000000000E+000        
  0.000000000000000E+000  0.000000000000000E+000  0.000000000000000E+000        
   1.00000000000000                                                             
   10    8                                                                      
   63.4200000000000       6.044000000000000E-003  0.000000000000000E+000        
  0.000000000000000E+000  0.000000000000000E+000  0.000000000000000E+000        
  0.000000000000000E+000  0.000000000000000E+000  0.000000000000000E+000        
   14.6600000000000       4.179900000000000E-002  0.000000000000000E+000        
  0.000000000000000E+000  0.000000000000000E+000  0.000000000000000E+000        
  0.000000000000000E+000  0.000000000000000E+000  0.000000000000000E+000        
   4.45900000000000       0.161143000000000       0.000000000000000E+000        
  0.000000000000000E+000  0.000000000000000E+000  0.000000000000000E+000        
  0.000000000000000E+000  0.000000000000000E+000  0.000000000000000E+000        
   1.53100000000000       0.356731000000000        1.00000000000000             
  0.000000000000000E+000  0.000000000000000E+000  0.000000000000000E+000        
  0.000000000000000E+000  0.000000000000000E+000  0.000000000000000E+000        
  0.530200000000000       0.448309000000000       0.000000000000000E+000        
   1.00000000000000       0.000000000000000E+000  0.000000000000000E+000        
  0.000000000000000E+000  0.000000000000000E+000  0.000000000000000E+000        
  0.175000000000000       0.244940000000000       0.000000000000000E+000        
  0.000000000000000E+000   1.00000000000000       0.000000000000000E+000        
  0.000000000000000E+000  0.000000000000000E+000  0.000000000000000E+000        
   14.4750000000000       0.000000000000000E+000  0.000000000000000E+000        
  0.000000000000000E+000  0.000000000000000E+000   1.00000000000000             
  0.000000000000000E+000  0.000000000000000E+000  0.000000000000000E+000        
   42.7300000000000       0.000000000000000E+000  0.000000000000000E+000        
  0.000000000000000E+000  0.000000000000000E+000  0.000000000000000E+000        
   1.00000000000000       0.000000000000000E+000  0.000000000000000E+000        
   126.140000000000       0.000000000000000E+000  0.000000000000000E+000        
  0.000000000000000E+000  0.000000000000000E+000  0.000000000000000E+000        
  0.000000000000000E+000   1.00000000000000       0.000000000000000E+000        
  5.348000000000000E-002  0.000000000000000E+000  0.000000000000000E+000        
  0.000000000000000E+000  0.000000000000000E+000  0.000000000000000E+000        
  0.000000000000000E+000  0.000000000000000E+000   1.00000000000000             
    6    6                                                                      
   3.77500000000000        1.00000000000000       0.000000000000000E+000        
  0.000000000000000E+000  0.000000000000000E+000  0.000000000000000E+000        
  0.000000000000000E+000                                                        
   1.30000000000000       0.000000000000000E+000   1.00000000000000             
  0.000000000000000E+000  0.000000000000000E+000  0.000000000000000E+000        
  0.000000000000000E+000                                                        
  0.444000000000000       0.000000000000000E+000  0.000000000000000E+000        
   1.00000000000000       0.000000000000000E+000  0.000000000000000E+000        
  0.000000000000000E+000                                                        
   14.9270000000000       0.000000000000000E+000  0.000000000000000E+000        
  0.000000000000000E+000   1.00000000000000       0.000000000000000E+000        
  0.000000000000000E+000                                                        
   57.5440000000000       0.000000000000000E+000  0.000000000000000E+000        
  0.000000000000000E+000  0.000000000000000E+000   1.00000000000000             
  0.000000000000000E+000                                                        
  0.154000000000000       0.000000000000000E+000  0.000000000000000E+000        
  0.000000000000000E+000  0.000000000000000E+000  0.000000000000000E+000        
   1.00000000000000                                                             
    4    4                                                                      
   2.66600000000000        1.00000000000000       0.000000000000000E+000        
  0.000000000000000E+000  0.000000000000000E+000                                
  0.859000000000000       0.000000000000000E+000   1.00000000000000             
  0.000000000000000E+000  0.000000000000000E+000                                
   26.4830000000000       0.000000000000000E+000  0.000000000000000E+000        
   1.00000000000000       0.000000000000000E+000                                
  0.324000000000000       0.000000000000000E+000  0.000000000000000E+000        
  0.000000000000000E+000   1.00000000000000                                     
    2    2                                                                      
   1.84600000000000        1.00000000000000       0.000000000000000E+000        
  0.714000000000000       0.000000000000000E+000   1.00000000000000             
FINISH                                                                          
 
********************************************************************************
 ONE- AND TWO-ELECTRON INTEGRALS OVER SYMMETRY-ADAPTED AOS ARE CALCULATED.

  SPHERICAL HARMONICS ARE USED.
  
  INTEGRALS LESS THAN  0.10E-13 ARE NEGLECTED.

  NUCLEAR REPULSION ENERGY :   27.2820193778 A.U.
  @MOLECU-I, ONE ELECTRON INTEGRALS (CPU/WALL):        0.08/       0.09 SECONDS.
  @TWOEL-I,    4709304 INTEGRALS OF SYMMETRY TYPE  I I I I
  @TWOEL-I,   20152466 INTEGRALS OF SYMMETRY TYPE  I J I J
  @TWOEL-I,   10620543 INTEGRALS OF SYMMETRY TYPE  I I J J
  @TWOEL-I,   14873331 INTEGRALS OF SYMMETRY TYPE  I J K L
  @TWOEL-I, TOTAL NUMBER OF 2-E INTEGRALS   50355644.
  @MOLECU-I, TWO ELECTRON INTEGRALS (CPU/WALL):      186.68/      25.57 SECONDS.
 @CHECKOUT-I, Total execution time (CPU/WALL):      186.77/      25.67 seconds.

Running with 14 threads/proc

--executable xvmol finished with status     0 in       25.69 seconds (walltime).
 --invoking executable--
/nfs/workspaces/public/cfour_mpi/bin/xvmol2ja
 @GETMEM-I,  Allocated    3814 MB of main memory.
 @CHECKOUT-I, Total execution time (CPU/WALL):        0.12/       0.06 seconds.
--executable xvmol2ja finished with status     0 in        0.08 seconds (walltime).
 --invoking executable--
/nfs/workspaces/public/cfour_mpi/bin/xvprop
 @GETMEM-I,  Allocated    3814 MB of main memory.
   Property integrals will be calculated.
    --------------------------------------------------------------
                                   Property evaluated at 
    Property type                X             Y             Z
    --------------------------------------------------------------
    Dipole moment               ----          ----          ----  
    Quadrupole moment           ----          ----          ----  
    Octopole moment             ----          ----          ----  
    Relativisitic corr.         ----          ----          ----  
    Second moment            0.0000000     0.0000000     0.0000000
    Electron density         0.0000000     0.0000000     1.0052348
    Electron density         0.0000000     0.0000000    -0.7541658
    Field gradient           0.0000000     0.0000000     1.0052348
    Field gradient           0.0000000     0.0000000    -0.7541658
    Potential                0.0000000     0.0000000     1.0052348
    Potential                0.0000000     0.0000000    -0.7541658
    --------------------------------------------------------------
 @CHECKOUT-I, Total execution time (CPU/WALL):        1.41/       1.45 seconds.
--executable xvprop finished with status     0 in        1.46 seconds (walltime).
 --invoking executable--
/nfs/workspaces/public/cfour_mpi/bin/xvscf
  There are  218 functions in the AO basis.

  There are 4 irreducible representations.

       Irrep        # of functions
         1                 86
         2                 52
         3                 52
         4                 28


  Parameters for SCF calculation: 
        SCF reference function:  RHF  
  Maximum number of iterations:  150
     Full symmetry point group: CXv 
     Computational point group: C2v 
        Initial density matrix: MOREAD                 
     SCF convergence tolerance: 10**(-10)
  DIIS convergence acceleration:  ON
          Latest start for DIIS:   8
                     DIIS order:   6

  Memory information:    2523578 words required.
  Fock matrices are constructed from AO integral file.
 @GETMEM-I,  Allocated      19 MB of main memory.
  Initialization and symmetry analysis required      0.001 seconds.

  Adding electric field perturbation to one-electron Hamiltonian.
  Field direction     : Z
  Field strength      : -0.0002000 a.u.

  @INITGES-I, Occupancies from core Hamiltonian:

          Alpha population by irrep:   5    1    1    0
           Beta population by irrep:   5    1    1    0


 total no. of electrons in initial guess :  0.000000000000000E+000
  --------------------------------------------------------------------
  Iteration         Total Energy            Largest Density Difference
  --------------------------------------------------------------------
       0            27.282018994256568              0.0000000000D+00
   current occupation vector 
     5  1  1  0
     5  1  1  0
       1           -89.705721470186688              0.2067334317D+02
   current occupation vector 
     5  1  1  0
     5  1  1  0
       2           -91.695957882646155              0.1224650192D+03
   current occupation vector 
     5  1  1  0
     5  1  1  0
       3          -104.299814878828414              0.1224834907D+03
   current occupation vector 
     4  2  1  0
     4  2  1  0
       4          -102.164232137367890              0.1833319591D+02
   current occupation vector 
     5  1  1  0
     5  1  1  0
       5          -106.462052458786502              0.1833180391D+02
   current occupation vector 
     4  2  1  0
     4  2  1  0
       6          -103.858591896300197              0.1366304198D+02
   current occupation vector 
     5  1  1  0
     5  1  1  0
       7          -105.400840684597455              0.1338716162D+02
   current occupation vector 
     5  1  1  0
     5  1  1  0
       8          -103.004374810318950              0.4851586842D+01
   current occupation vector 
     5  1  1  0
     5  1  1  0
       9          -112.095166963849834              0.3058310032D+01
   current occupation vector 
     5  1  1  0
     5  1  1  0
      10          -112.584749117362293              0.6666261792D+00
   current occupation vector 
     5  1  1  0
     5  1  1  0
      11          -112.668799868338851              0.2228343064D+00
   current occupation vector 
     5  1  1  0
     5  1  1  0
      12          -112.670966334928067              0.4415641398D-01
   current occupation vector 
     5  1  1  0
     5  1  1  0
      13          -112.671057658778437              0.1304230556D-01
   current occupation vector 
     5  1  1  0
     5  1  1  0
      14          -112.671064847306980              0.3808607368D-02
   current occupation vector 
     5  1  1  0
     5  1  1  0
      15          -112.671065988781208              0.1848446368D-02
   current occupation vector 
     5  1  1  0
     5  1  1  0
      16          -112.671066064948917              0.4499110649D-03
   current occupation vector 
     5  1  1  0
     5  1  1  0
      17          -112.671066067628345              0.9602167407D-04
   current occupation vector 
     5  1  1  0
     5  1  1  0
      18          -112.671066067688599              0.1069259594D-04
   current occupation vector 
     5  1  1  0
     5  1  1  0
      19          -112.671066067691413              0.1615162927D-05
   current occupation vector 
     5  1  1  0
     5  1  1  0
      20          -112.671066067690248              0.4996287402D-06
   current occupation vector 
     5  1  1  0
     5  1  1  0
      21          -112.671066067691129              0.8403599661D-07
   current occupation vector 
     5  1  1  0
     5  1  1  0
      22          -112.671066067691214              0.1874739275D-07
   current occupation vector 
     5  1  1  0
     5  1  1  0
      23          -112.671066067691129              0.4847043433D-08
   current occupation vector 
     5  1  1  0
     5  1  1  0
      24          -112.671066067690788              0.1536004879D-08
   current occupation vector 
     5  1  1  0
     5  1  1  0
      25          -112.671066067690731              0.6249620821D-09
   current occupation vector 
     5  1  1  0
     5  1  1  0
      26          -112.671066067690447              0.1920223980D-09
   current occupation vector 
     5  1  1  0
     5  1  1  0
      27          -112.671066067690049              0.2651357467D-09
   current occupation vector 
     5  1  1  0
     5  1  1  0
      28          -112.671066067690418              0.1408756445D-09
   current occupation vector 
     5  1  1  0
     5  1  1  0

  SCF has converged.

 Density matrix saved to file den.dat
 total electron number:   14.0000000000005     
     E(SCF)=      -112.671066067690532              0.5054556079D-10

  Eigenvector printing suppressed.

 @PUTMOS-I, Writing converged MOs to NEWMOS. 
 @PUTMOS-I, Symmetry   1 Full Blocks 21 Partial Blocksize   2
 @PUTMOS-I, Symmetry   2 Full Blocks 13 Partial Blocksize   0
 @PUTMOS-I, Symmetry   3 Full Blocks 13 Partial Blocksize   0
 @PUTMOS-I, Symmetry   4 Full Blocks  7 Partial Blocksize   0
 @PUTFOCK-I, Writing converged Fock matrix to NEWFOCK. 
 @PUTFOCK-I, Symmetry   1 Full Blocks 21 Partial Blocksize   2
 @PUTFOCK-I, Symmetry   2 Full Blocks 13 Partial Blocksize   0
 @PUTFOCK-I, Symmetry   3 Full Blocks 13 Partial Blocksize   0
 @PUTFOCK-I, Symmetry   4 Full Blocks  7 Partial Blocksize   0


 
  ORBITAL EIGENVALUES (ALPHA)  (1H = 27.2113834 eV)

       MO #        E(hartree)               E(eV)           FULLSYM    COMPSYM
       ----   --------------------   --------------------   -------   ---------
    1     1         -20.6488197234        -561.8829502516     SG+        A1 (1)
    2     2         -11.2715840002        -306.7153937541     SG+        A1 (1)
    3     3          -1.6604981278         -45.1844511918     SG+        A1 (1)
    4     4          -0.8206974916         -22.3323140996     SG+        A1 (1)
    5    87          -0.7424933044         -20.2042699769      PI        B1 (2)
    6   139          -0.7424933044         -20.2042699769      PI        B2 (3)
    7     5          -0.5256561071         -14.3038298666     SG+        A1 (1)
  +++++++++++++++++++++++++++++++++++++++++++++++++++++++++++++++++++++++++++++
    8     6           0.0570067230           1.5512317947     SG+        A1 (1)
    9    88           0.0644336658           1.7533291842      PI        B1 (2)
   10   140           0.0644336658           1.7533291842      PI        B2 (3)
   11     7           0.0761206093           2.0713470830     SG+        A1 (1)
   12    89           0.1548228791           4.2129447211      PI        B1 (2)
   13   141           0.1548228791           4.2129447211      PI        B2 (3)
   14     8           0.1567440788           4.2652232245     SG+        A1 (1)
   15    90           0.2062341288           5.6119159494      PI        B1 (2)
   16   142           0.2062341288           5.6119159494      PI        B2 (3)
   17     9           0.2266166033           6.1665512770     SG+        A1 (1)
   18   191           0.2267401445           6.1699130039      DE        A2 (4)
   19    10           0.2267401445           6.1699130039      DE        A1 (1)
   20    11           0.3019465974           8.2163846279     SG+        A1 (1)
   21    91           0.3465003535           9.4287539668      PI        B1 (2)
   22   143           0.3465003535           9.4287539668      PI        B2 (3)
   23    12           0.3997882926          10.8787925092     SG+        A1 (1)
   24   144           0.4085361101          11.1168327242      PI        B2 (3)
   25    92           0.4085361101          11.1168327243      PI        B1 (2)
   26    13           0.5078529321          13.8193808467     SG+        A1 (1)
   27   192           0.5191505730          14.1268052852      DE        A2 (4)
   28    14           0.5191505730          14.1268052852      DE        A1 (1)
   29    93           0.6179260739          16.8146233097      PI        B1 (2)
   30   145           0.6179260739          16.8146233097      PI        B2 (3)
   31    15           0.6594896789          17.9456265011     SG+        A1 (1)
   32    94           0.7497914304          20.4028620828      PH        B1 (2)
   33   146           0.7497914304          20.4028620828      PH        B2 (3)
   34   193           0.7691572607          20.9298331154      DE        A2 (4)
   35    16           0.7691572607          20.9298331155      DE        A1 (1)
   36    17           0.7972943996          21.6954835914     SG+        A1 (1)
   37   147           0.8489338823          23.1006653522      PI        B2 (3)
   38    95           0.8489338823          23.1006653523      PI        B1 (2)
   39   148           0.8693568143          23.6564015846      PI        B2 (3)
   40    96           0.8693568143          23.6564015846      PI        B1 (2)
   41    18           0.8798863522          23.9429248770     SG+        A1 (1)
   42    19           0.9097188226          24.7547076670      DE        A1 (1)
   43   194           0.9097188226          24.7547076670      DE        A2 (4)
   44    20           0.9657406292          26.2791385269     SG+        A1 (1)
   45   149           1.1323472400          30.8127348898      PI        B2 (3)
   46    97           1.1323472400          30.8127348899      PI        B1 (2)
   47    21           1.3629579665          37.0879717858     SG+        A1 (1)
   48   150           1.4598053557          39.7233232233      PH        B2 (3)
   49    98           1.4598053557          39.7233232233      PH        B1 (2)
   50    22           1.4955754234          40.6966762504      DE        A1 (1)
   51   195           1.4955754234          40.6966762504      DE        A2 (4)
   52    99           1.5237348339          41.4629327659      PI        B1 (2)
   53   151           1.5237348339          41.4629327659      PI        B2 (3)
   54    23           1.5624845790          42.5173669357     SG+        A1 (1)
   55    24           1.6643441590          45.2891070199     SG+        A1 (1)
   56   196           1.7732131731          48.2515835023      DE        A2 (4)
   57    25           1.7732131731          48.2515835023      DE        A1 (1)
   58    26           1.7790390464          48.4101135749     SG+        A1 (1)
   59   152           1.8550911879          50.4795975553      PI        B2 (3)
   60   100           1.8550911879          50.4795975554      PI        B1 (2)
   61   101           2.0208275790          54.9895140378      PI        B1 (2)
   62   153           2.0208275790          54.9895140378      PI        B2 (3)
   63   197           2.1161592309          57.5836201665      PI        A2 (4)
   64    27           2.1161592309          57.5836201665      PI        A1 (1)
   65    28           2.2384214651          60.9105446967     SG+        A1 (1)
   66   198           2.2434059248          61.0461787420      DE        A2 (4)
   67    29           2.2434059248          61.0461787420      DE        A1 (1)
   68   102           2.2644364218          61.6184476588      PH        B1 (2)
   69   154           2.2644364218          61.6184476588      PH        B2 (3)
   70    30           2.3508490226          63.9698540699     SG+        A1 (1)
   71   103           2.3584580470          64.1769061500      PI        B1 (2)
   72   155           2.3584580470          64.1769061500      PI        B2 (3)
   73   199           2.3936000761          65.1331693757      DE        A2 (4)
   74    31           2.3936000761          65.1331693758      DE        A1 (1)
   75   156           2.4402282062          66.4019853018      PH        B2 (3)
   76   104           2.4402282062          66.4019853018      PH        B1 (2)
   77   105           2.6107343422          71.0416931420      PI        B1 (2)
   78   157           2.6107343422          71.0416931420      PI        B2 (3)
   79    32           2.6520292638          72.1653850846     SG+        A1 (1)
   80   158           3.0658867593          83.4270200675      PI        B2 (3)
   81   106           3.0658867593          83.4270200675      PI        B1 (2)
   82   200           3.1601660080          85.9924888500      DE        A2 (4)
   83    33           3.1601660080          85.9924888504      DE        A1 (1)
   84    34           3.1845555293          86.6561614650     SG+        A1 (1)
   85    35           3.3540200796          91.2675263186     SG+        A1 (1)
   86   159           3.7400477457         101.7718731419      PI        B2 (3)
   87   107           3.7400477457         101.7718731420      PI        B1 (2)
   88   201           3.7793615994         102.8416574894      PI        A2 (4)
   89    36           3.7793615994         102.8416574894      PI        A1 (1)
   90    37           4.0070685685         109.0378791263     SG+        A1 (1)
   91   108           4.0594822451         110.4641277761      PH        B1 (2)
   92   160           4.0594822451         110.4641277761      PH        B2 (3)
   93   202           4.1803974972         113.7543990616      DE        A2 (4)
   94    38           4.1803974972         113.7543990617      DE        A1 (1)
   95   161           4.2197437868         114.8250660314      PI        B2 (3)
   96   109           4.2197437868         114.8250660314      PI        B1 (2)
   97    39           4.3561860948         118.5378499879     SG+        A1 (1)
   98   203           4.4738153709         121.7387053177      DE        A2 (4)
   99    40           4.4738153709         121.7387053178      DE        A1 (1)
  100   110           4.5271278622         123.1894119604      PH        B1 (2)
  101   162           4.5271278622         123.1894119604      PH        B2 (3)
  102    41           4.7207634264         128.4585035355     SG+        A1 (1)
  103   163           4.9343988425         134.2718187512      PI        B2 (3)
  104   111           4.9343988425         134.2718187513      PI        B1 (2)
  105    42           5.1744901909         140.8050364853     SG+        A1 (1)
  106    43           5.2067974036         141.6841604357      DE        A1 (1)
  107   204           5.2067974036         141.6841604357      DE        A2 (4)
  108   164           5.3513131791         145.6166346097      PI        B2 (3)
  109   112           5.3513131791         145.6166346097      PI        B1 (2)
  110    44           5.9319374765         161.4162249785      PI        A1 (1)
  111   205           5.9319374765         161.4162249785      PI        A2 (4)
  112   113           6.0226566167         163.8848182824      PI        B1 (2)
  113   165           6.0226566167         163.8848182825      PI        B2 (3)
  114    45           6.1455232568         167.2281895342     SG+        A1 (1)
  115   114           6.3165547349         171.8821926579      PH        B1 (2)
  116   166           6.3165547349         171.8821926579      PH        B2 (3)
  117   206           6.3512535492         172.8263953983      DE        A2 (4)
  118    46           6.3512535492         172.8263953983      DE        A1 (1)
  119    47           6.3623668958         173.1288049324     SG+        A1 (1)
  120   167           6.4301818133         174.9741426544      PI        B2 (3)
  121   115           6.4301818133         174.9741426544      PI        B1 (2)
  122   116           6.5638004485         178.6100905642      PH        B1 (2)
  123   168           6.5638004485         178.6100905642      PH        B2 (3)
  124   207           6.7875681659         184.6991197157      DE        A2 (4)
  125    48           6.7875681659         184.6991197160      DE        A1 (1)
  126    49           7.1720346150         195.1609836669     SG+        A1 (1)
  127   169           8.0067853897         217.8757070413      PI        B2 (3)
  128   117           8.0067853897         217.8757070414      PI        B1 (2)
  129    50           8.2099061006         223.4029025815      DE        A1 (1)
  130   208           8.2099061006         223.4029025817      DE        A2 (4)
  131    51           8.6874926702         236.3986938333     SG+        A1 (1)
  132    52           8.8781821266         241.5876177407     SG+        A1 (1)
  133   170           9.0152071227         245.3162574464      PI        B2 (3)
  134   118           9.0152071227         245.3162574464      PI        B1 (2)
  135    53           9.9010572940         269.4214660924     SG+        A1 (1)
  136   119          10.2259178894         278.2613723045      PI        B1 (2)
  137   171          10.2259178894         278.2613723046      PI        B2 (3)
  138   209          10.6094767646         288.6985399138      PI        A2 (4)
  139    54          10.6094767646         288.6985399138      PI        A1 (1)
  140   120          11.0774162354         301.4318202637      PH        B1 (2)
  141   172          11.0774162354         301.4318202637      PH        B2 (3)
  142   210          11.3763919202         309.5673622490      DE        A2 (4)
  143    55          11.3763919202         309.5673622490      DE        A1 (1)
  144    56          11.4093332755         310.4637420975     SG+        A1 (1)
  145   173          11.4840475637         312.4968212403      PI        B2 (3)
  146   121          11.4840475637         312.4968212403      PI        B1 (2)
  147   174          11.8812090265         323.3041340757      PH        B2 (3)
  148   122          11.8812090265         323.3041340757      PH        B1 (2)
  149    57          12.4942433474         339.9856460200      DE        A1 (1)
  150   211          12.4942433474         339.9856460203      DE        A2 (4)
  151    58          13.0212145983         354.3252627686     SG+        A1 (1)
  152    59          13.2166378117         359.6429987530      DE        A1 (1)
  153   212          13.2166378117         359.6429987530      DE        A2 (4)
  154   123          13.3373865980         362.9287402716      PI        B1 (2)
  155   175          13.3373865980         362.9287402716      PI        B2 (3)
  156    60          14.1982583287         386.3542509950     SG+        A1 (1)
  157   176          15.2979331381         416.2779238488      PI        B2 (3)
  158   124          15.2979331381         416.2779238489      PI        B1 (2)
  159    61          15.6500253377         425.8588396832     SG+        A1 (1)
  160    62          19.0525310002         518.4457257868     SG+        A1 (1)
  161   125          19.7217850550         536.6570544643      PI        B1 (2)
  162   177          19.7217850550         536.6570544646      PI        B2 (3)
  163    63          21.7960145809         593.0997093519     SG+        A1 (1)
  164   213          26.7934792189         729.0876356445      DE        A2 (4)
  165    64          26.7934792189         729.0876356446      DE        A1 (1)
  166   126          27.9359938381         760.1770389879      PI        B1 (2)
  167   178          27.9359938381         760.1770389879      PI        B2 (3)
  168    65          29.2111317388         794.8753052915     SG+        A1 (1)
  169   127          34.0594266371         926.8041166063      PI        B1 (2)
  170   179          34.0594266371         926.8041166070      PI        B2 (3)
  171    66          36.3324628877         988.6565775041     SG+        A1 (1)
  172    67          37.5047648611        1020.5565359622     SG+        A1 (1)
  173   214          47.2447402158        1285.5947396447      DE        A2 (4)
  174    68          47.2447402158        1285.5947396447      DE        A1 (1)
  175   180          48.2288381043        1312.3734045915      PI        B2 (3)
  176   128          48.2288381043        1312.3734045915      PI        B1 (2)
  177    69          48.8593193518        1329.5296715446     SG+        A1 (1)
  178    70          65.0803613260        1770.9266638526     SG+        A1 (1)
  179   129          67.1509383998        1827.2699304671      PI        B1 (2)
  180   181          67.1509383998        1827.2699304671      PI        B2 (3)
  181    71          68.7492455020        1870.7620778144     SG+        A1 (1)
  182   130          98.7819727392        2687.9941332160      PH        B1 (2)
  183   182          98.7819727392        2687.9941332161      PH        B2 (3)
  184    72          98.8361015125        2689.4670520191      DE        A1 (1)
  185   215          98.8361015125        2689.4670520192      DE        A2 (4)
  186   131          98.8889660580        2690.9055694345      PI        B1 (2)
  187   183          98.8889660580        2690.9055694345      PI        B2 (3)
  188    73          98.9508949627        2692.5907406028     SG+        A1 (1)
  189   132         103.3059402122        2811.0975466129      PH        B1 (2)
  190   184         103.3059402122        2811.0975466129      PH        B2 (3)
  191    74         103.3783484773        2813.0678756741      DE        A1 (1)
  192   216         103.3783484773        2813.0678756753      DE        A2 (4)
  193   185         103.4794632498        2815.8193485166      PI        B2 (3)
  194   133         103.4794632498        2815.8193485166      PI        B1 (2)
  195    75         103.5966239507        2819.0074532691     SG+        A1 (1)
  196   217         115.3796818682        3139.6407598868      DE        A2 (4)
  197    76         115.3796818682        3139.6407598869      DE        A1 (1)
  198   134         115.9428134513        3154.9643492984      PI        B1 (2)
  199   186         115.9428134513        3154.9643492984      PI        B2 (3)
  200    77         116.4655035550        3169.1874701085     SG+        A1 (1)
  201   135         117.2777134188        3191.2888241141      PI        B1 (2)
  202   187         117.2777134188        3191.2888241154      PI        B2 (3)
  203    78         119.2406961283        3244.7042992305     SG+        A1 (1)
  204    79         123.5120424034        3360.9335403559     SG+        A1 (1)
  205    80         198.6661979182        5405.9820801725      DE        A1 (1)
  206   218         198.6661979182        5405.9820801725      DE        A2 (4)
  207   188         199.2118862488        5420.8310145530      PI        B2 (3)
  208   136         199.2118862488        5420.8310145533      PI        B1 (2)
  209    81         199.5598239433        5430.2988805575     SG+        A1 (1)
  210    82         217.4940832893        5918.3148876157     SG+        A1 (1)
  211   137         225.5397488981        6137.2485792067      PI        B1 (2)
  212   189         225.5397488981        6137.2485792068      PI        B2 (3)
  213    83         226.8172459915        6172.0110424055     SG+        A1 (1)
  214   138         395.6808968881       10767.0245892786      PI        B1 (2)
  215   190         395.6808968882       10767.0245892799      PI        B2 (3)
  216    84         397.1267855558       10806.3692201677     SG+        A1 (1)
  217    85         509.9362405794       13876.0705519601     SG+        A1 (1)
  218    86         896.3901210033       24392.0152585941     SG+        A1 (1)


  VSCF finished.

 @CHECKOUT-I, Total execution time (CPU/WALL):       54.23/      11.83 seconds.
--executable xvscf finished with status     0 in       11.84 seconds (walltime).
 --invoking executable--
/nfs/workspaces/public/cfour_mpi/bin/xvtran
 @GETMEM-I,  Allocated    3814 MB of main memory.
  Full RHF integral transformation
  Transformation of IIII integrals :
  1 pass through the AO integral file was required.
     4709304 AO integrals were read.
     8915433 MO integrals were written to HF2.
  Transformation of IIJJ integrals :
  1 pass through the AO integral file was required.
    10620543 AO integrals were read.
    14755421 MO integrals were written to HF2.
  Transformation of IJIJ integrals :
  1 pass through the AO integral file was required.
    20152466 AO integrals were read.
    28129205 MO integrals were written to HF2.
  Transformation of IJKL integrals :
  1 pass through the AO integral file was required.
    14873331 AO integrals were read.
    19049081 MO integrals were written to HF2.
  Summary of active molecular orbitals: 
------------------------------------------------------------------------
 
  Index      Eigenvalue    Symmetry    Index      Eigenvalue    Symmetry
------------------------------------------------------------------------
     1       -20.6488197        1       110         4.2197438        2
     2       -11.2715840        1       111         4.5271279        2
     3        -1.6604981        1       112         4.9343988        2
     4        -0.8206975        1       113         5.3513132        2
     5        -0.5256561        1       114         6.0226566        2
     6        -0.7424933        2       115         6.3165547        2
     7        -0.7424933        3       116         6.4301818        2
     8         0.0570067        1       117         6.5638004        2
     9         0.0761206        1       118         8.0067854        2
    10         0.1567441        1       119         9.0152071        2
    11         0.2266166        1       120        10.2259179        2
    12         0.2267401        1       121        11.0774162        2
    13         0.3019466        1       122        11.4840476        2
    14         0.3997883        1       123        11.8812090        2
    15         0.5078529        1       124        13.3373866        2
    16         0.5191506        1       125        15.2979331        2
    17         0.6594897        1       126        19.7217851        2
    18         0.7691573        1       127        27.9359938        2
    19         0.7972944        1       128        34.0594266        2
    20         0.8798864        1       129        48.2288381        2
    21         0.9097188        1       130        67.1509384        2
    22         0.9657406        1       131        98.7819727        2
    23         1.3629580        1       132        98.8889661        2
    24         1.4955754        1       133       103.3059402        2
    25         1.5624846        1       134       103.4794632        2
    26         1.6643442        1       135       115.9428135        2
    27         1.7732132        1       136       117.2777134        2
    28         1.7790390        1       137       199.2118862        2
    29         2.1161592        1       138       225.5397489        2
    30         2.2384215        1       139       395.6808969        2
    31         2.2434059        1       140         0.0644337        3
    32         2.3508490        1       141         0.1548229        3
    33         2.3936001        1       142         0.2062341        3
    34         2.6520293        1       143         0.3465004        3
    35         3.1601660        1       144         0.4085361        3
    36         3.1845555        1       145         0.6179261        3
    37         3.3540201        1       146         0.7497914        3
    38         3.7793616        1       147         0.8489339        3
    39         4.0070686        1       148         0.8693568        3
    40         4.1803975        1       149         1.1323472        3
    41         4.3561861        1       150         1.4598054        3
    42         4.4738154        1       151         1.5237348        3
    43         4.7207634        1       152         1.8550912        3
    44         5.1744902        1       153         2.0208276        3
    45         5.2067974        1       154         2.2644364        3
    46         5.9319375        1       155         2.3584580        3
    47         6.1455233        1       156         2.4402282        3
    48         6.3512535        1       157         2.6107343        3
    49         6.3623669        1       158         3.0658868        3
    50         6.7875682        1       159         3.7400477        3
    51         7.1720346        1       160         4.0594822        3
    52         8.2099061        1       161         4.2197438        3
    53         8.6874927        1       162         4.5271279        3
    54         8.8781821        1       163         4.9343988        3
    55         9.9010573        1       164         5.3513132        3
    56        10.6094768        1       165         6.0226566        3
    57        11.3763919        1       166         6.3165547        3
    58        11.4093333        1       167         6.4301818        3
    59        12.4942433        1       168         6.5638004        3
    60        13.0212146        1       169         8.0067854        3
    61        13.2166378        1       170         9.0152071        3
    62        14.1982583        1       171        10.2259179        3
    63        15.6500253        1       172        11.0774162        3
    64        19.0525310        1       173        11.4840476        3
    65        21.7960146        1       174        11.8812090        3
    66        26.7934792        1       175        13.3373866        3
    67        29.2111317        1       176        15.2979331        3
    68        36.3324629        1       177        19.7217851        3
    69        37.5047649        1       178        27.9359938        3
    70        47.2447402        1       179        34.0594266        3
    71        48.8593194        1       180        48.2288381        3
    72        65.0803613        1       181        67.1509384        3
    73        68.7492455        1       182        98.7819727        3
    74        98.8361015        1       183        98.8889661        3
    75        98.9508950        1       184       103.3059402        3
    76       103.3783485        1       185       103.4794632        3
    77       103.5966240        1       186       115.9428135        3
    78       115.3796819        1       187       117.2777134        3
    79       116.4655036        1       188       199.2118862        3
    80       119.2406961        1       189       225.5397489        3
    81       123.5120424        1       190       395.6808969        3
    82       198.6661979        1       191         0.2267401        4
    83       199.5598239        1       192         0.5191506        4
    84       217.4940833        1       193         0.7691573        4
    85       226.8172460        1       194         0.9097188        4
    86       397.1267856        1       195         1.4955754        4
    87       509.9362406        1       196         1.7732132        4
    88       896.3901210        1       197         2.1161592        4
    89         0.0644337        2       198         2.2434059        4
    90         0.1548229        2       199         2.3936001        4
    91         0.2062341        2       200         3.1601660        4
    92         0.3465004        2       201         3.7793616        4
    93         0.4085361        2       202         4.1803975        4
    94         0.6179261        2       203         4.4738154        4
    95         0.7497914        2       204         5.2067974        4
    96         0.8489339        2       205         5.9319375        4
    97         0.8693568        2       206         6.3512535        4
    98         1.1323472        2       207         6.7875682        4
    99         1.4598054        2       208         8.2099061        4
   100         1.5237348        2       209        10.6094768        4
   101         1.8550912        2       210        11.3763919        4
   102         2.0208276        2       211        12.4942433        4
   103         2.2644364        2       212        13.2166378        4
   104         2.3584580        2       213        26.7934792        4
   105         2.4402282        2       214        47.2447402        4
   106         2.6107343        2       215        98.8361015        4
   107         3.0658868        2       216       103.3783485        4
   108         3.7400477        2       217       115.3796819        4
   109         4.0594822        2       218       198.6661979        4
------------------------------------------------------------------------
  -20.6488197234266       -11.2715840001753       -1.66049812784488     
 -0.820697491608583      -0.525656107089018      -0.742493304361039     
 -0.742493304359275       5.700672295635815E-002  7.612060925289690E-002
  0.156744078820600       0.226616603294041       0.226740144491126     
  0.301946597391622       0.399788292615886       0.507852932117806     
  0.519150573036731       0.659489678907888       0.769157260687225     
  0.797294399643438       0.879886352157996       0.909718822563426     
  0.965740629227768        1.36295796654812        1.49557542342457     
   1.56248457899963        1.66434415899197        1.77321317306964     
   1.77903904639115        2.11615923086602        2.23842146506450     
   2.24340592481565        2.35084902261388        2.39360007605332     
   2.65202926377512        3.16016600796395        3.18455552925040     
   3.35402007964857        3.77936159943113        4.00706856845364     
   4.18039749723529        4.35618609481901        4.47381537087776     
   4.72076342636373        5.17449019094204        5.20679740360674     
   5.93193747652430        6.14552325679099        6.35125354921440     
   6.36236689577346        6.78756816590170        7.17203461500188     
   8.20990610060289        8.68749267019225        8.87818212655624     
   9.90105729400082        10.6094767645593        11.3763919201929     
   11.4093332754803        12.4942433474374        13.0212145983196     
[...]
 Convergence information after     6 iterations: 
 Largest element of residual vector : -0.34206997E-03.
 Largest element of DIIS residual   : -0.88669353E-04.
 Convergence information after     7 iterations: 
 Largest element of residual vector : -0.59673341E-04.
 Largest element of DIIS residual   : -0.27040809E-04.
 Convergence information after     8 iterations: 
 Largest element of residual vector : -0.16598796E-04.
 Largest element of DIIS residual   :  0.97420149E-05.
 Convergence information after     9 iterations: 
 Largest element of residual vector :  0.50217580E-05.
 Largest element of DIIS residual   :  0.23170306E-05.
 Convergence information after    10 iterations: 
 Largest element of residual vector :  0.18215444E-05.
 Largest element of DIIS residual   :  0.97807270E-06.
 Convergence information after    11 iterations: 
 Largest element of residual vector :  0.50756542E-06.
 Largest element of DIIS residual   :  0.28177800E-06.
 Convergence information after    12 iterations: 
 Largest element of residual vector :  0.20121607E-06.
 Largest element of DIIS residual   :  0.13074224E-06.
 Convergence information after    13 iterations: 
 Largest element of residual vector :  0.82219591E-07.
 Largest element of DIIS residual   :  0.59738611E-07.
 Perturbed amplitude equations converged in    13 iterations.
  Dominant contributions to perturbed wavefunction:
    7    7  142   37   0.2504382829 ABAB
    7    7   37  142   0.2504382829 ABAB
    7    7  142   63   0.1977315541 ABAB
    7    7   63  142   0.1977315541 ABAB
    5    5  142   43   0.1943192742 ABAB
    5    5   43  142   0.1943192742 ABAB
    7    7  142   49   0.1942456829 ABAB
    7    7   49  142   0.1942456829 ABAB
    7    6   37   91   0.1729892992 ABAB
    6    7   91   37   0.1729892992 ABAB
    7    7  143   37   0.1622034334 ABAB
    7    7   37  143   0.1622034334 ABAB
    7    7  142   43   0.1581031215 ABAB
    7    7   43  142   0.1581031215 ABAB
    5    5  142   30  -0.1577400620 ABAB
    5    5   30  142  -0.1577400620 ABAB
    7    7  142   28   0.1565812748 ABAB
    7    7   28  142   0.1565812748 ABAB
    5    5  142   54   0.1556558744 ABAB
    5    5   54  142   0.1556558744 ABAB
  norm of converged amps    3.02130466050304     
 Starting iterative solution of the perturbed Lambda equations.
 The DIIS procedure is used to accelerate convergence.
 Convergence criterion is 10**(-7).
 Maximum number of iterations is 100.
 Convergence information after     1 iterations: 
 Largest element of residual vector : -0.58000504E-01.
 Largest element of DIIS residual   : -0.58000504E-01.
 Convergence information after     2 iterations: 
 Largest element of residual vector :  0.54122699E-02.
 Largest element of DIIS residual   :  0.64554102E-02.
 Convergence information after     3 iterations: 
 Largest element of residual vector : -0.33683798E-02.
 Largest element of DIIS residual   : -0.29893339E-02.
 Convergence information after     4 iterations: 
 Largest element of residual vector : -0.20694954E-02.
 Largest element of DIIS residual   : -0.15333737E-02.
 Convergence information after     5 iterations: 
 Largest element of residual vector : -0.10548088E-02.
 Largest element of DIIS residual   : -0.46500165E-03.
 Convergence information after     6 iterations: 
 Largest element of residual vector : -0.31891170E-03.
 Largest element of DIIS residual   : -0.79777320E-04.
 Convergence information after     7 iterations: 
 Largest element of residual vector : -0.53611827E-04.
 Largest element of DIIS residual   : -0.22504310E-04.
 Convergence information after     8 iterations: 
 Largest element of residual vector : -0.13624168E-04.
 Largest element of DIIS residual   :  0.86225258E-05.
 Convergence information after     9 iterations: 
 Largest element of residual vector :  0.45155498E-05.
 Largest element of DIIS residual   :  0.20367469E-05.
 Convergence information after    10 iterations: 
 Largest element of residual vector :  0.16098251E-05.
 Largest element of DIIS residual   :  0.88930434E-06.
 Convergence information after    11 iterations: 
 Largest element of residual vector :  0.47367838E-06.
 Largest element of DIIS residual   :  0.27082785E-06.
 Convergence information after    12 iterations: 
 Largest element of residual vector :  0.19013131E-06.
 Largest element of DIIS residual   :  0.12176066E-06.
 Convergence information after    13 iterations: 
 Largest element of residual vector :  0.77179704E-07.
 Largest element of DIIS residual   :  0.54282397E-07.
 Perturbed Lambda equations converged in    13 iterations.
  Dominant contributions to perturbed wavefunction:
    7    7  142   37   0.2414523328 ABAB
    7    7   37  142   0.2414523328 ABAB
    7    7  142   63   0.1904342316 ABAB
    7    7   63  142   0.1904342316 ABAB
    7    7  142   49   0.1873307786 ABAB
    7    7   49  142   0.1873307786 ABAB
    5    5  142   43   0.1867605319 ABAB
    5    5   43  142   0.1867605319 ABAB
    7    6   37   91   0.1651906957 ABAB
    6    7   91   37   0.1651906957 ABAB
    7    7  143   37   0.1569737524 ABAB
    7    7   37  143   0.1569737524 ABAB
    5    5  142   30  -0.1518418455 ABAB
    5    5   30  142  -0.1518418455 ABAB
    7    7  142   43   0.1513076291 ABAB
    7    7   43  142   0.1513076291 ABAB
    7    7  142   28   0.1504077664 ABAB
    7    7   28  142   0.1504077664 ABAB
    5    5  142   54   0.1496088130 ABAB
    5    5   54  142   0.1496088130 ABAB
        The DBOC first-order density matrix is being calculated 
             (Symmetry block 3, perturbation   2)
 term   10.9733267343248     
 final tnorm  0.909485196208740     
  norm contr. I: |<0|L dT/dx|0>|^2   0.000000000000000E+000
  norm contr. II: <0|[nabla(1+L)e-T][nabla e^T]|0>   10.9733267343248     
  total norm contribution   10.9733267343248     
 oo  1.352557344920506E-002
 vv  -82.4493747891485     
 vo  9.381081094224083E-003
  Correlated perturbed 1-el contribution to DBOC  -82.4264681346051       cm**-1
  SUM_I |dc_I/dx|^2 contribution to DBOC   41.3113885820052       cm**-1
 
 
  The total diagonal Born-Oppenheimer correction (DBOC) is:      0.0041671970 a.u.
  The total diagonal Born-Oppenheimer correction (DBOC) is:        914.594017 cm-1
 
 Total CC energy including DBOC  -113.145432518168     
 First-order density matrix is being calculated  (Symmetry block 3, perturbation   2)
 Calculation of the contributions of <pq||rs> to dI(i,j)/dx required   1.4 seconds.
 Calculation of the contributions of <pq||rs> to dI(a,b)/dx required  16.8 seconds.
 Calculation of the contributions of <pq||rs> to dI(i,a)/dx required  10.0 seconds.
 First-order Z-vector equations are solved for 1 perturbation.
 Convergence reached after  17 iterations.
        U*G(pq,rs) contribution is being calculated
             (Symmetry block 3, perturbation   2)

 CCSD contribution to force constants 

        0.0000000000        0.0000000000        0.0000000000
        0.0000000000        0.0000000000        0.0000000000
        0.0000000000        0.0000000000        0.0000000000
        0.0000000000        0.0000000000        0.0000000000
        0.0000000000        0.0000000000        0.0000000000
        0.0000000000        0.0000000000        0.0000000000
        0.0000000000        0.0000000000        0.0000000000
        0.0000000000        0.0000000000        0.0000000000
        0.0000000000        0.0000000000        0.0000000000
        0.0000000000        0.0000000000        0.0000000000
        0.0000000000        0.0000000000        0.0000000000
        0.0000000000      -16.8322513883       16.8322513883

 CCSD contribution to dipole derivatives 

        0.0000000000        0.0000000000        0.0000000000
        0.0000000000        0.0000000000        0.0000000000
        0.0000000000        0.0000000000        0.0000000000
        0.0000000000        0.0000000000       -0.0362362527
        0.0000000000        0.0000000000        0.0000000000
        0.0000000000        0.0000000000        0.0000000000
 @CHECKOUT-I, Total execution time (CPU/WALL):     1031.29/     264.65 seconds.
--executable xsdcc finished with status     0 in      264.68 seconds (walltime).
 --invoking executable--
/nfs/workspaces/public/cfour_mpi/bin/xanti
 @GETMEM-I,  Allocated    3814 MB of main memory.
 CCSD MO derivative gammas will be sorted to Mulliken order.
 @CHECKOUT-I, Total execution time (CPU/WALL):        9.06/      17.41 seconds.
--executable xanti finished with status     0 in       17.43 seconds (walltime).
 --invoking executable--
/nfs/workspaces/public/cfour_mpi/bin/xbcktrn
 @GETMEM-I,  Allocated    3814 MB of main memory.
 CCSD MO derivative gammas will be transformed to the AO basis.
 @CHECKOUT-I, Total execution time (CPU/WALL):       19.99/       5.89 seconds.
--executable xbcktrn finished with status     0 in        5.91 seconds (walltime).
 --invoking executable--
/nfs/workspaces/public/cfour_mpi/bin/xvdint
 @GETMEM-I,  Allocated    3814 MB of main memory.
 One- and two-electron integral derivatives are calculated
 for RHF-CC/MBPT hessians and dipole derivatives.
 Spherical gaussians are used.
  magnet F F
                    8722  records have been written to the Sort file.
  Total length of Sort file :             178609116  words.
 Evaluation of 2el integral derivatives

                      Two-electron integral gradient
                      ------------------------------

                         C #1 z     0.0000000000
                         O #2 z     0.0000000000


 C #1       0.0000000000           -2.1076300081            0.0000000000
 O #2       0.0000000000            2.1076300081            0.0000000000


 Evaluation of 2e integral derivatives required  328.01 seconds.
  contribution to Hessian
        0.0000000000        0.0000000000        0.0000000000
        0.0000000000       -2.1076300081        2.1076300081
 @CHECKOUT-I, Total execution time (CPU/WALL):      328.00/      65.66 seconds.
--executable xvdint finished with status     0 in       65.68 seconds (walltime).
 --invoking executable--
/nfs/workspaces/public/cfour_mpi/bin/xanti
 @GETMEM-I,  Allocated    3814 MB of main memory.
 CCSD MO gammas will be sorted to Mulliken order.
 @CHECKOUT-I, Total execution time (CPU/WALL):       11.96/      10.52 seconds.
--executable xanti finished with status     0 in       10.54 seconds (walltime).
 --invoking executable--
/nfs/workspaces/public/cfour_mpi/bin/xbcktrn
 @GETMEM-I,  Allocated    3814 MB of main memory.
 CCSD MO gammas will be transformed to the AO basis.
 @CHECKOUT-I, Total execution time (CPU/WALL):       30.14/       5.03 seconds.
--executable xbcktrn finished with status     0 in        5.04 seconds (walltime).
 --invoking executable--
/nfs/workspaces/public/cfour_mpi/bin/xvdint
 @GETMEM-I,  Allocated    3814 MB of main memory.
 One- and two-electron integral derivatives are calculated
 for RHF-CC/MBPT hessians and dipole derivatives.
 Spherical gaussians are used.
  magnet F F

                     Kinetic energy integral gradient
                     --------------------------------

                         C #1 z    -2.0223119521
                         O #2 z     2.0223119521


 C #1       0.0000000000            0.0000000000           -2.0223119521
 O #2       0.0000000000            0.0000000000            2.0223119521



                   Nuclear attraction integral gradient
                   ------------------------------------

                         C #1 z    28.4632176893
                         O #2 z   -28.4632176893


 C #1       0.0000000000            0.0000000000           28.4632176893
 O #2       0.0000000000            0.0000000000          -28.4632176893



                      Reorthonormalization gradient
                      -----------------------------

                         C #1 z     0.0000000000
                         O #2 z     0.0000000000


 C #1       0.0000000000            0.0000000000            0.0000000000
 O #2       0.0000000000            0.0000000000            0.0000000000



                     Kinetic energy integral Hessian
                     -------------------------------


           Symmetry 1

           C #1 z      O #2 z

 C #1 z    0.232518
 O #2 z   -0.232518    0.232518


           Symmetry 2

           C #1 x      O #2 x

 C #1 x   -4.016118
 O #2 x    4.016118   -4.016118


           Symmetry 3

           C #1 y      O #2 y

 C #1 y   -4.016118
 O #2 y    4.016118   -4.016118




           C #1 x      C #1 y      C #1 z      O #2 x      O #2 y      O #2 z

 C #1 x   -4.016118
 C #1 y    0.000000   -4.016118
 C #1 z    0.000000    0.000000    0.232518

 O #2 x    4.016118    0.000000    0.000000   -4.016118
 O #2 y    0.000000    4.016118    0.000000    0.000000   -4.016118
 O #2 z    0.000000    0.000000   -0.232518    0.000000    0.000000    0.232518




                   Nuclear attraction integral Hessian
                   -----------------------------------


           Symmetry 1

           C #1 z      O #2 z

 C #1 z  -11.756208
 O #2 z   11.756208  -11.756208


           Symmetry 2

           C #1 x      O #2 x

 C #1 x   34.762220
 O #2 x  -34.762220   34.762220


           Symmetry 3

           C #1 y      O #2 y

 C #1 y   34.762220
 O #2 y  -34.762220   34.762220




           C #1 x      C #1 y      C #1 z      O #2 x      O #2 y      O #2 z

 C #1 x   34.762220
 C #1 y    0.000000   34.762220
 C #1 z    0.000000    0.000000  -11.756208

 O #2 x  -34.762220    0.000000    0.000000   34.762220
 O #2 y    0.000000  -34.762220    0.000000    0.000000   34.762220
 O #2 z    0.000000    0.000000   11.756208    0.000000    0.000000  -11.756208




                Highest order reorthonormalization Hessian
                ------------------------------------------


           Symmetry 1

           C #1 z      O #2 z

 C #1 z    0.000000
 O #2 z    0.000000    0.000000


           Symmetry 2

           C #1 x      O #2 x

 C #1 x    0.000000
 O #2 x    0.000000    0.000000


           Symmetry 3

           C #1 y      O #2 y

 C #1 y    0.000000
 O #2 y    0.000000    0.000000




           C #1 x      C #1 y      C #1 z      O #2 x      O #2 y      O #2 z




                Electronic contributions to dipole moment
                -----------------------------------------

                               au             Debye

                    z     -0.29558842     -0.75131094

  Conversion factor used: 1 a.u. =   2.54174691 Debye 



   Electronic contributions to static part of dipole moment derivatives
   --------------------------------------------------------------------


                     Total dipole moment derivatives
                     -------------------------------


           Symmetry 1
                              Ez

               C #1 z    -5.86273193
               O #2 z    -8.13726807

           Symmetry 2
                              Ex

               C #1 x    -5.91113971
               O #2 x    -8.08886029

           Symmetry 3
                              Ey

               C #1 y    -5.91113971
               O #2 y    -8.08886029



                       Ex          Ey          Ez

      C #1    x   -5.911140    0.000000    0.000000
      C #1    y    0.000000   -5.911140    0.000000
      C #1    z    0.000000    0.000000   -5.862732

      O #2    x   -8.088860    0.000000    0.000000
      O #2    y    0.000000   -8.088860    0.000000
      O #2    z    0.000000    0.000000   -8.137268

 Evaluation of 1e integral derivatives required    1.64 seconds.
                    8815  records have been written to the Sort file.
  Total length of Sort file :             180513570  words.
 Evaluation of 2el integral derivatives

                      Two-electron integral gradient
                      ------------------------------

                         C #1 z   -11.7133561987
                         O #2 z    11.7133561987


 C #1       0.0000000000            0.0000000000          -11.7133561987
 O #2       0.0000000000            0.0000000000           11.7133561987


 Evaluation of 2e integral derivatives required  689.81 seconds.

                            Molecular gradient
                            ------------------

                         C #1 z    -0.7788792392
                         O #2 z     0.7788792392


 C #1       0.0000000000            0.0000000000           -0.7788792392
 O #2       0.0000000000            0.0000000000            0.7788792392


  Molecular gradient norm 0.110E+01

                            Molecular hessian
                            -----------------


           Symmetry 1

           C #1 z      O #2 z

 C #1 z  111.583408
 O #2 z -111.583408  111.583408


           Symmetry 2

           C #1 x      O #2 x

 C #1 x   17.572908
 O #2 x  -17.572908   17.572908


           Symmetry 3

           C #1 y      O #2 y

 C #1 y   17.572908
 O #2 y  -17.572908   17.572908




           C #1 x      C #1 y      C #1 z      O #2 x      O #2 y      O #2 z

 C #1 x   17.572908
 C #1 y    0.000000   17.572908
 C #1 z    0.000000    0.000000  111.583408

 O #2 x  -17.572908    0.000000    0.000000   17.572908
 O #2 y    0.000000  -17.572908    0.000000    0.000000   17.572908
 O #2 z    0.000000    0.000000 -111.583408    0.000000    0.000000  111.583408




                           Total dipole moment
                           -------------------

                               au             Debye

                    z     -0.29750602     -0.75618501

  Conversion factor used: 1 a.u. =   2.54174691 Debye 



                     Total dipole moment derivatives
                     -------------------------------


           Symmetry 1
                              Ez

               C #1 z     0.63151422
               O #2 z    -0.63151422

           Symmetry 2
                              Ex

               C #1 x    -0.17004252
               O #2 x     0.17004252

           Symmetry 3
                              Ey

               C #1 y    -0.17004252
               O #2 y     0.17004252



                       Ex          Ey          Ez

      C #1    x   -0.170043    0.000000    0.000000
      C #1    y    0.000000   -0.170043    0.000000
      C #1    z    0.000000    0.000000    0.631514

      O #2    x    0.170043    0.000000    0.000000
      O #2    y    0.000000    0.170043    0.000000
      O #2    z    0.000000    0.000000   -0.631514

 @CHECKOUT-I, Total execution time (CPU/WALL):      691.45/     114.83 seconds.
--executable xvdint finished with status     0 in      114.84 seconds (walltime).
 --invoking executable--
/nfs/workspaces/public/cfour_mpi/bin/xjoda
  @GTFLGS-I, Hessian will be transformed to curvilinear coordinates.
  @GTFLGS-I, Hessian will be transformed to curvilinear coordinates.
  igrd and ihes are                      0                     1
  gradient from JOBARC 
   0.000000000000000   0.000000000000000  -0.778879239249501
   0.000000000000000   0.000000000000000   0.778879239249501
 
  @PROJFCM-I, Projecting force constant matrix onto totally symmetric subspace.
  Largest difference between matrix elements of symmetrized
  and unsymmetrized FCM :     0.1070432631E-09.
  read isotopes from ZMAT file 
 
  Summary of diagonal Born-Oppenheimer correction at the correlated level
  The total diagonal Born-Oppenheimer correction (DBOC) is:      0.0041671970 a.u.
  The total diagonal Born-Oppenheimer correction (DBOC) is:        914.594017 cm-1
  The total diagonal Born-Oppenheimer correction (DBOC) is:            10.941 kJ/mole
  hellooooooo 
  readis is  F
 
 @CHECKOUT-I, Total execution time (CPU/WALL):        0.01/       0.03 seconds.
--executable xjoda finished with status     0 in        0.05 seconds (walltime).
  The final electronic energy is      -113.145432518168462 a.u. 
  This computation required                         2556.70 seconds (walltime).
