 --invoking executable--
/nfs/workspaces/public/cfour_mpi/bin/xjoda


   *************************************************************************
         <<<     CCCCCC     CCCCCC   |||     CCCCCC     CCCCCC   >>>
       <<<      CCC        CCC       |||    CCC        CCC         >>>
      <<<      CCC        CCC        |||   CCC        CCC            >>>
    <<<        CCC        CCC        |||   CCC        CCC              >>>
      <<<      CCC        CCC        |||   CCC        CCC            >>>
       <<<      CCC        CCC       |||    CCC        CCC         >>>
         <<<     CCCCCC     CCCCCC   |||     CCCCCC     CCCCCC   >>>
   *************************************************************************

     ****************************************************************
     * CFOUR Coupled-Cluster techniques for Computational Chemistry *
     ****************************************************************
 

   Department of Chemistry                Institut fuer Physikalische Chemie
   University of Florida                  Universitaet Mainz
   Gainesville, FL 32611, USA             D-55099 Mainz, Germany

   Department of Chemistry                Fakultaet fuer Chemie und Biowiss.
   Johns Hopkins University               Karlsruher Institut fuer Technologie
   Baltimore, MD 21218, USA               D-76131 Karlsruhe, Germany

   Department of Chemistry                Department of Physical Chemistry
   Southern Methodist University          Eotvos Lorand University
   Dallas, TX 75275, USA                  H-1053 Budapest, Hungary

 
                       Version 2.1
 
                     vincent.theory.phys.ucl.ac.uk                     
                     Wed 26 Feb 04:21:07 GMT 2025                      
                     integer*8 version is running
 
********************************************************************************
*                          Input from ZMAT file                                *
********************************************************************************
Carbon Monoxide DBOC calculation                                                
C                                                                               
O 1 r                                                                           
                                                                                
r=1.6758620689655173                                                            
                                                                                
                                                                                
*CFOUR(CALC=CCSD,BASIS=AUG-PCVQZ,SCF_CONV=10                                    
CC_CONV=14,DBOC=ON,MEMORY=500000000                                             
ZFIELD=200)                                                                     
                                                                                
%isotopes                                                                       
12                                                                              
16                                                                              
********************************************************************************
  @GTFLGS-I, Hessian will be transformed to curvilinear coordinates.
    -------------------------------------------------------------------
                    CFOUR Control Parameters 
    -------------------------------------------------------------------
        External           Internal           Value            Units
          Name               Name
    -------------------------------------------------------------------
       ABCDTYPE             IABCDT         STANDARD    [  0]    ***   
       ANHARMONIC           IANHAR         OFF         [  0]    ***   
       ANH_ALGORIT          IANALG         STANDARD    [  0]    ***   
       ANH_DERIVAT          IANDER         SECOND      [  1]    ***   
       ANH_MODE             ANHMOD         VIBRATION   [  0]    ***   
       ANH_STEPSIZ          ICUBST             50000          x 10-6  
       ANH_SYMMETR          IANHSM         ABELIAN     [  0]    ***   
       AO_LADDERS           IAOLAD         SINGLEPASS  [  1]    ***   
       AV_SCF               IAVSCF         OFF         [  0]    ***   
       BASIS                IBASIS         AUG-PCVQZ   [ 52]    ***   
       BOTHVECTORS          BOTHVC         OFF         [  0]    ***   
       BOX_POTENT           IPIAB          OFF         [  0]    ***   
       BREIT                IBREIT         OFF         [  0]    ***   
       BRUCK_CONV           IBRTOL          10D-  4             ***   
       BRUECKNER            IBRKNR         OFF         [  0]    ***   
       BUFFERSIZE           IBUFFS              4096            ***   
       CACHE_RECS           ICHREC             10               ***   
       CALCLEVEL            ICLLVL         CCSD        [ 10]    ***   
       CCORBOPT             ICCORB         OFF         [  0]  x 0.01  
       CC_CONV              ICCCNV          10D- 14             ***   
       CC_EXPORDER          ICCEOR              5               ***   
       CC_EXTRAPOL          ICCEXT         DIIS        [  1]    ***   
       CC_GUESS             ICCGES         MP2         [  0]    ***   
       CC_MAXCYC            ICCCYC            100              cycles 
       CC_PROGRAM           ICCPRO         VCC         [  0]    ***   
       CHARGE               ICHRGE              0               ***   
       CHOLESKY             ICHOLE         OFF         [  0]    ***   
       CIS_CONV             ICISTL              5               ***   
       COMM_SIZE            IPSIZE            ***               ***   
       CONSTANT             ICONST         OLD         [  1]    ***   
       CONTINUUM            ICONTU         NONE        [  0]    ***   
       CONTRACTION          ICNTYP         GENERAL     [  1]    ***   
       COORDINATES          ICOORD         INTERNAL    [  0]    ***   
       CPHF_CONVER          ICPHFT          10D- 16             ***   
       CPHF_MAXCYC          ICPHFC             64              cycles 
       CUBIC                ICUBIC         OFF         [  0]    ***   
       CURVILINEAR          ICURVY         ON          [  1]    ***   
       DBOC                 IDBOC          ON          [  1]    ***   
       DCT                  IDCT           OFF         [  0]    ***   
       DERIV_LEV            IDRLVL         SECOND      [  2]    ***   
       DEVMEM_SIZE          IDVMEM          50000000           MByte  
       DIAG_MRCC            IEOMST          10D-  0             ***   
       DIFF_TYPE            IDIFTY         RELAXED     [  0]    ***   
       DIRECT               IDIRCT         OFF         [  0]    ***   
       DROPMO               IDRPMO      NONE         
       ECP                  IECP           OFF         [  0]    ***   
       EIGENVECTOR          IVEC                1               ***   
       EL_ANHARM            IELANH         OFF         [  0]    ***   
       EOMFOLLOW            IEOMSR         ENERGY      [  0]    ***   
       EOMIP                IEOMIP         OFF         [  0]    ***   
       EOMLEVEL             HBARFM         SAME        [  0]    ***   
       EOM_MRCC             IMRCCE         NEW         [  1]    ***   
       EOM_NONIT            EOMNON         OFF         [  0]    ***   
       EOM_NSING            IEOMSI          10D-  0             ***   
       EOM_NSTATES          IMRCCD         DAVIDSON    [  0]    ***   
       EOM_NTRIP            IEOMTR          10D-  0             ***   
       EOM_ORDER            IEXORD         ENERGY      [  0]    ***   
       EOM_PROPSTA          IEOMST              0               ***   
       ESTATE_CONV          IEXTOL          10D-  5             ***   
       ESTATE_DIAG          IEXDIG         ITERATIVE   [  0]    ***   
       ESTATE_LOCK          IESLOC         ON          [  1]    ***   
       ESTATE_MAXC          IEXMXC             40               ***   
       ESTATE_PROP          IEXPRP         OFF         [  0]    ***   
       EVAL_HESS            IRECAL              0            # of cyc.
       EXCITATION           IEXCIT              0               ***   
       EXCITE               IEXCIT         NONE        [  0]    ***   
       EXTERN_POT           IEXPOT         OFF         [  0]    ***   
       FCGRADNEW            IFCGNW         OFF         [  0]    ***   
       FC_FIELD             IFINFC              0             x 10-6  
       FD_CALTYPE           IFDCAL         GRADONLY    [  0]    ***   
       FD_PROJECT           IFDPRJ         OFF         [  1]    ***   
       FD_STEPSIZE          IDISFD              0            10-4 bohr
       FD_USEGROUP          IFDGRP         FULL        [  0]    ***   
       FILE_RECSIZ          IFLREC              4096           words  
       FINITE_PERT          IFIPER              0             x 10-6  
       FIXGEOM              IFIXGM         OFF         [  0]    ***   
       FOCK                 IFOCK          AO          [  1]    ***   
       FREQ_ALGORI          IVIALG         STANDARD    [  0]    ***   
       FROZEN_CORE          IFROCO         OFF         [  0]    ***   
       GAMMA_ABCD           IGABCD         STORE       [  0]    ***   
       GAMMA_ABCI           IGABCI         STORE       [  0]    ***   
       GENBAS_1             IGNBS1              0               ***   
       GENBAS_2             IGNBS2              0               ***   
       GENBAS_3             IGNBS3              0               ***   
       GENBAS_4             IGNBS4              0               ***   
       GEO_CONV             ICONTL              5              H/bohr 
       GEO_MAXCYC           IOPTCY             50               ***   
       GEO_MAXSTEP          IMXSTP            300            millibohr
       GEO_METHOD           INR            SINGLE_POINT[  5]    ***   
       GIAO                 IGIAO          OFF         [  1]    ***   
       GIMIC                IGIMIC         OFF         [  0]    ***   
       GRID                 IGRID          OFF         [  0]    ***   
       GRID_ALGO            IGALGO         SERIAL      [  0]    ***   
       GUESS                IGUESS         MOREAD      [  0]    ***   
       HBAR                 IHBAR          OFF         [  0]    ***   
       HESS_TYPE            IHESTP         SCF         [  0]    ***   
       HF2_FILE             IHF2Fl         USE         [  1]    ***   
       HFSTABILITY          ISTABL         OFF         [  0]    ***   
       INCORE               INCORE         OFF         [  0]    ***   
       INPUT_MRCC           IMRCC          ON          [  1]    ***   
       INTEGRALS            INTTYP         VMOL        [  1]    ***   
       JODA_PRINT           IJPRNT              0               ***   
       KEYWORD_OUT          IDMPKW         NO          [  0]    ***   
       LINDEP_TOL           ILINDP              8               ***   
       LINEQ_CONV           IZTACN          10D-  7           cycles  
       LINEQ_EXPOR          ILMAXD              5               ***   
       LINEQ_MAXCY          ILMAXC            100               ***   
       LINEQ_TYPE           ILTYPE         DIIS        [  1]    ***   
       LOCK_ORBOCC          ILOCOC         OFF         [  0]    ***   
       MEMORY_SIZE          IMEMSZ         500000000           words  
       MEM_UNIT             IMEMU          INTEGERWORDS[  0]    ***   
       MRCC                 IMRCCC         OFF         [  0]    ***   
       MULTIPLICTY          IMULTP              1               ***   
       NACOUPLING           IVCOUP         OFF         [  0]    ***   
       NEGEVAL              IDIE           ABORT       [  0]    ***   
       NEWNORM              INEWNO         OFF         [  0]    ***   
       NON-HF               INONHF         OFF         [  0]    ***   
       NTOP_TAMP            ITOPT2             15               ***   
       NUC_MODEL            INUCMO         POINT       [  0]    ***   
       OCCUPATION           IOCCU   ESTIMATED BY SCF 
       OPEN-SHELL           IOPEN          SPIN-ORBITAL[  0]    ***   
       OPTVIB               IOPTVB         OFF         [  0]    ***   
       ORBITALS             IORBTP         STANDARD    [  0]    ***   
       PARALLEL             IPARAL         ON          [  1]    ***   
       PARA_INT             IPINTS         ON          [  1]    ***   
       PARA_PRINT           IPPRIN              0               ***   
       PERT_ORB             IPTORB         STANDARD    [  0]    ***   
       POINTS               IGRDFD              0               ***   
       PRINT                IPRNT               0               ***   
       PROPS                IPROPS         OFF         [  0]    ***   
       PROP_INTEGR          IINTYP         INTERNAL    [  0]    ***   
       PSI                  IPSI           OFF         [  0]    ***   
       QC_ALG               IQCALG         FLM         [  0]    ***   
       QC_LINALG            IQCLIN         TRIDIAG     [  2]    ***   
       QC_MAXCYC            IQCMAX          10D-100           cycles  
       QC_MAXSCFCY          IQCMSC          10D- 15           cycles  
       QC_RTRUST            IQCRTR          10D-  0           x 10-3  
       QC_SKIPSCF           IQCSKI         OFF         [  0]    ***   
       QC_START             IQCSTA          10D-  1             ***   
       QRHFGUESS            IQGUES         OFF         [  0]    ***   
       QUARTIC              IQUART         OFF         [  0]    ***   
       RAMAN_INT            IRAMIN         OFF         [  0]    ***   
       RAMAN_ORB            IRAMRE         UNRELAXED   [  0]    ***   
       RDO                  IRDOFM         ON          [  1]    ***   
       REDUCE_REPR          REDREP         Ir          [  0]    ***   
       REFERENCE            IREFNC         RHF         [  0]    ***   
       RELATIVIST           IRELAT         OFF         [  0]    ***   
       RELAX_DENS           IRDENS         ON          [  1]    ***   
       RESET_FLAGS          IRESET         OFF         [  0]    ***   
       RESTART_CC           ICCRES         OFF         [  0]    ***   
       ROT_EVEC             ROTVEC              0               ***   
       SAVE_INTS            ISVINT         OFF         [  0]    ***   
       SCALE_ON             ISTCRT              0               ***   
       SCF_CONV             ISCFCV          10D- 10             ***   
       SCF_DAMPING          IDAMP               0             x 10-3  
       SCF_EXPORDE          IRPPOR              6               ***   
       SCF_EXPSTAR          IRPPLS              8               ***   
       SCF_EXTRAPO          IRPP           ON          [  1]    ***   
       SCF_MAXCYC           ISCFCY            150              cycles 
       SCF_NOSTOP           ISCFST         OFF         [  0]    ***   
       SCF_PRINT            ISCFPR              0               ***   
       SCF_PROG             ISCFPR         SCF         [  0]    ***   
       SD_FIELD             IFINSD              0             x 10-6  
       SOPERT               IPERSO         OFF         [  0]    ***   
       SPHERICAL            IDFGHI         ON          [  1]    ***   
       SPINORBIT            ISOCAL         OFF         [  0]    ***   
       SPINROTATIO          ISRCON         OFF         [  0]    ***   
       SPIN_FLIP            ISPFLP         OFF         [  0]    ***   
       SPIN_ORBIT           ISPORB         OFF         [  0]    ***   
       SPIN_SCAL            ISCSMP         OFF         [  0]    ***   
       STEEPSCALE           ISTPSC              1000          x 10-3  
       SUBGROUP             ISUBGP         DEFAULT     [  0]    ***   
       SUBGRPAXIS           ISBXYZ         X           [  0]    ***   
       SYMMETRY             ISYM           ON          [  0]    ***   
       SYM_CHECK            ISYMCK         OVERRIDE    [  1]    ***   
       T3_EXTRAPOL          IT3EXT         OFF         [  0]    ***   
       T4_EXTRAPOL          IT4EXP         OFF         [  0]    ***   
       TAMP_SUM             IEVERY              5               ***   
       TESTSUITE            ITESTS         OFF         [  0]    ***   
       THERMOCH             ITHERM         OFF         [  0]    ***   
       TOL_CHOLESK          ITOLCH          10D-  4             ***   
       TRANGRAD             IRESRM         OFF         [  0]    ***   
       TRANS_INV            ITRAIN         IGNORE      [  1]    ***   
       TREAT_PERT           ITREAT         SIMULTANEOUS[  0]    ***   
       TRIP_ALGORI          ITRALG         NORMAL      [  0]    ***   
       UIJ_THRESHO          IUIJTH              1               ***   
       UNITS                IUNITS         ANGSTROM    [  0]    ***   
       UNOS                 IUNOS          OFF         [  0]    ***   
       UPDATE_HESS          IHUPDT         ON          [  1]    ***   
       VIBPHASE             ISETPH         STANDARD    [  0]    ***   
       VIBRATION            IVIB           ANALYTIC    [  1]    ***   
       VIB_ALGORIT          IGEALG         STANDARD    [  0]    ***   
       VNATORB              IVNORB         OFF         [  0]    ***   
       VTRAN                IVTRAN         FULL/PARTIAL[  0]    ***   
       XFIELD               IXEFLD              0             x 10-6  
       XFORM_TOL            IXFTOL          10D- 11             ***   
       YFIELD               IYEFLD              0             x 10-6  
       ZFIELD               IZEFLD            200             x 10-6  
       ZSCALE_EXP           IZEXPS         OFF         [  0]    ***   
    -------------------------------------------------------------------
   2 entries found in Z-matrix 
   Job Title : Carbon Monoxide DBOC calculation                                                
   There are  1 unique internal coordinates.
   Of these,  0 will be optimized.
   User supplied Z-matrix: 
--------------------------------------------------------------------------------
       SYMBOL    BOND      LENGTH    ANGLE     ANGLE     DIHED     ANGLE
                  TO      (ANGST)    WRT      (DEG)      WRT      (DEG)
--------------------------------------------------------------------------------
        C    
        O          1         r    
                  *Initial values for internal coordinates* 
                      Name             Value
                        r               1.6758620690
--------------------------------------------------------------------------------
  read isotopes from ZMAT file 
   Rotational constants (in cm-1): 
          0.8754593540             0.8754593540
   Rotational constants (in MHz): 
      26245.6148392841         26245.6148392841
********************************************************************************
   The full molecular point group is CXv .
   The largest Abelian subgroup of the full molecular point group is C2v .
   The computational point group is C2v .
********************************************************************************
--------------------------------------------------------------------------------
   Analysis of internal coordinates specified by Z-matrix 
--------------------------------------------------------------------------------
   *The nuclear repulsion energy is   15.156677432098764 a.u.
   *There is   1 degree of freedom within the tot. symm. molecular subspace.
   *Z-matrix requests optimization of   0 coordinates.
   *The optimization is constrained.
   *The following   1 parameters can have non-zero 
    derivatives within the totally symmetric subspace:
             r    [ 1]
   *The following   0 parameters are to be optimized:

   *The following coordinates must be varied in an  unconstrained optimization.
             r    [ 1]
--------------------------------------------------------------------------------


 ----------------------------------------------------------------
         Coordinates used in calculation (QCOMP) 
 ----------------------------------------------------------------
 Z-matrix   Atomic            Coordinates (in bohr)
  Symbol    Number           X              Y              Z
 ----------------------------------------------------------------
     C         6        -0.00000000     0.00000000     1.80942259
     O         8         0.00000000     0.00000000    -1.35749841
 ----------------------------------------------------------------
 
   Interatomic distance matrix (Angstroms) 
 
                 C             O    
                [ 1]        [ 2]
  C    [ 1]     0.00000
  O    [ 2]     1.67586     0.00000
 rotcon2
   Rotational constants (in cm-1): 
          0.8754593540             0.0000000000
   Rotational constants (in MHz): 
      26245.6148392841             0.0000000000
  ECPDATA file not present.   Using default ECPDATA. 
  @GTFLGS-I, Hessian will be transformed to curvilinear coordinates.
  There are  218 basis functions.
 @CHECKOUT-I, Total execution time (CPU/WALL):        0.12/       0.15 seconds.
--executable xjoda finished with status     0 in        0.18 seconds (walltime).
 --invoking executable--
/nfs/workspaces/public/cfour_mpi/bin/xvmol
 SERIAL VERSION OF MOLECULE STARTED
********************************************************************************
                    INPUT FROM MOL FILE
********************************************************************************
INTGRL        1    0    1    0    0    0    0    0    0                         
         *** CFOUR Program System (Release V0.1) ***                            
Carbon Monoxide DBOC calculation                                                
    2    2 X  Y       0.10E-08              0    0                              
   9999.00      3.00                                                            
          6.00000000    1    5    1    1    1    1    1                         
C #1  -0.000000000000000   0.000000000000000   1.809422591629195                
   16    9                                                                      
   33980.0000000000       9.100000000000000E-005 -1.900000000000000E-005        
  0.000000000000000E+000  0.000000000000000E+000  0.000000000000000E+000        
  0.000000000000000E+000  0.000000000000000E+000  0.000000000000000E+000        
  0.000000000000000E+000                                                        
   5089.00000000000       7.040000000000000E-004 -1.510000000000000E-004        
  0.000000000000000E+000  0.000000000000000E+000  0.000000000000000E+000        
  0.000000000000000E+000  0.000000000000000E+000  0.000000000000000E+000        
  0.000000000000000E+000                                                        
   1157.00000000000       3.693000000000000E-003 -7.850000000000000E-004        
  0.000000000000000E+000  0.000000000000000E+000  0.000000000000000E+000        
  0.000000000000000E+000  0.000000000000000E+000  0.000000000000000E+000        
  0.000000000000000E+000                                                        
   326.600000000000       1.536000000000000E-002 -3.324000000000000E-003        
  0.000000000000000E+000  0.000000000000000E+000  0.000000000000000E+000        
  0.000000000000000E+000  0.000000000000000E+000  0.000000000000000E+000        
  0.000000000000000E+000                                                        
   106.100000000000       5.292900000000000E-002 -1.151200000000000E-002        
  0.000000000000000E+000  0.000000000000000E+000  0.000000000000000E+000        
  0.000000000000000E+000  0.000000000000000E+000  0.000000000000000E+000        
  0.000000000000000E+000                                                        
   38.1100000000000       0.147043000000000      -3.416000000000000E-002        
  0.000000000000000E+000  0.000000000000000E+000  0.000000000000000E+000        
  0.000000000000000E+000  0.000000000000000E+000  0.000000000000000E+000        
  0.000000000000000E+000                                                        
   14.7500000000000       0.305631000000000      -7.717300000000001E-002        
  0.000000000000000E+000  0.000000000000000E+000  0.000000000000000E+000        
  0.000000000000000E+000  0.000000000000000E+000  0.000000000000000E+000        
  0.000000000000000E+000                                                        
   6.03500000000000       0.399345000000000      -0.141493000000000             
  0.000000000000000E+000  0.000000000000000E+000  0.000000000000000E+000        
  0.000000000000000E+000  0.000000000000000E+000  0.000000000000000E+000        
  0.000000000000000E+000                                                        
   2.53000000000000       0.217051000000000      -0.118019000000000             
  0.000000000000000E+000  0.000000000000000E+000  0.000000000000000E+000        
  0.000000000000000E+000  0.000000000000000E+000  0.000000000000000E+000        
  0.000000000000000E+000                                                        
  0.735500000000000       1.589400000000000E-002  0.273806000000000             
   1.00000000000000       0.000000000000000E+000  0.000000000000000E+000        
  0.000000000000000E+000  0.000000000000000E+000  0.000000000000000E+000        
  0.000000000000000E+000                                                        
  0.290500000000000      -3.084000000000000E-003  0.586510000000000             
  0.000000000000000E+000   1.00000000000000       0.000000000000000E+000        
  0.000000000000000E+000  0.000000000000000E+000  0.000000000000000E+000        
  0.000000000000000E+000                                                        
  0.111100000000000       9.779999999999999E-004  0.285430000000000             
  0.000000000000000E+000  0.000000000000000E+000   1.00000000000000             
  0.000000000000000E+000  0.000000000000000E+000  0.000000000000000E+000        
  0.000000000000000E+000                                                        
   7.21600000000000       0.000000000000000E+000  0.000000000000000E+000        
  0.000000000000000E+000  0.000000000000000E+000  0.000000000000000E+000        
   1.00000000000000       0.000000000000000E+000  0.000000000000000E+000        
  0.000000000000000E+000                                                        
   19.5700000000000       0.000000000000000E+000  0.000000000000000E+000        
  0.000000000000000E+000  0.000000000000000E+000  0.000000000000000E+000        
  0.000000000000000E+000   1.00000000000000       0.000000000000000E+000        
  0.000000000000000E+000                                                        
   53.0730000000000       0.000000000000000E+000  0.000000000000000E+000        
  0.000000000000000E+000  0.000000000000000E+000  0.000000000000000E+000        
  0.000000000000000E+000  0.000000000000000E+000   1.00000000000000             
  0.000000000000000E+000                                                        
  4.145000000000000E-002  0.000000000000000E+000  0.000000000000000E+000        
  0.000000000000000E+000  0.000000000000000E+000  0.000000000000000E+000        
  0.000000000000000E+000  0.000000000000000E+000  0.000000000000000E+000        
   1.00000000000000                                                             
   10    8                                                                      
   34.5100000000000       5.378000000000000E-003  0.000000000000000E+000        
  0.000000000000000E+000  0.000000000000000E+000  0.000000000000000E+000        
  0.000000000000000E+000  0.000000000000000E+000  0.000000000000000E+000        
   7.91500000000000       3.613200000000000E-002  0.000000000000000E+000        
  0.000000000000000E+000  0.000000000000000E+000  0.000000000000000E+000        
  0.000000000000000E+000  0.000000000000000E+000  0.000000000000000E+000        
   2.36800000000000       0.142493000000000       0.000000000000000E+000        
  0.000000000000000E+000  0.000000000000000E+000  0.000000000000000E+000        
  0.000000000000000E+000  0.000000000000000E+000  0.000000000000000E+000        
  0.813200000000000       0.342150000000000        1.00000000000000             
  0.000000000000000E+000  0.000000000000000E+000  0.000000000000000E+000        
  0.000000000000000E+000  0.000000000000000E+000  0.000000000000000E+000        
  0.289000000000000       0.463864000000000       0.000000000000000E+000        
   1.00000000000000       0.000000000000000E+000  0.000000000000000E+000        
  0.000000000000000E+000  0.000000000000000E+000  0.000000000000000E+000        
  0.100700000000000       0.250028000000000       0.000000000000000E+000        
  0.000000000000000E+000   1.00000000000000       0.000000000000000E+000        
  0.000000000000000E+000  0.000000000000000E+000  0.000000000000000E+000        
   8.18200000000000       0.000000000000000E+000  0.000000000000000E+000        
  0.000000000000000E+000  0.000000000000000E+000   1.00000000000000             
  0.000000000000000E+000  0.000000000000000E+000  0.000000000000000E+000        
   24.1860000000000       0.000000000000000E+000  0.000000000000000E+000        
  0.000000000000000E+000  0.000000000000000E+000  0.000000000000000E+000        
   1.00000000000000       0.000000000000000E+000  0.000000000000000E+000        
   71.4940000000000       0.000000000000000E+000  0.000000000000000E+000        
  0.000000000000000E+000  0.000000000000000E+000  0.000000000000000E+000        
  0.000000000000000E+000   1.00000000000000       0.000000000000000E+000        
  3.218000000000000E-002  0.000000000000000E+000  0.000000000000000E+000        
  0.000000000000000E+000  0.000000000000000E+000  0.000000000000000E+000        
  0.000000000000000E+000  0.000000000000000E+000   1.00000000000000             
    6    6                                                                      
   1.84800000000000        1.00000000000000       0.000000000000000E+000        
  0.000000000000000E+000  0.000000000000000E+000  0.000000000000000E+000        
  0.000000000000000E+000                                                        
  0.649000000000000       0.000000000000000E+000   1.00000000000000             
  0.000000000000000E+000  0.000000000000000E+000  0.000000000000000E+000        
  0.000000000000000E+000                                                        
  0.228000000000000       0.000000000000000E+000  0.000000000000000E+000        
   1.00000000000000       0.000000000000000E+000  0.000000000000000E+000        
  0.000000000000000E+000                                                        
   8.65600000000000       0.000000000000000E+000  0.000000000000000E+000        
  0.000000000000000E+000   1.00000000000000       0.000000000000000E+000        
  0.000000000000000E+000                                                        
   33.2130000000000       0.000000000000000E+000  0.000000000000000E+000        
  0.000000000000000E+000  0.000000000000000E+000   1.00000000000000             
  0.000000000000000E+000                                                        
  7.660000000000000E-002  0.000000000000000E+000  0.000000000000000E+000        
  0.000000000000000E+000  0.000000000000000E+000  0.000000000000000E+000        
   1.00000000000000                                                             
    4    4                                                                      
   1.41900000000000        1.00000000000000       0.000000000000000E+000        
  0.000000000000000E+000  0.000000000000000E+000                                
  0.485000000000000       0.000000000000000E+000   1.00000000000000             
  0.000000000000000E+000  0.000000000000000E+000                                
   24.6940000000000       0.000000000000000E+000  0.000000000000000E+000        
   1.00000000000000       0.000000000000000E+000                                
  0.187000000000000       0.000000000000000E+000  0.000000000000000E+000        
  0.000000000000000E+000   1.00000000000000                                     
    2    2                                                                      
   1.01100000000000        1.00000000000000       0.000000000000000E+000        
  0.424000000000000       0.000000000000000E+000   1.00000000000000             
          8.00000000    1    5    1    1    1    1    1                         
O #2   0.000000000000000   0.000000000000000  -1.357498405075910                
   16    9                                                                      
   61420.0000000000       9.000000000000001E-005 -2.000000000000000E-005        
  0.000000000000000E+000  0.000000000000000E+000  0.000000000000000E+000        
  0.000000000000000E+000  0.000000000000000E+000  0.000000000000000E+000        
  0.000000000000000E+000                                                        
   9199.00000000000       6.980000000000001E-004 -1.590000000000000E-004        
  0.000000000000000E+000  0.000000000000000E+000  0.000000000000000E+000        
  0.000000000000000E+000  0.000000000000000E+000  0.000000000000000E+000        
  0.000000000000000E+000                                                        
   2091.00000000000       3.664000000000000E-003 -8.290000000000000E-004        
  0.000000000000000E+000  0.000000000000000E+000  0.000000000000000E+000        
  0.000000000000000E+000  0.000000000000000E+000  0.000000000000000E+000        
  0.000000000000000E+000                                                        
   590.900000000000       1.521800000000000E-002 -3.508000000000000E-003        
  0.000000000000000E+000  0.000000000000000E+000  0.000000000000000E+000        
  0.000000000000000E+000  0.000000000000000E+000  0.000000000000000E+000        
  0.000000000000000E+000                                                        
   192.300000000000       5.242300000000000E-002 -1.215600000000000E-002        
  0.000000000000000E+000  0.000000000000000E+000  0.000000000000000E+000        
  0.000000000000000E+000  0.000000000000000E+000  0.000000000000000E+000        
  0.000000000000000E+000                                                        
   69.3200000000000       0.145921000000000      -3.626100000000000E-002        
  0.000000000000000E+000  0.000000000000000E+000  0.000000000000000E+000        
  0.000000000000000E+000  0.000000000000000E+000  0.000000000000000E+000        
  0.000000000000000E+000                                                        
   26.9700000000000       0.305258000000000      -8.299200000000000E-002        
  0.000000000000000E+000  0.000000000000000E+000  0.000000000000000E+000        
  0.000000000000000E+000  0.000000000000000E+000  0.000000000000000E+000        
  0.000000000000000E+000                                                        
   11.1000000000000       0.398508000000000      -0.152090000000000             
  0.000000000000000E+000  0.000000000000000E+000  0.000000000000000E+000        
  0.000000000000000E+000  0.000000000000000E+000  0.000000000000000E+000        
  0.000000000000000E+000                                                        
   4.68200000000000       0.216980000000000      -0.115331000000000             
  0.000000000000000E+000  0.000000000000000E+000  0.000000000000000E+000        
  0.000000000000000E+000  0.000000000000000E+000  0.000000000000000E+000        
  0.000000000000000E+000                                                        
   1.42800000000000       1.759400000000000E-002  0.288979000000000             
   1.00000000000000       0.000000000000000E+000  0.000000000000000E+000        
  0.000000000000000E+000  0.000000000000000E+000  0.000000000000000E+000        
  0.000000000000000E+000                                                        
  0.554700000000000      -2.502000000000000E-003  0.586128000000000             
  0.000000000000000E+000   1.00000000000000       0.000000000000000E+000        
  0.000000000000000E+000  0.000000000000000E+000  0.000000000000000E+000        
  0.000000000000000E+000                                                        
  0.206700000000000       9.540000000000000E-004  0.277624000000000             
  0.000000000000000E+000  0.000000000000000E+000   1.00000000000000             
  0.000000000000000E+000  0.000000000000000E+000  0.000000000000000E+000        
  0.000000000000000E+000                                                        
   12.9740000000000       0.000000000000000E+000  0.000000000000000E+000        
  0.000000000000000E+000  0.000000000000000E+000  0.000000000000000E+000        
   1.00000000000000       0.000000000000000E+000  0.000000000000000E+000        
  0.000000000000000E+000                                                        
   34.9000000000000       0.000000000000000E+000  0.000000000000000E+000        
  0.000000000000000E+000  0.000000000000000E+000  0.000000000000000E+000        
  0.000000000000000E+000   1.00000000000000       0.000000000000000E+000        
  0.000000000000000E+000                                                        
   93.8810000000000       0.000000000000000E+000  0.000000000000000E+000        
  0.000000000000000E+000  0.000000000000000E+000  0.000000000000000E+000        
  0.000000000000000E+000  0.000000000000000E+000   1.00000000000000             
  0.000000000000000E+000                                                        
  6.959000000000000E-002  0.000000000000000E+000  0.000000000000000E+000        
  0.000000000000000E+000  0.000000000000000E+000  0.000000000000000E+000        
  0.000000000000000E+000  0.000000000000000E+000  0.000000000000000E+000        
   1.00000000000000                                                             
   10    8                                                                      
   63.4200000000000       6.044000000000000E-003  0.000000000000000E+000        
  0.000000000000000E+000  0.000000000000000E+000  0.000000000000000E+000        
  0.000000000000000E+000  0.000000000000000E+000  0.000000000000000E+000        
   14.6600000000000       4.179900000000000E-002  0.000000000000000E+000        
  0.000000000000000E+000  0.000000000000000E+000  0.000000000000000E+000        
  0.000000000000000E+000  0.000000000000000E+000  0.000000000000000E+000        
   4.45900000000000       0.161143000000000       0.000000000000000E+000        
  0.000000000000000E+000  0.000000000000000E+000  0.000000000000000E+000        
  0.000000000000000E+000  0.000000000000000E+000  0.000000000000000E+000        
   1.53100000000000       0.356731000000000        1.00000000000000             
  0.000000000000000E+000  0.000000000000000E+000  0.000000000000000E+000        
  0.000000000000000E+000  0.000000000000000E+000  0.000000000000000E+000        
  0.530200000000000       0.448309000000000       0.000000000000000E+000        
   1.00000000000000       0.000000000000000E+000  0.000000000000000E+000        
  0.000000000000000E+000  0.000000000000000E+000  0.000000000000000E+000        
  0.175000000000000       0.244940000000000       0.000000000000000E+000        
  0.000000000000000E+000   1.00000000000000       0.000000000000000E+000        
  0.000000000000000E+000  0.000000000000000E+000  0.000000000000000E+000        
   14.4750000000000       0.000000000000000E+000  0.000000000000000E+000        
  0.000000000000000E+000  0.000000000000000E+000   1.00000000000000             
  0.000000000000000E+000  0.000000000000000E+000  0.000000000000000E+000        
   42.7300000000000       0.000000000000000E+000  0.000000000000000E+000        
  0.000000000000000E+000  0.000000000000000E+000  0.000000000000000E+000        
   1.00000000000000       0.000000000000000E+000  0.000000000000000E+000        
   126.140000000000       0.000000000000000E+000  0.000000000000000E+000        
  0.000000000000000E+000  0.000000000000000E+000  0.000000000000000E+000        
  0.000000000000000E+000   1.00000000000000       0.000000000000000E+000        
  5.348000000000000E-002  0.000000000000000E+000  0.000000000000000E+000        
  0.000000000000000E+000  0.000000000000000E+000  0.000000000000000E+000        
  0.000000000000000E+000  0.000000000000000E+000   1.00000000000000             
    6    6                                                                      
   3.77500000000000        1.00000000000000       0.000000000000000E+000        
  0.000000000000000E+000  0.000000000000000E+000  0.000000000000000E+000        
  0.000000000000000E+000                                                        
   1.30000000000000       0.000000000000000E+000   1.00000000000000             
  0.000000000000000E+000  0.000000000000000E+000  0.000000000000000E+000        
  0.000000000000000E+000                                                        
  0.444000000000000       0.000000000000000E+000  0.000000000000000E+000        
   1.00000000000000       0.000000000000000E+000  0.000000000000000E+000        
  0.000000000000000E+000                                                        
   14.9270000000000       0.000000000000000E+000  0.000000000000000E+000        
  0.000000000000000E+000   1.00000000000000       0.000000000000000E+000        
  0.000000000000000E+000                                                        
   57.5440000000000       0.000000000000000E+000  0.000000000000000E+000        
  0.000000000000000E+000  0.000000000000000E+000   1.00000000000000             
  0.000000000000000E+000                                                        
  0.154000000000000       0.000000000000000E+000  0.000000000000000E+000        
  0.000000000000000E+000  0.000000000000000E+000  0.000000000000000E+000        
   1.00000000000000                                                             
    4    4                                                                      
   2.66600000000000        1.00000000000000       0.000000000000000E+000        
  0.000000000000000E+000  0.000000000000000E+000                                
  0.859000000000000       0.000000000000000E+000   1.00000000000000             
  0.000000000000000E+000  0.000000000000000E+000                                
   26.4830000000000       0.000000000000000E+000  0.000000000000000E+000        
   1.00000000000000       0.000000000000000E+000                                
  0.324000000000000       0.000000000000000E+000  0.000000000000000E+000        
  0.000000000000000E+000   1.00000000000000                                     
    2    2                                                                      
   1.84600000000000        1.00000000000000       0.000000000000000E+000        
  0.714000000000000       0.000000000000000E+000   1.00000000000000             
FINISH                                                                          
 
********************************************************************************
 ONE- AND TWO-ELECTRON INTEGRALS OVER SYMMETRY-ADAPTED AOS ARE CALCULATED.

  SPHERICAL HARMONICS ARE USED.
  
  INTEGRALS LESS THAN  0.10E-13 ARE NEGLECTED.

  NUCLEAR REPULSION ENERGY :   15.1566774321 A.U.
  @MOLECU-I, ONE ELECTRON INTEGRALS (CPU/WALL):        0.07/       0.07 SECONDS.
  @TWOEL-I,    4401776 INTEGRALS OF SYMMETRY TYPE  I I I I
  @TWOEL-I,   18995865 INTEGRALS OF SYMMETRY TYPE  I J I J
  @TWOEL-I,   10002092 INTEGRALS OF SYMMETRY TYPE  I I J J
  @TWOEL-I,   14031704 INTEGRALS OF SYMMETRY TYPE  I J K L
  @TWOEL-I, TOTAL NUMBER OF 2-E INTEGRALS   47431437.
  @MOLECU-I, TWO ELECTRON INTEGRALS (CPU/WALL):      148.23/      21.28 SECONDS.
 @CHECKOUT-I, Total execution time (CPU/WALL):      148.32/      21.38 seconds.

Running with 14 threads/proc

--executable xvmol finished with status     0 in       21.41 seconds (walltime).
 --invoking executable--
/nfs/workspaces/public/cfour_mpi/bin/xvmol2ja
 @GETMEM-I,  Allocated    3814 MB of main memory.
 @CHECKOUT-I, Total execution time (CPU/WALL):        0.15/       0.03 seconds.
--executable xvmol2ja finished with status     0 in        0.05 seconds (walltime).
 --invoking executable--
/nfs/workspaces/public/cfour_mpi/bin/xvprop
 @GETMEM-I,  Allocated    3814 MB of main memory.
   Property integrals will be calculated.
    --------------------------------------------------------------
                                   Property evaluated at 
    Property type                X             Y             Z
    --------------------------------------------------------------
    Dipole moment               ----          ----          ----  
    Quadrupole moment           ----          ----          ----  
    Octopole moment             ----          ----          ----  
    Relativisitic corr.         ----          ----          ----  
    Second moment            0.0000000     0.0000000     0.0000000
    Electron density         0.0000000     0.0000000     1.8094226
    Electron density         0.0000000     0.0000000    -1.3574984
    Field gradient           0.0000000     0.0000000     1.8094226
    Field gradient           0.0000000     0.0000000    -1.3574984
    Potential                0.0000000     0.0000000     1.8094226
    Potential                0.0000000     0.0000000    -1.3574984
    --------------------------------------------------------------
 @CHECKOUT-I, Total execution time (CPU/WALL):        1.30/       1.30 seconds.
--executable xvprop finished with status     0 in        1.32 seconds (walltime).
 --invoking executable--
/nfs/workspaces/public/cfour_mpi/bin/xvscf
  There are  218 functions in the AO basis.

  There are 4 irreducible representations.

       Irrep        # of functions
         1                 86
         2                 52
         3                 52
         4                 28


  Parameters for SCF calculation: 
        SCF reference function:  RHF  
  Maximum number of iterations:  150
     Full symmetry point group: CXv 
     Computational point group: C2v 
        Initial density matrix: MOREAD                 
     SCF convergence tolerance: 10**(-10)
  DIIS convergence acceleration:  ON
          Latest start for DIIS:   8
                     DIIS order:   6

  Memory information:    2523578 words required.
  Fock matrices are constructed from AO integral file.
 @GETMEM-I,  Allocated      19 MB of main memory.
  Initialization and symmetry analysis required      0.002 seconds.

  Adding electric field perturbation to one-electron Hamiltonian.
  Field direction     : Z
  Field strength      :  0.0002000 a.u.

  @INITGES-I, Occupancies from core Hamiltonian:

          Alpha population by irrep:   5    1    1    0
           Beta population by irrep:   5    1    1    0


 total no. of electrons in initial guess :  0.000000000000000E+000
  --------------------------------------------------------------------
  Iteration         Total Energy            Largest Density Difference
  --------------------------------------------------------------------
       0            15.156678122436931              0.0000000000D+00
   current occupation vector 
     5  1  1  0
     5  1  1  0
       1           -93.681849450246588              0.1755908839D+02
   current occupation vector 
     5  1  1  0
     5  1  1  0
       2           -97.807201667396342              0.1755907825D+02
   current occupation vector 
     5  1  1  0
     5  1  1  0
       3          -100.045626743378648              0.6885230755D+01
   current occupation vector 
     5  1  1  0
     5  1  1  0
       4           -94.705803359103101              0.6882672083D+01
   current occupation vector 
     5  1  1  0
     5  1  1  0
       5          -100.030220373389540              0.7033968715D+01
   current occupation vector 
     5  1  1  0
     5  1  1  0
       6           -94.577448356287491              0.7034148663D+01
   current occupation vector 
     5  1  1  0
     5  1  1  0
       7          -100.025461736414584              0.7041386441D+01
   current occupation vector 
     5  1  1  0
     5  1  1  0
       8           -94.573979025770825              0.7041395610D+01
   current occupation vector 
     5  1  1  0
     5  1  1  0
       9          -107.271353915044415              0.5999052443D+01
   current occupation vector 
     5  1  1  0
     5  1  1  0
      10          -110.606949711504612              0.1315282406D+01
   current occupation vector 
     5  1  1  0
     5  1  1  0
      11          -112.330739072952099              0.1022147169D+01
   current occupation vector 
     5  1  1  0
     5  1  1  0
      12          -112.451037083266186              0.5403700368D+00
   current occupation vector 
     5  1  1  0
     5  1  1  0
      13          -112.480811788598558              0.1321176376D+00
   current occupation vector 
     5  1  1  0
     5  1  1  0
      14          -112.489532720124032              0.9857198367D-01
   current occupation vector 
     5  1  1  0
     5  1  1  0
      15          -112.490267154284041              0.3313870960D-01
   current occupation vector 
     5  1  1  0
     5  1  1  0
      16          -112.491008595856798              0.5333202223D-01
   current occupation vector 
     5  1  1  0
     5  1  1  0
      17          -112.491362327861069              0.4274005757D-01
   current occupation vector 
     5  1  1  0
     5  1  1  0
      18          -112.491441028274693              0.2679206067D-01
   current occupation vector 
     5  1  1  0
     5  1  1  0
      19          -112.491441776538338              0.2146676221D-02
   current occupation vector 
     5  1  1  0
     5  1  1  0
      20          -112.491441787030240              0.2714195872D-03
   current occupation vector 
     5  1  1  0
     5  1  1  0
      21          -112.491441787354660              0.2342607571D-04
   current occupation vector 
     5  1  1  0
     5  1  1  0
      22          -112.491441787377028              0.1846452218D-04
   current occupation vector 
     5  1  1  0
     5  1  1  0
      23          -112.491441787377383              0.8309102191D-06
   current occupation vector 
     5  1  1  0
     5  1  1  0
      24          -112.491441787376786              0.1739248561D-06
   current occupation vector 
     5  1  1  0
     5  1  1  0
      25          -112.491441787377084              0.5334719488D-07
   current occupation vector 
     5  1  1  0
     5  1  1  0
      26          -112.491441787377298              0.8160815801D-08
   current occupation vector 
     5  1  1  0
     5  1  1  0
      27          -112.491441787376715              0.4917734442D-08
   current occupation vector 
     5  1  1  0
     5  1  1  0
      28          -112.491441787376999              0.2320254211D-08
   current occupation vector 
     5  1  1  0
     5  1  1  0
      29          -112.491441787377511              0.5895748334D-09
   current occupation vector 
     5  1  1  0
     5  1  1  0

  SCF has converged.

 Density matrix saved to file den.dat
 total electron number:   14.0000000000001     
     E(SCF)=      -112.491441787377340              0.3697619988D-10

  Eigenvector printing suppressed.

 @PUTMOS-I, Writing converged MOs to NEWMOS. 
 @PUTMOS-I, Symmetry   1 Full Blocks 21 Partial Blocksize   2
 @PUTMOS-I, Symmetry   2 Full Blocks 13 Partial Blocksize   0
 @PUTMOS-I, Symmetry   3 Full Blocks 13 Partial Blocksize   0
 @PUTMOS-I, Symmetry   4 Full Blocks  7 Partial Blocksize   0
 @PUTFOCK-I, Writing converged Fock matrix to NEWFOCK. 
 @PUTFOCK-I, Symmetry   1 Full Blocks 21 Partial Blocksize   2
 @PUTFOCK-I, Symmetry   2 Full Blocks 13 Partial Blocksize   0
 @PUTFOCK-I, Symmetry   3 Full Blocks 13 Partial Blocksize   0
 @PUTFOCK-I, Symmetry   4 Full Blocks  7 Partial Blocksize   0


 
  ORBITAL EIGENVALUES (ALPHA)  (1H = 27.2113834 eV)

       MO #        E(hartree)               E(eV)           FULLSYM    COMPSYM
       ----   --------------------   --------------------   -------   ---------
    1     1         -20.6363824004        -561.5445134851     SG+        A1 (1)
    2     2         -11.5333931130        -313.8395819014     SG+        A1 (1)
    3     3          -1.2520864526         -34.0710045126     SG+        A1 (1)
    4     4          -0.8103932461         -22.0519213237     SG+        A1 (1)
    5     5          -0.5126647240         -13.9503163611     SG+        A1 (1)
    6   139          -0.4857361177         -13.2175517310      PI        B2 (3)
    7    87          -0.4857361177         -13.2175517310      PI        B1 (2)
  +++++++++++++++++++++++++++++++++++++++++++++++++++++++++++++++++++++++++++++
    8    88          -0.0182759258          -0.4973132244      PI        B1 (2)
    9   140          -0.0182759258          -0.4973132244      PI        B2 (3)
   10     6           0.0589525023           1.6041791420     SG+        A1 (1)
   11     7           0.0686746114           1.8687311811     SG+        A1 (1)
   12    89           0.0813541833           2.2137598736      PI        B1 (2)
   13   141           0.0813541833           2.2137598736      PI        B2 (3)
   14     8           0.1559278603           4.2430127904     SG+        A1 (1)
   15     9           0.1783561757           4.8533182776     SG+        A1 (1)
   16    90           0.1817175181           4.9447850556      PI        B1 (2)
   17   142           0.1817175181           4.9447850556      PI        B2 (3)
   18    10           0.2207975749           6.0082074656      DE        A1 (1)
   19   191           0.2207975749           6.0082074656      DE        A2 (4)
   20    91           0.2820587906           7.6752098917      PI        B1 (2)
   21   143           0.2820587906           7.6752098917      PI        B2 (3)
   22    11           0.2950061112           8.0275243969     SG+        A1 (1)
   23    12           0.3039538722           8.2710053515     SG+        A1 (1)
   24    92           0.4078058569          11.0969615260      PI        B1 (2)
   25   144           0.4078058569          11.0969615260      PI        B2 (3)
   26    13           0.4123565472          11.2207921045     SG+        A1 (1)
   27    14           0.5146834806          14.0052495189     SG+        A1 (1)
   28    15           0.5505106631          14.9801567187      DE        A1 (1)
   29   192           0.5505106631          14.9801567187      DE        A2 (4)
   30   145           0.6231246875          16.9560847777      PI        B2 (3)
   31    93           0.6231246875          16.9560847777      PI        B1 (2)
   32    16           0.6996795517          19.0392485373     SG+        A1 (1)
   33    94           0.7278402223          19.8055393421      PH        B1 (2)
   34   146           0.7278402223          19.8055393421      PH        B2 (3)
   35   193           0.7340082088          19.9733787887      DE        A2 (4)
   36    17           0.7340082088          19.9733787887      DE        A1 (1)
   37   147           0.7710232311          20.9806087531      PI        B2 (3)
   38    95           0.7710232311          20.9806087531      PI        B1 (2)
   39    18           0.8121925611          22.1008831735     SG+        A1 (1)
   40    19           0.8523445507          23.1934743568      DE        A1 (1)
   41   194           0.8523445507          23.1934743568      DE        A2 (4)
   42   148           0.8723294215          23.7372903390      PI        B2 (3)
   43    96           0.8723294215          23.7372903390      PI        B1 (2)
   44    20           0.8975037151          24.4223176942     SG+        A1 (1)
   45   149           1.0495080885          28.5585669787      PI        B2 (3)
   46    97           1.0495080885          28.5585669787      PI        B1 (2)
   47    21           1.1429684575          31.1017529107     SG+        A1 (1)
   48    22           1.3395143208          36.4500377536     SG+        A1 (1)
   49   150           1.4191364898          38.6166671204      PH        B2 (3)
   50    98           1.4191364898          38.6166671204      PH        B1 (2)
   51    99           1.4650290335          39.8654667233      PI        B1 (2)
   52   151           1.4650290335          39.8654667233      PI        B2 (3)
   53    23           1.5796912401          42.9855839885     SG+        A1 (1)
   54   195           1.5880175635          43.2121547669      DE        A2 (4)
   55    24           1.5880175635          43.2121547669      DE        A1 (1)
   56   152           1.6403359997          44.6358117915      PI        B2 (3)
   57   100           1.6403359997          44.6358117915      PI        B1 (2)
   58   196           1.6641288271          45.2832475408      DE        A2 (4)
   59    25           1.6641288271          45.2832475408      DE        A1 (1)
   60    26           1.9039557973          51.8092711771     SG+        A1 (1)
   61    27           1.9219301037          52.2983769195     SG+        A1 (1)
   62   153           2.0412312786          55.5447269301      PI        B2 (3)
   63   101           2.0412312786          55.5447269301      PI        B1 (2)
   64   197           2.0605162000          56.0694963193      PI        A2 (4)
   65    28           2.0605162000          56.0694963193      PI        A1 (1)
   66    29           2.1174798055          57.6195548289      DE        A1 (1)
   67   198           2.1174798055          57.6195548289      DE        A2 (4)
   68   102           2.1803874376          59.3313585264      PH        B1 (2)
   69   154           2.1803874376          59.3313585264      PH        B2 (3)
   70   103           2.2005565506          59.8801879923      PH        B1 (2)
   71   155           2.2005565506          59.8801879923      PH        B2 (3)
   72   156           2.2080696329          60.0846293554      PI        B2 (3)
   73   104           2.2080696329          60.0846293554      PI        B1 (2)
   74    30           2.2164458298          60.3125572603     SG+        A1 (1)
   75   199           2.2726657273          61.8423784449      DE        A2 (4)
   76    31           2.2726657273          61.8423784449      DE        A1 (1)
   77    32           2.3674403449          64.4213269025     SG+        A1 (1)
   78   105           2.4826521870          67.5564005099      PI        B1 (2)
   79   157           2.4826521870          67.5564005099      PI        B2 (3)
   80   200           2.5831681943          70.2915801205      DE        A2 (4)
   81    33           2.5831681943          70.2915801205      DE        A1 (1)
   82   158           2.6192477369          71.2733543896      PI        B2 (3)
   83   106           2.6192477369          71.2733543896      PI        B1 (2)
   84    34           2.6585022629          72.3415243449     SG+        A1 (1)
   85    35           2.8251745717          76.8769084421     SG+        A1 (1)
   86   159           3.3046167231          89.9231926433      PI        B2 (3)
   87   107           3.3046167231          89.9231926433      PI        B1 (2)
   88   201           3.7166631645         101.1355463375      PI        A2 (4)
   89    36           3.7166631645         101.1355463375      PI        A1 (1)
   90    37           3.8431025605         104.5761372193     SG+        A1 (1)
   91   160           3.8784942704         105.5391946054      PH        B2 (3)
   92   108           3.8784942704         105.5391946054      PH        B1 (2)
   93    38           4.0705341605         110.7648656852     SG+        A1 (1)
   94   161           4.1470939948         112.8481646893      PH        B2 (3)
   95   109           4.1470939948         112.8481646893      PH        B1 (2)
   96   162           4.1475963051         112.8618332474      PI        B2 (3)
   97   110           4.1475963051         112.8618332474      PI        B1 (2)
   98   202           4.1507415986         112.9474210331      DE        A2 (4)
   99    39           4.1507415986         112.9474210331      DE        A1 (1)
  100   203           4.3067249383         117.1919434949      DE        A2 (4)
  101    40           4.3067249383         117.1919434950      DE        A1 (1)
  102    41           4.3407806912         118.1186476436     SG+        A1 (1)
  103   163           4.4859132950         122.0679065693      PI        B2 (3)
  104   111           4.4859132950         122.0679065693      PI        B1 (2)
  105   204           4.6020516952         125.2281931035      DE        A2 (4)
  106    42           4.6020516952         125.2281931035      DE        A1 (1)
  107    43           4.8649645429         132.3824154035     SG+        A1 (1)
  108   164           5.0637631193         137.7919996873      PI        B2 (3)
  109   112           5.0637631193         137.7919996874      PI        B1 (2)
  110    44           5.0938642124         138.6110920715     SG+        A1 (1)
  111   165           5.3551953287         145.7222732720      PI        B2 (3)
  112   113           5.3551953287         145.7222732721      PI        B1 (2)
  113    45           5.8136758925         158.1981636753      PI        A1 (1)
  114   205           5.8136758925         158.1981636753      PI        A2 (4)
  115   166           5.8842064239         160.1173970059      PH        B2 (3)
  116   114           5.8842064239         160.1173970059      PH        B1 (2)
  117    46           5.9760037804         162.6153300671     SG+        A1 (1)
  118   206           6.0526520196         164.7010346918      DE        A2 (4)
  119    47           6.0526520196         164.7010346918      DE        A1 (1)
  120   167           6.1055634025         166.1408266192      PI        B2 (3)
  121   115           6.1055634025         166.1408266192      PI        B1 (2)
  122    48           6.1515643372         167.3925756880     SG+        A1 (1)
  123    49           6.2582782111         170.2964078248      DE        A1 (1)
  124   207           6.2582782111         170.2964078248      DE        A2 (4)
  125   168           6.3381168862         172.4689286256      PH        B2 (3)
  126   116           6.3381168862         172.4689286256      PH        B1 (2)
  127   208           6.4691721236         176.0351229354      DE        A2 (4)
  128    50           6.4691721236         176.0351229354      DE        A1 (1)
  129   169           6.7175515888         182.7938717913      PI        B2 (3)
  130   117           6.7175515888         182.7938717913      PI        B1 (2)
  131   118           7.0611414554         192.1434273834      PI        B1 (2)
  132   170           7.0611414554         192.1434273834      PI        B2 (3)
  133    51           7.0631115615         192.1970366957     SG+        A1 (1)
  134    52           7.5428441581         205.2512243117     SG+        A1 (1)
  135    53           9.3882647890         255.4676726351     SG+        A1 (1)
  136   119           9.6328749048         262.1238522793      PI        B1 (2)
  137   171           9.6328749048         262.1238522796      PI        B2 (3)
  138    54          10.6689950883         290.3181158391     SG+        A1 (1)
  139   209          10.6719091652         290.3974119046      PI        A2 (4)
  140    55          10.6719091652         290.3974119046      PI        A1 (1)
  141   172          10.7283234058         291.9325214355      PH        B2 (3)
  142   120          10.7283234058         291.9325214355      PH        B1 (2)
  143   210          10.9350702870         297.5583900847      DE        A2 (4)
  144    56          10.9350702870         297.5583900847      DE        A1 (1)
  145   173          10.9892558793         299.0328550131      PI        B2 (3)
  146   121          10.9892558793         299.0328550131      PI        B1 (2)
  147    57          11.1306449351         302.8802468170     SG+        A1 (1)
  148   122          11.9073442040         324.0153084115      PH        B1 (2)
  149   174          11.9073442040         324.0153084115      PH        B2 (3)
  150   211          11.9775396305         325.9254230753      DE        A2 (4)
  151    58          11.9775396305         325.9254230754      DE        A1 (1)
  152   123          12.2326253114         332.8666573364      PI        B1 (2)
  153   175          12.2326253114         332.8666573364      PI        B2 (3)
  154    59          12.5045102280         340.2650220427     SG+        A1 (1)
  155    60          12.7239053177         346.2350659446      DE        A1 (1)
  156   212          12.7239053177         346.2350659447      DE        A2 (4)
  157   176          13.1033694613         356.5608102441      PI        B2 (3)
  158   124          13.1033694613         356.5608102441      PI        B1 (2)
  159    61          13.3613892911         363.5818867554     SG+        A1 (1)
  160    62          17.2377272145         469.0624041789     SG+        A1 (1)
  161   177          18.6748148149         508.1675458517      PI        B2 (3)
  162   125          18.6748148149         508.1675458519      PI        B1 (2)
  163    63          19.4512715479         529.2960077085     SG+        A1 (1)
  164    64          26.2372317101         713.9513714175      DE        A1 (1)
  165   213          26.2372317101         713.9513714175      DE        A2 (4)
  166   178          26.4743276190         720.4030790991      PI        B2 (3)
  167   126          26.4743276190         720.4030790991      PI        B1 (2)
  168    65          26.9050879228         732.1246628772     SG+        A1 (1)
  169   127          33.3577351500         907.7101205219      PI        B1 (2)
  170   179          33.3577351500         907.7101205233      PI        B2 (3)
  171    66          34.2205165784         931.1875967618     SG+        A1 (1)
  172    67          35.5087677681         966.2426938002     SG+        A1 (1)
  173    68          47.0787349699        1281.0775072535      DE        A1 (1)
  174   214          47.0787349699        1281.0775072535      DE        A2 (4)
  175   180          47.2635396367        1286.1062978963      PI        B2 (3)
  176   128          47.2635396367        1286.1062978964      PI        B1 (2)
  177    69          47.4179392974        1290.3077262601     SG+        A1 (1)
  178    70          63.6747605091        1732.6783211163     SG+        A1 (1)
  179   181          66.2675634107        1803.2320749535      PI        B2 (3)
  180   129          66.2675634107        1803.2320749537      PI        B1 (2)
  181    71          66.8467205361        1818.9917415409     SG+        A1 (1)
  182   130          98.4944020145        2680.1689359698      PH        B1 (2)
  183   182          98.4944020145        2680.1689359699      PH        B2 (3)
  184    72          98.5089725035        2680.5654191340      DE        A1 (1)
  185   215          98.5089725035        2680.5654191341      DE        A2 (4)
  186   131          98.5223876305        2680.9304632959      PI        B1 (2)
  187   183          98.5223876305        2680.9304632959      PI        B2 (3)
  188    73          98.5299750405        2681.1369272185     SG+        A1 (1)
  189   216         103.3183909413        2811.4363481755      DE        A2 (4)
  190    74         103.3183909414        2811.4363481778      DE        A1 (1)
  191   132         103.3255256153        2811.6304925240      PH        B1 (2)
  192   184         103.3255256153        2811.6304925240      PH        B2 (3)
  193   185         103.3327593501        2811.8273324562      PI        B2 (3)
  194   133         103.3327593501        2811.8273324562      PI        B1 (2)
  195    75         103.3440016706        2812.1332515491     SG+        A1 (1)
  196    76         114.9440546661        3127.7867410707      DE        A1 (1)
  197   217         114.9440546661        3127.7867410708      DE        A2 (4)
  198   186         115.0599755066        3130.9411075045      PI        B2 (3)
  199   134         115.0599755066        3130.9411075045      PI        B1 (2)
  200    77         115.2439190362        3135.9464654133     SG+        A1 (1)
  201   135         116.6744803595        3174.8740180584      PI        B1 (2)
  202   187         116.6744803596        3174.8740180598      PI        B2 (3)
  203    78         117.3907184487        3194.3638473088     SG+        A1 (1)
  204    79         121.7839567182        3313.9099382276     SG+        A1 (1)
  205   218         198.5628460388        5403.1697325570      DE        A2 (4)
  206    80         198.5628460388        5403.1697325570      DE        A1 (1)
  207   188         198.6635020545        5405.9087219910      PI        B2 (3)
  208   136         198.6635020545        5405.9087219912      PI        B1 (2)
  209    81         198.7441086525        5408.1021390340     SG+        A1 (1)
  210    82         216.2041366920        5883.2136561923     SG+        A1 (1)
  211   189         224.7550059798        6115.8946387853      PI        B2 (3)
  212   137         224.7550059798        6115.8946387855      PI        B1 (2)
  213    83         225.2129056311        6128.3547217572     SG+        A1 (1)
  214   138         395.2212009058       10754.5156256573      PI        B1 (2)
  215   190         395.2212009059       10754.5156256583      PI        B2 (3)
  216    84         395.7682779874       10769.4023498726     SG+        A1 (1)
  217    85         508.5355975800       13837.9571182972     SG+        A1 (1)
  218    86         895.0151973420       24354.6016836992     SG+        A1 (1)


  VSCF finished.

 @CHECKOUT-I, Total execution time (CPU/WALL):       48.19/       8.45 seconds.
--executable xvscf finished with status     0 in        8.48 seconds (walltime).
 --invoking executable--
/nfs/workspaces/public/cfour_mpi/bin/xvtran
 @GETMEM-I,  Allocated    3814 MB of main memory.
  Full RHF integral transformation
  Transformation of IIII integrals :
  1 pass through the AO integral file was required.
     4401776 AO integrals were read.
     8584025 MO integrals were written to HF2.
  Transformation of IIJJ integrals :
  1 pass through the AO integral file was required.
    10002092 AO integrals were read.
    14349591 MO integrals were written to HF2.
  Transformation of IJIJ integrals :
  1 pass through the AO integral file was required.
    18995865 AO integrals were read.
    26684231 MO integrals were written to HF2.
  Transformation of IJKL integrals :
  1 pass through the AO integral file was required.
    14031704 AO integrals were read.
    18047714 MO integrals were written to HF2.
  Summary of active molecular orbitals: 
------------------------------------------------------------------------
 
  Index      Eigenvalue    Symmetry    Index      Eigenvalue    Symmetry
------------------------------------------------------------------------
     1       -20.6363824        1       110         4.1470940        2
     2       -11.5333931        1       111         4.1475963        2
     3        -1.2520865        1       112         4.4859133        2
     4        -0.8103932        1       113         5.0637631        2
     5        -0.5126647        1       114         5.3551953        2
     6        -0.4857361        2       115         5.8842064        2
     7        -0.4857361        3       116         6.1055634        2
     8         0.0589525        1       117         6.3381169        2
     9         0.0686746        1       118         6.7175516        2
    10         0.1559279        1       119         7.0611415        2
    11         0.1783562        1       120         9.6328749        2
    12         0.2207976        1       121        10.7283234        2
    13         0.2950061        1       122        10.9892559        2
    14         0.3039539        1       123        11.9073442        2
    15         0.4123565        1       124        12.2326253        2
    16         0.5146835        1       125        13.1033695        2
    17         0.5505107        1       126        18.6748148        2
    18         0.6996796        1       127        26.4743276        2
    19         0.7340082        1       128        33.3577351        2
    20         0.8121926        1       129        47.2635396        2
    21         0.8523446        1       130        66.2675634        2
    22         0.8975037        1       131        98.4944020        2
    23         1.1429685        1       132        98.5223876        2
    24         1.3395143        1       133       103.3255256        2
    25         1.5796912        1       134       103.3327594        2
    26         1.5880176        1       135       115.0599755        2
    27         1.6641288        1       136       116.6744804        2
    28         1.9039558        1       137       198.6635021        2
    29         1.9219301        1       138       224.7550060        2
    30         2.0605162        1       139       395.2212009        2
    31         2.1174798        1       140        -0.0182759        3
    32         2.2164458        1       141         0.0813542        3
    33         2.2726657        1       142         0.1817175        3
    34         2.3674403        1       143         0.2820588        3
    35         2.5831682        1       144         0.4078059        3
    36         2.6585023        1       145         0.6231247        3
    37         2.8251746        1       146         0.7278402        3
    38         3.7166632        1       147         0.7710232        3
    39         3.8431026        1       148         0.8723294        3
    40         4.0705342        1       149         1.0495081        3
    41         4.1507416        1       150         1.4191365        3
    42         4.3067249        1       151         1.4650290        3
    43         4.3407807        1       152         1.6403360        3
    44         4.6020517        1       153         2.0412313        3
    45         4.8649645        1       154         2.1803874        3
    46         5.0938642        1       155         2.2005566        3
    47         5.8136759        1       156         2.2080696        3
    48         5.9760038        1       157         2.4826522        3
    49         6.0526520        1       158         2.6192477        3
    50         6.1515643        1       159         3.3046167        3
    51         6.2582782        1       160         3.8784943        3
    52         6.4691721        1       161         4.1470940        3
    53         7.0631116        1       162         4.1475963        3
    54         7.5428442        1       163         4.4859133        3
    55         9.3882648        1       164         5.0637631        3
    56        10.6689951        1       165         5.3551953        3
    57        10.6719092        1       166         5.8842064        3
    58        10.9350703        1       167         6.1055634        3
    59        11.1306449        1       168         6.3381169        3
    60        11.9775396        1       169         6.7175516        3
    61        12.5045102        1       170         7.0611415        3
    62        12.7239053        1       171         9.6328749        3
    63        13.3613893        1       172        10.7283234        3
    64        17.2377272        1       173        10.9892559        3
    65        19.4512715        1       174        11.9073442        3
    66        26.2372317        1       175        12.2326253        3
    67        26.9050879        1       176        13.1033695        3
    68        34.2205166        1       177        18.6748148        3
    69        35.5087678        1       178        26.4743276        3
    70        47.0787350        1       179        33.3577352        3
    71        47.4179393        1       180        47.2635396        3
    72        63.6747605        1       181        66.2675634        3
    73        66.8467205        1       182        98.4944020        3
    74        98.5089725        1       183        98.5223876        3
    75        98.5299750        1       184       103.3255256        3
    76       103.3183909        1       185       103.3327594        3
    77       103.3440017        1       186       115.0599755        3
    78       114.9440547        1       187       116.6744804        3
    79       115.2439190        1       188       198.6635021        3
    80       117.3907184        1       189       224.7550060        3
    81       121.7839567        1       190       395.2212009        3
    82       198.5628460        1       191         0.2207976        4
    83       198.7441087        1       192         0.5505107        4
    84       216.2041367        1       193         0.7340082        4
    85       225.2129056        1       194         0.8523446        4
    86       395.7682780        1       195         1.5880176        4
    87       508.5355976        1       196         1.6641288        4
    88       895.0151973        1       197         2.0605162        4
    89        -0.0182759        2       198         2.1174798        4
    90         0.0813542        2       199         2.2726657        4
    91         0.1817175        2       200         2.5831682        4
    92         0.2820588        2       201         3.7166632        4
    93         0.4078059        2       202         4.1507416        4
    94         0.6231247        2       203         4.3067249        4
    95         0.7278402        2       204         4.6020517        4
    96         0.7710232        2       205         5.8136759        4
    97         0.8723294        2       206         6.0526520        4
    98         1.0495081        2       207         6.2582782        4
    99         1.4191365        2       208         6.4691721        4
   100         1.4650290        2       209        10.6719092        4
   101         1.6403360        2       210        10.9350703        4
   102         2.0412313        2       211        11.9775396        4
   103         2.1803874        2       212        12.7239053        4
   104         2.2005566        2       213        26.2372317        4
   105         2.2080696        2       214        47.0787350        4
   106         2.4826522        2       215        98.5089725        4
   107         2.6192477        2       216       103.3183909        4
   108         3.3046167        2       217       114.9440547        4
   109         3.8784943        2       218       198.5628460        4
------------------------------------------------------------------------
  -20.6363824003550       -11.5333931130245       -1.25208645263684     
 -0.810393246075420      -0.512664724025181      -0.485736117736526     
 -0.485736117736572       5.895250228131921E-002  6.867461141831155E-002
  0.155927860337448       0.178356175659998       0.220797574944284     
  0.295006111187777       0.303953872167105       0.412356547242175     
  0.514683480550581       0.550510663074235       0.699679551657169     
  0.734008208809165       0.812192561056657       0.852344550655629     
  0.897503715088697        1.14296845748418        1.33951432082084     
   1.57969124012055        1.58801756352174        1.66412882708447     
   1.90395579730451        1.92193010368984        2.06051619996887     
   2.11747980548877        2.21644582981127        2.27266572727497     
   2.36744034493057        2.58316819425316        2.65850226287645     
   2.82517457168594        3.71666316448649        3.84310256050021     
   4.07053416053921        4.15074159857438        4.30672493831949     
   4.34078069120172        4.60205169515745        4.86496454287336     
   5.09386421241227        5.81367589254347        5.97600378035575     
   6.05265201958735        6.15156433715043        6.25827821105186     
   6.46917212358418        7.06311156145310        7.54284415807026     
[...]
 Convergence information after    17 iterations: 
 Largest element of residual vector :  0.76560089E-06.
 Largest element of DIIS residual   :  0.32520474E-06.
 Convergence information after    18 iterations: 
 Largest element of residual vector :  0.12447768E-06.
 Largest element of DIIS residual   : -0.10387755E-06.
 Convergence information after    19 iterations: 
 Largest element of residual vector :  0.13038196E-06.
 Largest element of DIIS residual   : -0.44174545E-07.
 Perturbed amplitude equations converged in    19 iterations.
  Dominant contributions to perturbed wavefunction:
    7    7  140   22  -0.2214734966 ABAB
    7    7   22  140  -0.2214734966 ABAB
    7    7  140   45  -0.2145936071 ABAB
    7    7   45  140  -0.2145936071 ABAB
    7    0   36    0   0.2089278733 AA  
    7    0   22    0   0.1926283484 AA  
    7    0   28    0   0.1850965932 AA  
    7    7  140   32  -0.1778807096 ABAB
    7    7   32  140  -0.1778807096 ABAB
    7    7  140   28  -0.1758940907 ABAB
    7    7   28  140  -0.1758940907 ABAB
    7    0   45    0   0.1736446447 AA  
    7    0   46    0  -0.1723158225 AA  
    7    7  140   39  -0.1705165320 ABAB
    7    7   39  140  -0.1705165320 ABAB
    7    0   39    0   0.1623173354 AA  
    7    0   25    0  -0.1533404025 AA  
    7    7  140   56  -0.1532604016 ABAB
    7    7   56  140  -0.1532604016 ABAB
    7    7  140   36  -0.1499699999 ABAB
  norm of converged amps    1.59450515281722     
 Starting iterative solution of the perturbed Lambda equations.
 The DIIS procedure is used to accelerate convergence.
 Convergence criterion is 10**(-7).
 Maximum number of iterations is 100.
 Convergence information after     1 iterations: 
 Largest element of residual vector :  0.77989762E-01.
 Largest element of DIIS residual   :  0.77989762E-01.
 Convergence information after     2 iterations: 
 Largest element of residual vector : -0.17554331E-01.
 Largest element of DIIS residual   :  0.14117651E-01.
 Convergence information after     3 iterations: 
 Largest element of residual vector :  0.63456416E-02.
 Largest element of DIIS residual   :  0.60945237E-02.
 Convergence information after     4 iterations: 
 Largest element of residual vector :  0.34275257E-02.
 Largest element of DIIS residual   :  0.31947456E-02.
 Convergence information after     5 iterations: 
 Largest element of residual vector :  0.32399054E-02.
 Largest element of DIIS residual   :  0.27831125E-02.
 Convergence information after     6 iterations: 
 Largest element of residual vector :  0.18527189E-02.
 Largest element of DIIS residual   :  0.85049084E-03.
 Convergence information after     7 iterations: 
 Largest element of residual vector :  0.92403552E-03.
 Largest element of DIIS residual   :  0.46314888E-03.
 Convergence information after     8 iterations: 
 Largest element of residual vector :  0.34840553E-03.
 Largest element of DIIS residual   : -0.20421802E-03.
 Convergence information after     9 iterations: 
 Largest element of residual vector :  0.15447009E-03.
 Largest element of DIIS residual   : -0.10039102E-03.
 Convergence information after    10 iterations: 
 Largest element of residual vector : -0.89476669E-04.
 Largest element of DIIS residual   : -0.55671227E-04.
 Convergence information after    11 iterations: 
 Largest element of residual vector : -0.29710758E-04.
 Largest element of DIIS residual   : -0.93966777E-05.
 Convergence information after    12 iterations: 
 Largest element of residual vector :  0.13286602E-04.
 Largest element of DIIS residual   :  0.74910671E-05.
 Convergence information after    13 iterations: 
 Largest element of residual vector :  0.35402893E-05.
 Largest element of DIIS residual   :  0.30287581E-05.
 Convergence information after    14 iterations: 
 Largest element of residual vector :  0.37903373E-05.
 Largest element of DIIS residual   :  0.21386887E-05.
 Convergence information after    15 iterations: 
 Largest element of residual vector :  0.20896606E-05.
 Largest element of DIIS residual   :  0.99616608E-06.
 Convergence information after    16 iterations: 
 Largest element of residual vector :  0.90500954E-06.
 Largest element of DIIS residual   :  0.26638939E-06.
 Convergence information after    17 iterations: 
 Largest element of residual vector :  0.43218961E-06.
 Largest element of DIIS residual   :  0.18776871E-06.
 Convergence information after    18 iterations: 
 Largest element of residual vector :  0.79452101E-07.
 Largest element of DIIS residual   : -0.56416472E-07.
 Perturbed Lambda equations converged in    18 iterations.
  Dominant contributions to perturbed wavefunction:
    7    7  140   22  -0.1687647097 ABAB
    7    7   22  140  -0.1687647097 ABAB
    7    7  140   45  -0.1654243269 ABAB
    7    7   45  140  -0.1654243269 ABAB
    7    7  140   32  -0.1363810712 ABAB
    7    7   32  140  -0.1363810712 ABAB
    7    7  140   28  -0.1314017064 ABAB
    7    7   28  140  -0.1314017064 ABAB
    7    7  140   39  -0.1290271882 ABAB
    7    7   39  140  -0.1290271882 ABAB
    7    7  140   56  -0.1163907612 ABAB
    7    7   56  140  -0.1163907612 ABAB
    7    7  140   36  -0.1076699870 ABAB
    7    7   36  140  -0.1076699870 ABAB
    7    6   22   89  -0.1044141850 ABAB
    6    7   89   22  -0.1044141850 ABAB
    7    7  140   16   0.1037962965 ABAB
    7    7   16  140   0.1037962965 ABAB
    7    6   45   89  -0.1030240847 ABAB
    6    7   89   45  -0.1030240847 ABAB
        The DBOC first-order density matrix is being calculated 
             (Symmetry block 3, perturbation   2)
 term   2.63492258490937     
 final tnorm  0.745759707980329     
  norm contr. I: |<0|L dT/dx|0>|^2   0.000000000000000E+000
  norm contr. II: <0|[nabla(1+L)e-T][nabla e^T]|0>   2.63492258490937     
  total norm contribution   2.63492258490937     
 oo  1.095935644405356E-002
 vv  -19.6953385337258     
 vo  3.694639619879401E-002
  Correlated perturbed 1-el contribution to DBOC  -19.6474327810829       cm**-1
  SUM_I |dc_I/dx|^2 contribution to DBOC   9.91971837020039       cm**-1
 
 
  The total diagonal Born-Oppenheimer correction (DBOC) is:      0.0041408106 a.u.
  The total diagonal Born-Oppenheimer correction (DBOC) is:        908.802873 cm-1
 
 Total CC energy including DBOC  -113.041662090556     
 First-order density matrix is being calculated  (Symmetry block 3, perturbation   2)
 Calculation of the contributions of <pq||rs> to dI(i,j)/dx required   1.4 seconds.
 Calculation of the contributions of <pq||rs> to dI(a,b)/dx required  13.0 seconds.
 Calculation of the contributions of <pq||rs> to dI(i,a)/dx required   8.7 seconds.
 First-order Z-vector equations are solved for 1 perturbation.
 Convergence reached after  20 iterations.
        U*G(pq,rs) contribution is being calculated
             (Symmetry block 3, perturbation   2)

 CCSD contribution to force constants 

        0.0000000000        0.0000000000        0.0000000000
        0.0000000000        0.0000000000        0.0000000000
        0.0000000000        0.0000000000        0.0000000000
        0.0000000000        0.0000000000        0.0000000000
        0.0000000000        0.0000000000        0.0000000000
        0.0000000000        0.0000000000        0.0000000000
        0.0000000000        0.0000000000        0.0000000000
        0.0000000000        0.0000000000        0.0000000000
        0.0000000000        0.0000000000        0.0000000000
        0.0000000000        0.0000000000        0.0000000000
        0.0000000000        0.0000000000        0.0000000000
        0.0000000000       -7.2880602181        7.2880602181

 CCSD contribution to dipole derivatives 

        0.0000000000        0.0000000000        0.0000000000
        0.0000000000        0.0000000000        0.0000000000
        0.0000000000        0.0000000000        0.0000000000
        0.0000000000        0.0000000000       -0.0571057819
        0.0000000000        0.0000000000        0.0000000000
        0.0000000000        0.0000000000        0.0000000000
 @CHECKOUT-I, Total execution time (CPU/WALL):     1057.51/     233.74 seconds.
--executable xsdcc finished with status     0 in      233.78 seconds (walltime).
 --invoking executable--
/nfs/workspaces/public/cfour_mpi/bin/xanti
 @GETMEM-I,  Allocated    3814 MB of main memory.
 CCSD MO derivative gammas will be sorted to Mulliken order.
 @CHECKOUT-I, Total execution time (CPU/WALL):        8.86/      16.91 seconds.
--executable xanti finished with status     0 in       16.94 seconds (walltime).
 --invoking executable--
/nfs/workspaces/public/cfour_mpi/bin/xbcktrn
 @GETMEM-I,  Allocated    3814 MB of main memory.
 CCSD MO derivative gammas will be transformed to the AO basis.
 @CHECKOUT-I, Total execution time (CPU/WALL):       17.26/       3.35 seconds.
--executable xbcktrn finished with status     0 in        3.38 seconds (walltime).
 --invoking executable--
/nfs/workspaces/public/cfour_mpi/bin/xvdint
 @GETMEM-I,  Allocated    3814 MB of main memory.
 One- and two-electron integral derivatives are calculated
 for RHF-CC/MBPT hessians and dipole derivatives.
 Spherical gaussians are used.
  magnet F F
                    8722  records have been written to the Sort file.
  Total length of Sort file :             178609116  words.
 Evaluation of 2el integral derivatives

                      Two-electron integral gradient
                      ------------------------------

                         C #1 z     0.0000000000
                         O #2 z     0.0000000000


 C #1       0.0000000000            0.0810909276            0.0000000000
 O #2       0.0000000000           -0.0810909276            0.0000000000


 Evaluation of 2e integral derivatives required  256.02 seconds.
  contribution to Hessian
        0.0000000000        0.0000000000        0.0000000000
        0.0000000000        0.0810909276       -0.0810909276
 @CHECKOUT-I, Total execution time (CPU/WALL):      256.00/      63.59 seconds.
--executable xvdint finished with status     0 in       63.62 seconds (walltime).
 --invoking executable--
/nfs/workspaces/public/cfour_mpi/bin/xanti
 @GETMEM-I,  Allocated    3814 MB of main memory.
 CCSD MO gammas will be sorted to Mulliken order.
 @CHECKOUT-I, Total execution time (CPU/WALL):       10.24/       8.83 seconds.
--executable xanti finished with status     0 in        8.86 seconds (walltime).
 --invoking executable--
/nfs/workspaces/public/cfour_mpi/bin/xbcktrn
 @GETMEM-I,  Allocated    3814 MB of main memory.
 CCSD MO gammas will be transformed to the AO basis.
 @CHECKOUT-I, Total execution time (CPU/WALL):       22.27/       3.48 seconds.
--executable xbcktrn finished with status     0 in        3.50 seconds (walltime).
 --invoking executable--
/nfs/workspaces/public/cfour_mpi/bin/xvdint
 @GETMEM-I,  Allocated    3814 MB of main memory.
 One- and two-electron integral derivatives are calculated
 for RHF-CC/MBPT hessians and dipole derivatives.
 Spherical gaussians are used.
  magnet F F

                     Kinetic energy integral gradient
                     --------------------------------

                         C #1 z    -0.4497029402
                         O #2 z     0.4497029402


 C #1       0.0000000000            0.0000000000           -0.4497029402
 O #2       0.0000000000            0.0000000000            0.4497029402



                   Nuclear attraction integral gradient
                   ------------------------------------

                         C #1 z    12.5901880069
                         O #2 z   -12.5901880069


 C #1       0.0000000000            0.0000000000           12.5901880069
 O #2       0.0000000000            0.0000000000          -12.5901880069



                      Reorthonormalization gradient
                      -----------------------------

                         C #1 z     0.0000000000
                         O #2 z     0.0000000000


 C #1       0.0000000000            0.0000000000            0.0000000000
 O #2       0.0000000000            0.0000000000            0.0000000000



                     Kinetic energy integral Hessian
                     -------------------------------


           Symmetry 1

           C #1 z      O #2 z

 C #1 z    0.475470
 O #2 z   -0.475470    0.475470


           Symmetry 2

           C #1 x      O #2 x

 C #1 x   -0.317792
 O #2 x    0.317792   -0.317792


           Symmetry 3

           C #1 y      O #2 y

 C #1 y   -0.317792
 O #2 y    0.317792   -0.317792




           C #1 x      C #1 y      C #1 z      O #2 x      O #2 y      O #2 z

 C #1 x   -0.317792
 C #1 y    0.000000   -0.317792
 C #1 z    0.000000    0.000000    0.475470

 O #2 x    0.317792    0.000000    0.000000   -0.317792
 O #2 y    0.000000    0.317792    0.000000    0.000000   -0.317792
 O #2 z    0.000000    0.000000   -0.475470    0.000000    0.000000    0.475470




                   Nuclear attraction integral Hessian
                   -----------------------------------


           Symmetry 1

           C #1 z      O #2 z

 C #1 z   -7.535811
 O #2 z    7.535811   -7.535811


           Symmetry 2

           C #1 x      O #2 x

 C #1 x    6.268124
 O #2 x   -6.268124    6.268124


           Symmetry 3

           C #1 y      O #2 y

 C #1 y    6.268124
 O #2 y   -6.268124    6.268124




           C #1 x      C #1 y      C #1 z      O #2 x      O #2 y      O #2 z

 C #1 x    6.268124
 C #1 y    0.000000    6.268124
 C #1 z    0.000000    0.000000   -7.535811

 O #2 x   -6.268124    0.000000    0.000000    6.268124
 O #2 y    0.000000   -6.268124    0.000000    0.000000    6.268124
 O #2 z    0.000000    0.000000    7.535811    0.000000    0.000000   -7.535811




                Highest order reorthonormalization Hessian
                ------------------------------------------


           Symmetry 1

           C #1 z      O #2 z

 C #1 z    0.000000
 O #2 z    0.000000    0.000000


           Symmetry 2

           C #1 x      O #2 x

 C #1 x    0.000000
 O #2 x    0.000000    0.000000


           Symmetry 3

           C #1 y      O #2 y

 C #1 y    0.000000
 O #2 y    0.000000    0.000000




           C #1 x      C #1 y      C #1 z      O #2 x      O #2 y      O #2 z




                Electronic contributions to dipole moment
                -----------------------------------------

                               au             Debye

                    z      0.55308109      1.40579216

  Conversion factor used: 1 a.u. =   2.54174691 Debye 



   Electronic contributions to static part of dipole moment derivatives
   --------------------------------------------------------------------


                     Total dipole moment derivatives
                     -------------------------------


           Symmetry 1
                              Ez

               C #1 z    -5.66567235
               O #2 z    -8.33432765

           Symmetry 2
                              Ex

               C #1 x    -5.68055982
               O #2 x    -8.31944018

           Symmetry 3
                              Ey

               C #1 y    -5.68055982
               O #2 y    -8.31944018



                       Ex          Ey          Ez

      C #1    x   -5.680560    0.000000    0.000000
      C #1    y    0.000000   -5.680560    0.000000
      C #1    z    0.000000    0.000000   -5.665672

      O #2    x   -8.319440    0.000000    0.000000
      O #2    y    0.000000   -8.319440    0.000000
      O #2    z    0.000000    0.000000   -8.334328

 Evaluation of 1e integral derivatives required    1.73 seconds.
                    8815  records have been written to the Sort file.
  Total length of Sort file :             180513570  words.
 Evaluation of 2el integral derivatives

                      Two-electron integral gradient
                      ------------------------------

                         C #1 z    -6.8116875078
                         O #2 z     6.8116875078


 C #1       0.0000000000            0.0000000000           -6.8116875078
 O #2       0.0000000000            0.0000000000            6.8116875078


 Evaluation of 2e integral derivatives required  553.66 seconds.

                            Molecular gradient
                            ------------------

                         C #1 z     0.5428627509
                         O #2 z    -0.5428627509


 C #1       0.0000000000            0.0000000000            0.5428627509
 O #2       0.0000000000            0.0000000000           -0.5428627509


  Molecular gradient norm 0.768E+00

                            Molecular hessian
                            -----------------


           Symmetry 1

           C #1 z      O #2 z

 C #1 z   11.134674
 O #2 z  -11.134674   11.134674


           Symmetry 2

           C #1 x      O #2 x

 C #1 x    7.444205
 O #2 x   -7.444205    7.444205


           Symmetry 3

           C #1 y      O #2 y

 C #1 y    7.444205
 O #2 y   -7.444205    7.444205




           C #1 x      C #1 y      C #1 z      O #2 x      O #2 y      O #2 z

 C #1 x    7.444205
 C #1 y    0.000000    7.444205
 C #1 z    0.000000    0.000000   11.134674

 O #2 x   -7.444205    0.000000    0.000000    7.444205
 O #2 y    0.000000   -7.444205    0.000000    0.000000    7.444205
 O #2 z    0.000000    0.000000  -11.134674    0.000000    0.000000   11.134674




                           Total dipole moment
                           -------------------

                               au             Debye

                    z      0.54962940      1.39701884

  Conversion factor used: 1 a.u. =   2.54174691 Debye 



                     Total dipole moment derivatives
                     -------------------------------


           Symmetry 1
                              Ez

               C #1 z     0.52863502
               O #2 z    -0.52863502

           Symmetry 2
                              Ex

               C #1 x     0.18342394
               O #2 x    -0.18342394

           Symmetry 3
                              Ey

               C #1 y     0.18342394
               O #2 y    -0.18342394



                       Ex          Ey          Ez

      C #1    x    0.183424    0.000000    0.000000
      C #1    y    0.000000    0.183424    0.000000
      C #1    z    0.000000    0.000000    0.528635

      O #2    x   -0.183424    0.000000    0.000000
      O #2    y    0.000000   -0.183424    0.000000
      O #2    z    0.000000    0.000000   -0.528635

 @CHECKOUT-I, Total execution time (CPU/WALL):      555.39/      99.37 seconds.
--executable xvdint finished with status     0 in       99.39 seconds (walltime).
 --invoking executable--
/nfs/workspaces/public/cfour_mpi/bin/xjoda
  @GTFLGS-I, Hessian will be transformed to curvilinear coordinates.
  @GTFLGS-I, Hessian will be transformed to curvilinear coordinates.
  igrd and ihes are                      0                     1
  gradient from JOBARC 
   0.000000000000000   0.000000000000000   0.542862750916744
   0.000000000000000   0.000000000000000  -0.542862750916744
 
  @PROJFCM-I, Projecting force constant matrix onto totally symmetric subspace.
  Largest difference between matrix elements of symmetrized
  and unsymmetrized FCM :     0.7851497230E-12.
  read isotopes from ZMAT file 
 
  Summary of diagonal Born-Oppenheimer correction at the correlated level
  The total diagonal Born-Oppenheimer correction (DBOC) is:      0.0041408106 a.u.
  The total diagonal Born-Oppenheimer correction (DBOC) is:        908.802873 cm-1
  The total diagonal Born-Oppenheimer correction (DBOC) is:            10.872 kJ/mole
  hellooooooo 
  readis is  F
 
 @CHECKOUT-I, Total execution time (CPU/WALL):        0.01/       0.01 seconds.
--executable xjoda finished with status     0 in        0.04 seconds (walltime).
  The final electronic energy is      -113.041662090555690 a.u. 
  This computation required                         2291.78 seconds (walltime).
