 --invoking executable--
/nfs/workspaces/public/cfour_mpi/bin/xjoda


   *************************************************************************
         <<<     CCCCCC     CCCCCC   |||     CCCCCC     CCCCCC   >>>
       <<<      CCC        CCC       |||    CCC        CCC         >>>
      <<<      CCC        CCC        |||   CCC        CCC            >>>
    <<<        CCC        CCC        |||   CCC        CCC              >>>
      <<<      CCC        CCC        |||   CCC        CCC            >>>
       <<<      CCC        CCC       |||    CCC        CCC         >>>
         <<<     CCCCCC     CCCCCC   |||     CCCCCC     CCCCCC   >>>
   *************************************************************************

     ****************************************************************
     * CFOUR Coupled-Cluster techniques for Computational Chemistry *
     ****************************************************************
 

   Department of Chemistry                Institut fuer Physikalische Chemie
   University of Florida                  Universitaet Mainz
   Gainesville, FL 32611, USA             D-55099 Mainz, Germany

   Department of Chemistry                Fakultaet fuer Chemie und Biowiss.
   Johns Hopkins University               Karlsruher Institut fuer Technologie
   Baltimore, MD 21218, USA               D-76131 Karlsruhe, Germany

   Department of Chemistry                Department of Physical Chemistry
   Southern Methodist University          Eotvos Lorand University
   Dallas, TX 75275, USA                  H-1053 Budapest, Hungary

 
                       Version 2.1
 
                     vincent.theory.phys.ucl.ac.uk                     
                     Tue 25 Feb 14:46:02 GMT 2025                      
                     integer*8 version is running
 
********************************************************************************
*                          Input from ZMAT file                                *
********************************************************************************
Carbon Monoxide DBOC calculation                                                
C                                                                               
O 1 r                                                                           
                                                                                
r=1.4586206896551723                                                            
                                                                                
                                                                                
*CFOUR(CALC=CCSD,BASIS=AUG-PCVQZ,SCF_CONV=10                                    
CC_CONV=14,DBOC=ON,MEMORY=500000000                                             
ZFIELD=200)                                                                     
                                                                                
%isotopes                                                                       
12                                                                              
16                                                                              
********************************************************************************
  @GTFLGS-I, Hessian will be transformed to curvilinear coordinates.
    -------------------------------------------------------------------
                    CFOUR Control Parameters 
    -------------------------------------------------------------------
        External           Internal           Value            Units
          Name               Name
    -------------------------------------------------------------------
       ABCDTYPE             IABCDT         STANDARD    [  0]    ***   
       ANHARMONIC           IANHAR         OFF         [  0]    ***   
       ANH_ALGORIT          IANALG         STANDARD    [  0]    ***   
       ANH_DERIVAT          IANDER         SECOND      [  1]    ***   
       ANH_MODE             ANHMOD         VIBRATION   [  0]    ***   
       ANH_STEPSIZ          ICUBST             50000          x 10-6  
       ANH_SYMMETR          IANHSM         ABELIAN     [  0]    ***   
       AO_LADDERS           IAOLAD         SINGLEPASS  [  1]    ***   
       AV_SCF               IAVSCF         OFF         [  0]    ***   
       BASIS                IBASIS         AUG-PCVQZ   [ 52]    ***   
       BOTHVECTORS          BOTHVC         OFF         [  0]    ***   
       BOX_POTENT           IPIAB          OFF         [  0]    ***   
       BREIT                IBREIT         OFF         [  0]    ***   
       BRUCK_CONV           IBRTOL          10D-  4             ***   
       BRUECKNER            IBRKNR         OFF         [  0]    ***   
       BUFFERSIZE           IBUFFS              4096            ***   
       CACHE_RECS           ICHREC             10               ***   
       CALCLEVEL            ICLLVL         CCSD        [ 10]    ***   
       CCORBOPT             ICCORB         OFF         [  0]  x 0.01  
       CC_CONV              ICCCNV          10D- 14             ***   
       CC_EXPORDER          ICCEOR              5               ***   
       CC_EXTRAPOL          ICCEXT         DIIS        [  1]    ***   
       CC_GUESS             ICCGES         MP2         [  0]    ***   
       CC_MAXCYC            ICCCYC            100              cycles 
       CC_PROGRAM           ICCPRO         VCC         [  0]    ***   
       CHARGE               ICHRGE              0               ***   
       CHOLESKY             ICHOLE         OFF         [  0]    ***   
       CIS_CONV             ICISTL              5               ***   
       COMM_SIZE            IPSIZE            ***               ***   
       CONSTANT             ICONST         OLD         [  1]    ***   
       CONTINUUM            ICONTU         NONE        [  0]    ***   
       CONTRACTION          ICNTYP         GENERAL     [  1]    ***   
       COORDINATES          ICOORD         INTERNAL    [  0]    ***   
       CPHF_CONVER          ICPHFT          10D- 16             ***   
       CPHF_MAXCYC          ICPHFC             64              cycles 
       CUBIC                ICUBIC         OFF         [  0]    ***   
       CURVILINEAR          ICURVY         ON          [  1]    ***   
       DBOC                 IDBOC          ON          [  1]    ***   
       DCT                  IDCT           OFF         [  0]    ***   
       DERIV_LEV            IDRLVL         SECOND      [  2]    ***   
       DEVMEM_SIZE          IDVMEM          50000000           MByte  
       DIAG_MRCC            IEOMST          10D-  0             ***   
       DIFF_TYPE            IDIFTY         RELAXED     [  0]    ***   
       DIRECT               IDIRCT         OFF         [  0]    ***   
       DROPMO               IDRPMO      NONE         
       ECP                  IECP           OFF         [  0]    ***   
       EIGENVECTOR          IVEC                1               ***   
       EL_ANHARM            IELANH         OFF         [  0]    ***   
       EOMFOLLOW            IEOMSR         ENERGY      [  0]    ***   
       EOMIP                IEOMIP         OFF         [  0]    ***   
       EOMLEVEL             HBARFM         SAME        [  0]    ***   
       EOM_MRCC             IMRCCE         NEW         [  1]    ***   
       EOM_NONIT            EOMNON         OFF         [  0]    ***   
       EOM_NSING            IEOMSI          10D-  0             ***   
       EOM_NSTATES          IMRCCD         DAVIDSON    [  0]    ***   
       EOM_NTRIP            IEOMTR          10D-  0             ***   
       EOM_ORDER            IEXORD         ENERGY      [  0]    ***   
       EOM_PROPSTA          IEOMST              0               ***   
       ESTATE_CONV          IEXTOL          10D-  5             ***   
       ESTATE_DIAG          IEXDIG         ITERATIVE   [  0]    ***   
       ESTATE_LOCK          IESLOC         ON          [  1]    ***   
       ESTATE_MAXC          IEXMXC             40               ***   
       ESTATE_PROP          IEXPRP         OFF         [  0]    ***   
       EVAL_HESS            IRECAL              0            # of cyc.
       EXCITATION           IEXCIT              0               ***   
       EXCITE               IEXCIT         NONE        [  0]    ***   
       EXTERN_POT           IEXPOT         OFF         [  0]    ***   
       FCGRADNEW            IFCGNW         OFF         [  0]    ***   
       FC_FIELD             IFINFC              0             x 10-6  
       FD_CALTYPE           IFDCAL         GRADONLY    [  0]    ***   
       FD_PROJECT           IFDPRJ         OFF         [  1]    ***   
       FD_STEPSIZE          IDISFD              0            10-4 bohr
       FD_USEGROUP          IFDGRP         FULL        [  0]    ***   
       FILE_RECSIZ          IFLREC              4096           words  
       FINITE_PERT          IFIPER              0             x 10-6  
       FIXGEOM              IFIXGM         OFF         [  0]    ***   
       FOCK                 IFOCK          AO          [  1]    ***   
       FREQ_ALGORI          IVIALG         STANDARD    [  0]    ***   
       FROZEN_CORE          IFROCO         OFF         [  0]    ***   
       GAMMA_ABCD           IGABCD         STORE       [  0]    ***   
       GAMMA_ABCI           IGABCI         STORE       [  0]    ***   
       GENBAS_1             IGNBS1              0               ***   
       GENBAS_2             IGNBS2              0               ***   
       GENBAS_3             IGNBS3              0               ***   
       GENBAS_4             IGNBS4              0               ***   
       GEO_CONV             ICONTL              5              H/bohr 
       GEO_MAXCYC           IOPTCY             50               ***   
       GEO_MAXSTEP          IMXSTP            300            millibohr
       GEO_METHOD           INR            SINGLE_POINT[  5]    ***   
       GIAO                 IGIAO          OFF         [  1]    ***   
       GIMIC                IGIMIC         OFF         [  0]    ***   
       GRID                 IGRID          OFF         [  0]    ***   
       GRID_ALGO            IGALGO         SERIAL      [  0]    ***   
       GUESS                IGUESS         MOREAD      [  0]    ***   
       HBAR                 IHBAR          OFF         [  0]    ***   
       HESS_TYPE            IHESTP         SCF         [  0]    ***   
       HF2_FILE             IHF2Fl         USE         [  1]    ***   
       HFSTABILITY          ISTABL         OFF         [  0]    ***   
       INCORE               INCORE         OFF         [  0]    ***   
       INPUT_MRCC           IMRCC          ON          [  1]    ***   
       INTEGRALS            INTTYP         VMOL        [  1]    ***   
       JODA_PRINT           IJPRNT              0               ***   
       KEYWORD_OUT          IDMPKW         NO          [  0]    ***   
       LINDEP_TOL           ILINDP              8               ***   
       LINEQ_CONV           IZTACN          10D-  7           cycles  
       LINEQ_EXPOR          ILMAXD              5               ***   
       LINEQ_MAXCY          ILMAXC            100               ***   
       LINEQ_TYPE           ILTYPE         DIIS        [  1]    ***   
       LOCK_ORBOCC          ILOCOC         OFF         [  0]    ***   
       MEMORY_SIZE          IMEMSZ         500000000           words  
       MEM_UNIT             IMEMU          INTEGERWORDS[  0]    ***   
       MRCC                 IMRCCC         OFF         [  0]    ***   
       MULTIPLICTY          IMULTP              1               ***   
       NACOUPLING           IVCOUP         OFF         [  0]    ***   
       NEGEVAL              IDIE           ABORT       [  0]    ***   
       NEWNORM              INEWNO         OFF         [  0]    ***   
       NON-HF               INONHF         OFF         [  0]    ***   
       NTOP_TAMP            ITOPT2             15               ***   
       NUC_MODEL            INUCMO         POINT       [  0]    ***   
       OCCUPATION           IOCCU   ESTIMATED BY SCF 
       OPEN-SHELL           IOPEN          SPIN-ORBITAL[  0]    ***   
       OPTVIB               IOPTVB         OFF         [  0]    ***   
       ORBITALS             IORBTP         STANDARD    [  0]    ***   
       PARALLEL             IPARAL         ON          [  1]    ***   
       PARA_INT             IPINTS         ON          [  1]    ***   
       PARA_PRINT           IPPRIN              0               ***   
       PERT_ORB             IPTORB         STANDARD    [  0]    ***   
       POINTS               IGRDFD              0               ***   
       PRINT                IPRNT               0               ***   
       PROPS                IPROPS         OFF         [  0]    ***   
       PROP_INTEGR          IINTYP         INTERNAL    [  0]    ***   
       PSI                  IPSI           OFF         [  0]    ***   
       QC_ALG               IQCALG         FLM         [  0]    ***   
       QC_LINALG            IQCLIN         TRIDIAG     [  2]    ***   
       QC_MAXCYC            IQCMAX          10D-100           cycles  
       QC_MAXSCFCY          IQCMSC          10D- 15           cycles  
       QC_RTRUST            IQCRTR          10D-  0           x 10-3  
       QC_SKIPSCF           IQCSKI         OFF         [  0]    ***   
       QC_START             IQCSTA          10D-  1             ***   
       QRHFGUESS            IQGUES         OFF         [  0]    ***   
       QUARTIC              IQUART         OFF         [  0]    ***   
       RAMAN_INT            IRAMIN         OFF         [  0]    ***   
       RAMAN_ORB            IRAMRE         UNRELAXED   [  0]    ***   
       RDO                  IRDOFM         ON          [  1]    ***   
       REDUCE_REPR          REDREP         Ir          [  0]    ***   
       REFERENCE            IREFNC         RHF         [  0]    ***   
       RELATIVIST           IRELAT         OFF         [  0]    ***   
       RELAX_DENS           IRDENS         ON          [  1]    ***   
       RESET_FLAGS          IRESET         OFF         [  0]    ***   
       RESTART_CC           ICCRES         OFF         [  0]    ***   
       ROT_EVEC             ROTVEC              0               ***   
       SAVE_INTS            ISVINT         OFF         [  0]    ***   
       SCALE_ON             ISTCRT              0               ***   
       SCF_CONV             ISCFCV          10D- 10             ***   
       SCF_DAMPING          IDAMP               0             x 10-3  
       SCF_EXPORDE          IRPPOR              6               ***   
       SCF_EXPSTAR          IRPPLS              8               ***   
       SCF_EXTRAPO          IRPP           ON          [  1]    ***   
       SCF_MAXCYC           ISCFCY            150              cycles 
       SCF_NOSTOP           ISCFST         OFF         [  0]    ***   
       SCF_PRINT            ISCFPR              0               ***   
       SCF_PROG             ISCFPR         SCF         [  0]    ***   
       SD_FIELD             IFINSD              0             x 10-6  
       SOPERT               IPERSO         OFF         [  0]    ***   
       SPHERICAL            IDFGHI         ON          [  1]    ***   
       SPINORBIT            ISOCAL         OFF         [  0]    ***   
       SPINROTATIO          ISRCON         OFF         [  0]    ***   
       SPIN_FLIP            ISPFLP         OFF         [  0]    ***   
       SPIN_ORBIT           ISPORB         OFF         [  0]    ***   
       SPIN_SCAL            ISCSMP         OFF         [  0]    ***   
       STEEPSCALE           ISTPSC              1000          x 10-3  
       SUBGROUP             ISUBGP         DEFAULT     [  0]    ***   
       SUBGRPAXIS           ISBXYZ         X           [  0]    ***   
       SYMMETRY             ISYM           ON          [  0]    ***   
       SYM_CHECK            ISYMCK         OVERRIDE    [  1]    ***   
       T3_EXTRAPOL          IT3EXT         OFF         [  0]    ***   
       T4_EXTRAPOL          IT4EXP         OFF         [  0]    ***   
       TAMP_SUM             IEVERY              5               ***   
       TESTSUITE            ITESTS         OFF         [  0]    ***   
       THERMOCH             ITHERM         OFF         [  0]    ***   
       TOL_CHOLESK          ITOLCH          10D-  4             ***   
       TRANGRAD             IRESRM         OFF         [  0]    ***   
       TRANS_INV            ITRAIN         IGNORE      [  1]    ***   
       TREAT_PERT           ITREAT         SIMULTANEOUS[  0]    ***   
       TRIP_ALGORI          ITRALG         NORMAL      [  0]    ***   
       UIJ_THRESHO          IUIJTH              1               ***   
       UNITS                IUNITS         ANGSTROM    [  0]    ***   
       UNOS                 IUNOS          OFF         [  0]    ***   
       UPDATE_HESS          IHUPDT         ON          [  1]    ***   
       VIBPHASE             ISETPH         STANDARD    [  0]    ***   
       VIBRATION            IVIB           ANALYTIC    [  1]    ***   
       VIB_ALGORIT          IGEALG         STANDARD    [  0]    ***   
       VNATORB              IVNORB         OFF         [  0]    ***   
       VTRAN                IVTRAN         FULL/PARTIAL[  0]    ***   
       XFIELD               IXEFLD              0             x 10-6  
       XFORM_TOL            IXFTOL          10D- 11             ***   
       YFIELD               IYEFLD              0             x 10-6  
       ZFIELD               IZEFLD            200             x 10-6  
       ZSCALE_EXP           IZEXPS         OFF         [  0]    ***   
    -------------------------------------------------------------------
   2 entries found in Z-matrix 
   Job Title : Carbon Monoxide DBOC calculation                                                
   There are  1 unique internal coordinates.
   Of these,  0 will be optimized.
   User supplied Z-matrix: 
--------------------------------------------------------------------------------
       SYMBOL    BOND      LENGTH    ANGLE     ANGLE     DIHED     ANGLE
                  TO      (ANGST)    WRT      (DEG)      WRT      (DEG)
--------------------------------------------------------------------------------
        C    
        O          1         r    
                  *Initial values for internal coordinates* 
                      Name             Value
                        r               1.4586206897
--------------------------------------------------------------------------------
  read isotopes from ZMAT file 
   Rotational constants (in cm-1): 
          1.1556539051             1.1556539051
   Rotational constants (in MHz): 
      34645.6373342474         34645.6373342474
********************************************************************************
   The full molecular point group is CXv .
   The largest Abelian subgroup of the full molecular point group is C2v .
   The computational point group is C2v .
********************************************************************************
--------------------------------------------------------------------------------
   Analysis of internal coordinates specified by Z-matrix 
--------------------------------------------------------------------------------
   *The nuclear repulsion energy is   17.414054921985816 a.u.
   *There is   1 degree of freedom within the tot. symm. molecular subspace.
   *Z-matrix requests optimization of   0 coordinates.
   *The optimization is constrained.
   *The following   1 parameters can have non-zero 
    derivatives within the totally symmetric subspace:
             r    [ 1]
   *The following   0 parameters are to be optimized:

   *The following coordinates must be varied in an  unconstrained optimization.
             r    [ 1]
--------------------------------------------------------------------------------


 ----------------------------------------------------------------
         Coordinates used in calculation (QCOMP) 
 ----------------------------------------------------------------
 Z-matrix   Atomic            Coordinates (in bohr)
  Symbol    Number           X              Y              Z
 ----------------------------------------------------------------
     C         6        -0.00000000     0.00000000     1.57486781
     O         8         0.00000000     0.00000000    -1.18152639
 ----------------------------------------------------------------
 
   Interatomic distance matrix (Angstroms) 
 
                 C             O    
                [ 1]        [ 2]
  C    [ 1]     0.00000
  O    [ 2]     1.45862     0.00000
 rotcon2
   Rotational constants (in cm-1): 
          1.1556539051             0.0000000000
   Rotational constants (in MHz): 
      34645.6373342474             0.0000000000
  ECPDATA file not present.   Using default ECPDATA. 
  @GTFLGS-I, Hessian will be transformed to curvilinear coordinates.
  There are  218 basis functions.
 @CHECKOUT-I, Total execution time (CPU/WALL):        0.12/       0.15 seconds.
--executable xjoda finished with status     0 in        0.20 seconds (walltime).
 --invoking executable--
/nfs/workspaces/public/cfour_mpi/bin/xvmol
 SERIAL VERSION OF MOLECULE STARTED
********************************************************************************
                    INPUT FROM MOL FILE
********************************************************************************
INTGRL        1    0    1    0    0    0    0    0    0                         
         *** CFOUR Program System (Release V0.1) ***                            
Carbon Monoxide DBOC calculation                                                
    2    2 X  Y       0.10E-08              0    0                              
   9999.00      3.00                                                            
          6.00000000    1    5    1    1    1    1    1                         
C #1  -0.000000000000000   0.000000000000000   1.574867811232818                
   16    9                                                                      
   33980.0000000000       9.100000000000000E-005 -1.900000000000000E-005        
  0.000000000000000E+000  0.000000000000000E+000  0.000000000000000E+000        
  0.000000000000000E+000  0.000000000000000E+000  0.000000000000000E+000        
  0.000000000000000E+000                                                        
   5089.00000000000       7.040000000000000E-004 -1.510000000000000E-004        
  0.000000000000000E+000  0.000000000000000E+000  0.000000000000000E+000        
  0.000000000000000E+000  0.000000000000000E+000  0.000000000000000E+000        
  0.000000000000000E+000                                                        
   1157.00000000000       3.693000000000000E-003 -7.850000000000000E-004        
  0.000000000000000E+000  0.000000000000000E+000  0.000000000000000E+000        
  0.000000000000000E+000  0.000000000000000E+000  0.000000000000000E+000        
  0.000000000000000E+000                                                        
   326.600000000000       1.536000000000000E-002 -3.324000000000000E-003        
  0.000000000000000E+000  0.000000000000000E+000  0.000000000000000E+000        
  0.000000000000000E+000  0.000000000000000E+000  0.000000000000000E+000        
  0.000000000000000E+000                                                        
   106.100000000000       5.292900000000000E-002 -1.151200000000000E-002        
  0.000000000000000E+000  0.000000000000000E+000  0.000000000000000E+000        
  0.000000000000000E+000  0.000000000000000E+000  0.000000000000000E+000        
  0.000000000000000E+000                                                        
   38.1100000000000       0.147043000000000      -3.416000000000000E-002        
  0.000000000000000E+000  0.000000000000000E+000  0.000000000000000E+000        
  0.000000000000000E+000  0.000000000000000E+000  0.000000000000000E+000        
  0.000000000000000E+000                                                        
   14.7500000000000       0.305631000000000      -7.717300000000001E-002        
  0.000000000000000E+000  0.000000000000000E+000  0.000000000000000E+000        
  0.000000000000000E+000  0.000000000000000E+000  0.000000000000000E+000        
  0.000000000000000E+000                                                        
   6.03500000000000       0.399345000000000      -0.141493000000000             
  0.000000000000000E+000  0.000000000000000E+000  0.000000000000000E+000        
  0.000000000000000E+000  0.000000000000000E+000  0.000000000000000E+000        
  0.000000000000000E+000                                                        
   2.53000000000000       0.217051000000000      -0.118019000000000             
  0.000000000000000E+000  0.000000000000000E+000  0.000000000000000E+000        
  0.000000000000000E+000  0.000000000000000E+000  0.000000000000000E+000        
  0.000000000000000E+000                                                        
  0.735500000000000       1.589400000000000E-002  0.273806000000000             
   1.00000000000000       0.000000000000000E+000  0.000000000000000E+000        
  0.000000000000000E+000  0.000000000000000E+000  0.000000000000000E+000        
  0.000000000000000E+000                                                        
  0.290500000000000      -3.084000000000000E-003  0.586510000000000             
  0.000000000000000E+000   1.00000000000000       0.000000000000000E+000        
  0.000000000000000E+000  0.000000000000000E+000  0.000000000000000E+000        
  0.000000000000000E+000                                                        
  0.111100000000000       9.779999999999999E-004  0.285430000000000             
  0.000000000000000E+000  0.000000000000000E+000   1.00000000000000             
  0.000000000000000E+000  0.000000000000000E+000  0.000000000000000E+000        
  0.000000000000000E+000                                                        
   7.21600000000000       0.000000000000000E+000  0.000000000000000E+000        
  0.000000000000000E+000  0.000000000000000E+000  0.000000000000000E+000        
   1.00000000000000       0.000000000000000E+000  0.000000000000000E+000        
  0.000000000000000E+000                                                        
   19.5700000000000       0.000000000000000E+000  0.000000000000000E+000        
  0.000000000000000E+000  0.000000000000000E+000  0.000000000000000E+000        
  0.000000000000000E+000   1.00000000000000       0.000000000000000E+000        
  0.000000000000000E+000                                                        
   53.0730000000000       0.000000000000000E+000  0.000000000000000E+000        
  0.000000000000000E+000  0.000000000000000E+000  0.000000000000000E+000        
  0.000000000000000E+000  0.000000000000000E+000   1.00000000000000             
  0.000000000000000E+000                                                        
  4.145000000000000E-002  0.000000000000000E+000  0.000000000000000E+000        
  0.000000000000000E+000  0.000000000000000E+000  0.000000000000000E+000        
  0.000000000000000E+000  0.000000000000000E+000  0.000000000000000E+000        
   1.00000000000000                                                             
   10    8                                                                      
   34.5100000000000       5.378000000000000E-003  0.000000000000000E+000        
  0.000000000000000E+000  0.000000000000000E+000  0.000000000000000E+000        
  0.000000000000000E+000  0.000000000000000E+000  0.000000000000000E+000        
   7.91500000000000       3.613200000000000E-002  0.000000000000000E+000        
  0.000000000000000E+000  0.000000000000000E+000  0.000000000000000E+000        
  0.000000000000000E+000  0.000000000000000E+000  0.000000000000000E+000        
   2.36800000000000       0.142493000000000       0.000000000000000E+000        
  0.000000000000000E+000  0.000000000000000E+000  0.000000000000000E+000        
  0.000000000000000E+000  0.000000000000000E+000  0.000000000000000E+000        
  0.813200000000000       0.342150000000000        1.00000000000000             
  0.000000000000000E+000  0.000000000000000E+000  0.000000000000000E+000        
  0.000000000000000E+000  0.000000000000000E+000  0.000000000000000E+000        
  0.289000000000000       0.463864000000000       0.000000000000000E+000        
   1.00000000000000       0.000000000000000E+000  0.000000000000000E+000        
  0.000000000000000E+000  0.000000000000000E+000  0.000000000000000E+000        
  0.100700000000000       0.250028000000000       0.000000000000000E+000        
  0.000000000000000E+000   1.00000000000000       0.000000000000000E+000        
  0.000000000000000E+000  0.000000000000000E+000  0.000000000000000E+000        
   8.18200000000000       0.000000000000000E+000  0.000000000000000E+000        
  0.000000000000000E+000  0.000000000000000E+000   1.00000000000000             
  0.000000000000000E+000  0.000000000000000E+000  0.000000000000000E+000        
   24.1860000000000       0.000000000000000E+000  0.000000000000000E+000        
  0.000000000000000E+000  0.000000000000000E+000  0.000000000000000E+000        
   1.00000000000000       0.000000000000000E+000  0.000000000000000E+000        
   71.4940000000000       0.000000000000000E+000  0.000000000000000E+000        
  0.000000000000000E+000  0.000000000000000E+000  0.000000000000000E+000        
  0.000000000000000E+000   1.00000000000000       0.000000000000000E+000        
  3.218000000000000E-002  0.000000000000000E+000  0.000000000000000E+000        
  0.000000000000000E+000  0.000000000000000E+000  0.000000000000000E+000        
  0.000000000000000E+000  0.000000000000000E+000   1.00000000000000             
    6    6                                                                      
   1.84800000000000        1.00000000000000       0.000000000000000E+000        
  0.000000000000000E+000  0.000000000000000E+000  0.000000000000000E+000        
  0.000000000000000E+000                                                        
  0.649000000000000       0.000000000000000E+000   1.00000000000000             
  0.000000000000000E+000  0.000000000000000E+000  0.000000000000000E+000        
  0.000000000000000E+000                                                        
  0.228000000000000       0.000000000000000E+000  0.000000000000000E+000        
   1.00000000000000       0.000000000000000E+000  0.000000000000000E+000        
  0.000000000000000E+000                                                        
   8.65600000000000       0.000000000000000E+000  0.000000000000000E+000        
  0.000000000000000E+000   1.00000000000000       0.000000000000000E+000        
  0.000000000000000E+000                                                        
   33.2130000000000       0.000000000000000E+000  0.000000000000000E+000        
  0.000000000000000E+000  0.000000000000000E+000   1.00000000000000             
  0.000000000000000E+000                                                        
  7.660000000000000E-002  0.000000000000000E+000  0.000000000000000E+000        
  0.000000000000000E+000  0.000000000000000E+000  0.000000000000000E+000        
   1.00000000000000                                                             
    4    4                                                                      
   1.41900000000000        1.00000000000000       0.000000000000000E+000        
  0.000000000000000E+000  0.000000000000000E+000                                
  0.485000000000000       0.000000000000000E+000   1.00000000000000             
  0.000000000000000E+000  0.000000000000000E+000                                
   24.6940000000000       0.000000000000000E+000  0.000000000000000E+000        
   1.00000000000000       0.000000000000000E+000                                
  0.187000000000000       0.000000000000000E+000  0.000000000000000E+000        
  0.000000000000000E+000   1.00000000000000                                     
    2    2                                                                      
   1.01100000000000        1.00000000000000       0.000000000000000E+000        
  0.424000000000000       0.000000000000000E+000   1.00000000000000             
          8.00000000    1    5    1    1    1    1    1                         
O #2   0.000000000000000   0.000000000000000  -1.181526389603107                
   16    9                                                                      
   61420.0000000000       9.000000000000001E-005 -2.000000000000000E-005        
  0.000000000000000E+000  0.000000000000000E+000  0.000000000000000E+000        
  0.000000000000000E+000  0.000000000000000E+000  0.000000000000000E+000        
  0.000000000000000E+000                                                        
   9199.00000000000       6.980000000000001E-004 -1.590000000000000E-004        
  0.000000000000000E+000  0.000000000000000E+000  0.000000000000000E+000        
  0.000000000000000E+000  0.000000000000000E+000  0.000000000000000E+000        
  0.000000000000000E+000                                                        
   2091.00000000000       3.664000000000000E-003 -8.290000000000000E-004        
  0.000000000000000E+000  0.000000000000000E+000  0.000000000000000E+000        
  0.000000000000000E+000  0.000000000000000E+000  0.000000000000000E+000        
  0.000000000000000E+000                                                        
   590.900000000000       1.521800000000000E-002 -3.508000000000000E-003        
  0.000000000000000E+000  0.000000000000000E+000  0.000000000000000E+000        
  0.000000000000000E+000  0.000000000000000E+000  0.000000000000000E+000        
  0.000000000000000E+000                                                        
   192.300000000000       5.242300000000000E-002 -1.215600000000000E-002        
  0.000000000000000E+000  0.000000000000000E+000  0.000000000000000E+000        
  0.000000000000000E+000  0.000000000000000E+000  0.000000000000000E+000        
  0.000000000000000E+000                                                        
   69.3200000000000       0.145921000000000      -3.626100000000000E-002        
  0.000000000000000E+000  0.000000000000000E+000  0.000000000000000E+000        
  0.000000000000000E+000  0.000000000000000E+000  0.000000000000000E+000        
  0.000000000000000E+000                                                        
   26.9700000000000       0.305258000000000      -8.299200000000000E-002        
  0.000000000000000E+000  0.000000000000000E+000  0.000000000000000E+000        
  0.000000000000000E+000  0.000000000000000E+000  0.000000000000000E+000        
  0.000000000000000E+000                                                        
   11.1000000000000       0.398508000000000      -0.152090000000000             
  0.000000000000000E+000  0.000000000000000E+000  0.000000000000000E+000        
  0.000000000000000E+000  0.000000000000000E+000  0.000000000000000E+000        
  0.000000000000000E+000                                                        
   4.68200000000000       0.216980000000000      -0.115331000000000             
  0.000000000000000E+000  0.000000000000000E+000  0.000000000000000E+000        
  0.000000000000000E+000  0.000000000000000E+000  0.000000000000000E+000        
  0.000000000000000E+000                                                        
   1.42800000000000       1.759400000000000E-002  0.288979000000000             
   1.00000000000000       0.000000000000000E+000  0.000000000000000E+000        
  0.000000000000000E+000  0.000000000000000E+000  0.000000000000000E+000        
  0.000000000000000E+000                                                        
  0.554700000000000      -2.502000000000000E-003  0.586128000000000             
  0.000000000000000E+000   1.00000000000000       0.000000000000000E+000        
  0.000000000000000E+000  0.000000000000000E+000  0.000000000000000E+000        
  0.000000000000000E+000                                                        
  0.206700000000000       9.540000000000000E-004  0.277624000000000             
  0.000000000000000E+000  0.000000000000000E+000   1.00000000000000             
  0.000000000000000E+000  0.000000000000000E+000  0.000000000000000E+000        
  0.000000000000000E+000                                                        
   12.9740000000000       0.000000000000000E+000  0.000000000000000E+000        
  0.000000000000000E+000  0.000000000000000E+000  0.000000000000000E+000        
   1.00000000000000       0.000000000000000E+000  0.000000000000000E+000        
  0.000000000000000E+000                                                        
   34.9000000000000       0.000000000000000E+000  0.000000000000000E+000        
  0.000000000000000E+000  0.000000000000000E+000  0.000000000000000E+000        
  0.000000000000000E+000   1.00000000000000       0.000000000000000E+000        
  0.000000000000000E+000                                                        
   93.8810000000000       0.000000000000000E+000  0.000000000000000E+000        
  0.000000000000000E+000  0.000000000000000E+000  0.000000000000000E+000        
  0.000000000000000E+000  0.000000000000000E+000   1.00000000000000             
  0.000000000000000E+000                                                        
  6.959000000000000E-002  0.000000000000000E+000  0.000000000000000E+000        
  0.000000000000000E+000  0.000000000000000E+000  0.000000000000000E+000        
  0.000000000000000E+000  0.000000000000000E+000  0.000000000000000E+000        
   1.00000000000000                                                             
   10    8                                                                      
   63.4200000000000       6.044000000000000E-003  0.000000000000000E+000        
  0.000000000000000E+000  0.000000000000000E+000  0.000000000000000E+000        
  0.000000000000000E+000  0.000000000000000E+000  0.000000000000000E+000        
   14.6600000000000       4.179900000000000E-002  0.000000000000000E+000        
  0.000000000000000E+000  0.000000000000000E+000  0.000000000000000E+000        
  0.000000000000000E+000  0.000000000000000E+000  0.000000000000000E+000        
   4.45900000000000       0.161143000000000       0.000000000000000E+000        
  0.000000000000000E+000  0.000000000000000E+000  0.000000000000000E+000        
  0.000000000000000E+000  0.000000000000000E+000  0.000000000000000E+000        
   1.53100000000000       0.356731000000000        1.00000000000000             
  0.000000000000000E+000  0.000000000000000E+000  0.000000000000000E+000        
  0.000000000000000E+000  0.000000000000000E+000  0.000000000000000E+000        
  0.530200000000000       0.448309000000000       0.000000000000000E+000        
   1.00000000000000       0.000000000000000E+000  0.000000000000000E+000        
  0.000000000000000E+000  0.000000000000000E+000  0.000000000000000E+000        
  0.175000000000000       0.244940000000000       0.000000000000000E+000        
  0.000000000000000E+000   1.00000000000000       0.000000000000000E+000        
  0.000000000000000E+000  0.000000000000000E+000  0.000000000000000E+000        
   14.4750000000000       0.000000000000000E+000  0.000000000000000E+000        
  0.000000000000000E+000  0.000000000000000E+000   1.00000000000000             
  0.000000000000000E+000  0.000000000000000E+000  0.000000000000000E+000        
   42.7300000000000       0.000000000000000E+000  0.000000000000000E+000        
  0.000000000000000E+000  0.000000000000000E+000  0.000000000000000E+000        
   1.00000000000000       0.000000000000000E+000  0.000000000000000E+000        
   126.140000000000       0.000000000000000E+000  0.000000000000000E+000        
  0.000000000000000E+000  0.000000000000000E+000  0.000000000000000E+000        
  0.000000000000000E+000   1.00000000000000       0.000000000000000E+000        
  5.348000000000000E-002  0.000000000000000E+000  0.000000000000000E+000        
  0.000000000000000E+000  0.000000000000000E+000  0.000000000000000E+000        
  0.000000000000000E+000  0.000000000000000E+000   1.00000000000000             
    6    6                                                                      
   3.77500000000000        1.00000000000000       0.000000000000000E+000        
  0.000000000000000E+000  0.000000000000000E+000  0.000000000000000E+000        
  0.000000000000000E+000                                                        
   1.30000000000000       0.000000000000000E+000   1.00000000000000             
  0.000000000000000E+000  0.000000000000000E+000  0.000000000000000E+000        
  0.000000000000000E+000                                                        
  0.444000000000000       0.000000000000000E+000  0.000000000000000E+000        
   1.00000000000000       0.000000000000000E+000  0.000000000000000E+000        
  0.000000000000000E+000                                                        
   14.9270000000000       0.000000000000000E+000  0.000000000000000E+000        
  0.000000000000000E+000   1.00000000000000       0.000000000000000E+000        
  0.000000000000000E+000                                                        
   57.5440000000000       0.000000000000000E+000  0.000000000000000E+000        
  0.000000000000000E+000  0.000000000000000E+000   1.00000000000000             
  0.000000000000000E+000                                                        
  0.154000000000000       0.000000000000000E+000  0.000000000000000E+000        
  0.000000000000000E+000  0.000000000000000E+000  0.000000000000000E+000        
   1.00000000000000                                                             
    4    4                                                                      
   2.66600000000000        1.00000000000000       0.000000000000000E+000        
  0.000000000000000E+000  0.000000000000000E+000                                
  0.859000000000000       0.000000000000000E+000   1.00000000000000             
  0.000000000000000E+000  0.000000000000000E+000                                
   26.4830000000000       0.000000000000000E+000  0.000000000000000E+000        
   1.00000000000000       0.000000000000000E+000                                
  0.324000000000000       0.000000000000000E+000  0.000000000000000E+000        
  0.000000000000000E+000   1.00000000000000                                     
    2    2                                                                      
   1.84600000000000        1.00000000000000       0.000000000000000E+000        
  0.714000000000000       0.000000000000000E+000   1.00000000000000             
FINISH                                                                          
 
********************************************************************************
 ONE- AND TWO-ELECTRON INTEGRALS OVER SYMMETRY-ADAPTED AOS ARE CALCULATED.

  SPHERICAL HARMONICS ARE USED.
  
  INTEGRALS LESS THAN  0.10E-13 ARE NEGLECTED.

  NUCLEAR REPULSION ENERGY :   17.4140549220 A.U.
  @MOLECU-I, ONE ELECTRON INTEGRALS (CPU/WALL):        0.06/       0.06 SECONDS.
  @TWOEL-I,    4481970 INTEGRALS OF SYMMETRY TYPE  I I I I
  @TWOEL-I,   19326808 INTEGRALS OF SYMMETRY TYPE  I J I J
  @TWOEL-I,   10176568 INTEGRALS OF SYMMETRY TYPE  I I J J
  @TWOEL-I,   14299419 INTEGRALS OF SYMMETRY TYPE  I J K L
  @TWOEL-I, TOTAL NUMBER OF 2-E INTEGRALS   48284765.
  @MOLECU-I, TWO ELECTRON INTEGRALS (CPU/WALL):      154.97/      21.22 SECONDS.
 @CHECKOUT-I, Total execution time (CPU/WALL):      155.05/      21.30 seconds.

Running with 14 threads/proc

--executable xvmol finished with status     0 in       21.33 seconds (walltime).
 --invoking executable--
/nfs/workspaces/public/cfour_mpi/bin/xvmol2ja
 @GETMEM-I,  Allocated    3814 MB of main memory.
 @CHECKOUT-I, Total execution time (CPU/WALL):        0.11/       0.02 seconds.
--executable xvmol2ja finished with status     0 in        0.05 seconds (walltime).
 --invoking executable--
/nfs/workspaces/public/cfour_mpi/bin/xvprop
 @GETMEM-I,  Allocated    3814 MB of main memory.
   Property integrals will be calculated.
    --------------------------------------------------------------
                                   Property evaluated at 
    Property type                X             Y             Z
    --------------------------------------------------------------
    Dipole moment               ----          ----          ----  
    Quadrupole moment           ----          ----          ----  
    Octopole moment             ----          ----          ----  
    Relativisitic corr.         ----          ----          ----  
    Second moment            0.0000000     0.0000000     0.0000000
    Electron density         0.0000000     0.0000000     1.5748678
    Electron density         0.0000000     0.0000000    -1.1815264
    Field gradient           0.0000000     0.0000000     1.5748678
    Field gradient           0.0000000     0.0000000    -1.1815264
    Potential                0.0000000     0.0000000     1.5748678
    Potential                0.0000000     0.0000000    -1.1815264
    --------------------------------------------------------------
 @CHECKOUT-I, Total execution time (CPU/WALL):        1.29/       1.30 seconds.
--executable xvprop finished with status     0 in        1.31 seconds (walltime).
 --invoking executable--
/nfs/workspaces/public/cfour_mpi/bin/xvscf
  There are  218 functions in the AO basis.

  There are 4 irreducible representations.

       Irrep        # of functions
         1                 86
         2                 52
         3                 52
         4                 28


  Parameters for SCF calculation: 
        SCF reference function:  RHF  
  Maximum number of iterations:  150
     Full symmetry point group: CXv 
     Computational point group: C2v 
        Initial density matrix: MOREAD                 
     SCF convergence tolerance: 10**(-10)
  DIIS convergence acceleration:  ON
          Latest start for DIIS:   8
                     DIIS order:   6

  Memory information:    2523578 words required.
  Fock matrices are constructed from AO integral file.
 @GETMEM-I,  Allocated      19 MB of main memory.
  Initialization and symmetry analysis required      0.001 seconds.

  Adding electric field perturbation to one-electron Hamiltonian.
  Field direction     : Z
  Field strength      :  0.0002000 a.u.

  @INITGES-I, Occupancies from core Hamiltonian:

          Alpha population by irrep:   5    1    1    0
           Beta population by irrep:   5    1    1    0


 total no. of electrons in initial guess :  0.000000000000000E+000
  --------------------------------------------------------------------
  Iteration         Total Energy            Largest Density Difference
  --------------------------------------------------------------------
       0            17.414055522835699              0.0000000000D+00
   current occupation vector 
     5  1  1  0
     5  1  1  0
       1           -93.329904830773629              0.1752074422D+02
   current occupation vector 
     5  1  1  0
     5  1  1  0
       2           -98.299817634196486              0.1752070620D+02
   current occupation vector 
     5  1  1  0
     5  1  1  0
       3          -102.714913080139596              0.6212959529D+01
   current occupation vector 
     5  1  1  0
     5  1  1  0
       4           -97.744408763517271              0.6205615921D+01
   current occupation vector 
     5  1  1  0
     5  1  1  0
       5          -100.950530957105087              0.6644006544D+01
   current occupation vector 
     5  1  1  0
     5  1  1  0
       6           -96.328676465260401              0.6638961555D+01
   current occupation vector 
     5  1  1  0
     5  1  1  0
       7          -100.909194963266827              0.6743525343D+01
   current occupation vector 
     5  1  1  0
     5  1  1  0
       8           -96.267757052171959              0.6743758334D+01
   current occupation vector 
     5  1  1  0
     5  1  1  0
       9          -107.641512589805345              0.5298546331D+01
   current occupation vector 
     5  1  1  0
     5  1  1  0
      10          -109.459649961753556              0.9043585699D+00
   current occupation vector 
     5  1  1  0
     5  1  1  0
      11          -112.309107711596965              0.1598622451D+01
   current occupation vector 
     5  1  1  0
     5  1  1  0
      12          -112.617261342560283              0.5275784869D+00
   current occupation vector 
     5  1  1  0
     5  1  1  0
      13          -112.621264785889679              0.1130166755D+00
   current occupation vector 
     5  1  1  0
     5  1  1  0
      14          -112.622291349347762              0.4792572464D-01
   current occupation vector 
     5  1  1  0
     5  1  1  0
      15          -112.622364340674409              0.1436947228D-01
   current occupation vector 
     5  1  1  0
     5  1  1  0
      16          -112.622382234537298              0.7510851391D-02
   current occupation vector 
     5  1  1  0
     5  1  1  0
      17          -112.622386753429510              0.5085730330D-02
   current occupation vector 
     5  1  1  0
     5  1  1  0
      18          -112.622386897632197              0.9181289434D-03
   current occupation vector 
     5  1  1  0
     5  1  1  0
      19          -112.622386899053538              0.1070484581D-03
   current occupation vector 
     5  1  1  0
     5  1  1  0
      20          -112.622386899192378              0.1933581105D-04
   current occupation vector 
     5  1  1  0
     5  1  1  0
      21          -112.622386899196897              0.1782042546D-05
   current occupation vector 
     5  1  1  0
     5  1  1  0
      22          -112.622386899196158              0.2443556451D-06
   current occupation vector 
     5  1  1  0
     5  1  1  0
      23          -112.622386899195504              0.3850014996D-07
   current occupation vector 
     5  1  1  0
     5  1  1  0
      24          -112.622386899195618              0.8613584734D-08
   current occupation vector 
     5  1  1  0
     5  1  1  0
      25          -112.622386899194481              0.2044528769D-08
   current occupation vector 
     5  1  1  0
     5  1  1  0
      26          -112.622386899195021              0.4138391851D-09
   current occupation vector 
     5  1  1  0
     5  1  1  0
      27          -112.622386899196044              0.4014550914D-09
   current occupation vector 
     5  1  1  0
     5  1  1  0

  SCF has converged.

 Density matrix saved to file den.dat
 total electron number:   14.0000000000002     
     E(SCF)=      -112.622386899196613              0.5260369917D-10

  Eigenvector printing suppressed.

 @PUTMOS-I, Writing converged MOs to NEWMOS. 
 @PUTMOS-I, Symmetry   1 Full Blocks 21 Partial Blocksize   2
 @PUTMOS-I, Symmetry   2 Full Blocks 13 Partial Blocksize   0
 @PUTMOS-I, Symmetry   3 Full Blocks 13 Partial Blocksize   0
 @PUTMOS-I, Symmetry   4 Full Blocks  7 Partial Blocksize   0
 @PUTFOCK-I, Writing converged Fock matrix to NEWFOCK. 
 @PUTFOCK-I, Symmetry   1 Full Blocks 21 Partial Blocksize   2
 @PUTFOCK-I, Symmetry   2 Full Blocks 13 Partial Blocksize   0
 @PUTFOCK-I, Symmetry   3 Full Blocks 13 Partial Blocksize   0
 @PUTFOCK-I, Symmetry   4 Full Blocks  7 Partial Blocksize   0


 
  ORBITAL EIGENVALUES (ALPHA)  (1H = 27.2113834 eV)

       MO #        E(hartree)               E(eV)           FULLSYM    COMPSYM
       ----   --------------------   --------------------   -------   ---------
    1     1         -20.6572804352        -562.1131779239     SG+        A1 (1)
    2     2         -11.4872752778        -312.5846518057     SG+        A1 (1)
    3     3          -1.3325351741         -36.2601255170     SG+        A1 (1)
    4     4          -0.7954910104         -21.6464108755     SG+        A1 (1)
    5     5          -0.5552348266         -15.1087077438     SG+        A1 (1)
    6   139          -0.5282127845         -14.3734005956      PI        B2 (3)
    7    87          -0.5282127845         -14.3734005956      PI        B1 (2)
  +++++++++++++++++++++++++++++++++++++++++++++++++++++++++++++++++++++++++++++
    8   140           0.0211149115           0.5745659531      PI        B2 (3)
    9    88           0.0211149115           0.5745659531      PI        B1 (2)
   10     6           0.0636864632           1.7329967679     SG+        A1 (1)
   11     7           0.0685413504           1.8651049652     SG+        A1 (1)
   12    89           0.0866330088           2.3574040178      PI        B1 (2)
   13   141           0.0866330088           2.3574040178      PI        B2 (3)
   14     8           0.1566325231           4.2621876391     SG+        A1 (1)
   15   142           0.1742703550           4.7421374456      PI        B2 (3)
   16    90           0.1742703550           4.7421374456      PI        B1 (2)
   17     9           0.2207600484           6.0071863152     SG+        A1 (1)
   18   191           0.2247828473           6.1166522407      DE        A2 (4)
   19    10           0.2247828473           6.1166522407      DE        A1 (1)
   20   143           0.2938047974           7.9948349877      PI        B2 (3)
   21    91           0.2938047974           7.9948349877      PI        B1 (2)
   22    11           0.2996737845           8.1545382451     SG+        A1 (1)
   23    12           0.3546587433           9.6507550395     SG+        A1 (1)
   24   144           0.4008188118          10.9068343619      PI        B2 (3)
   25    92           0.4008188118          10.9068343619      PI        B1 (2)
   26    13           0.4595807006          12.5058266483     SG+        A1 (1)
   27    14           0.5117047809          13.9241949820     SG+        A1 (1)
   28    15           0.5478609423          14.9080541509      DE        A1 (1)
   29   192           0.5478609423          14.9080541509      DE        A2 (4)
   30   145           0.6239655234          16.9789650852      PI        B2 (3)
   31    93           0.6239655234          16.9789650852      PI        B1 (2)
   32    16           0.7223791798          19.6569368208     SG+        A1 (1)
   33    94           0.7380879174          20.0843933041      PH        B1 (2)
   34   146           0.7380879174          20.0843933041      PH        B2 (3)
   35   193           0.7484325574          20.3658852685      DE        A2 (4)
   36    17           0.7484325574          20.3658852685      DE        A1 (1)
   37   147           0.7877802001          21.4365890610      PI        B2 (3)
   38    95           0.7877802001          21.4365890610      PI        B1 (2)
   39    18           0.8256556020          22.4672311414     SG+        A1 (1)
   40    19           0.8698043519          23.6685797017     SG+        A1 (1)
   41    20           0.8703720473          23.6840274787      DE        A1 (1)
   42   194           0.8703720473          23.6840274787      DE        A2 (4)
   43   148           0.8966266921          24.3984526865      PI        B2 (3)
   44    96           0.8966266921          24.3984526865      PI        B1 (2)
   45   149           1.0328834670          28.1061880273      PI        B2 (3)
   46    97           1.0328834670          28.1061880273      PI        B1 (2)
   47    21           1.1244041250          30.5965917413     SG+        A1 (1)
   48    22           1.3893095311          37.8050343130     SG+        A1 (1)
   49    98           1.4259075741          38.8009176919      PH        B1 (2)
   50   150           1.4259075741          38.8009176919      PH        B2 (3)
   51   151           1.5370850230          41.8262098782      PI        B2 (3)
   52    99           1.5370850230          41.8262098782      PI        B1 (2)
   53    23           1.5708791600          42.7457950973      DE        A1 (1)
   54   195           1.5708791600          42.7457950973      DE        A2 (4)
   55    24           1.6191531965          44.0593984139     SG+        A1 (1)
   56   152           1.6404925422          44.6400715298      PI        B2 (3)
   57   100           1.6404925422          44.6400715298      PI        B1 (2)
   58    25           1.7045839490          46.3840873733      DE        A1 (1)
   59   196           1.7045839490          46.3840873733      DE        A2 (4)
   60    26           1.8977076114          51.6392493942     SG+        A1 (1)
   61    27           1.9939621573          54.2584687462     SG+        A1 (1)
   62   197           2.0798442430          56.5954391093      PI        A2 (4)
   63    28           2.0798442430          56.5954391093      PI        A1 (1)
   64   153           2.0905835305          56.8876699789      PI        B2 (3)
   65   101           2.0905835305          56.8876699789      PI        B1 (2)
   66   198           2.1425373137          58.3014042910      DE        A2 (4)
   67    29           2.1425373137          58.3014042910      DE        A1 (1)
   68   102           2.2201689504          60.4138685215      PH        B1 (2)
   69   154           2.2201689504          60.4138685215      PH        B2 (3)
   70   155           2.2490401862          61.1994947881      PH        B2 (3)
   71   103           2.2490401862          61.1994947881      PH        B1 (2)
   72   104           2.2518398068          61.2756763371      PI        B1 (2)
   73   156           2.2518398068          61.2756763371      PI        B2 (3)
   74    30           2.2551406589          61.3654970914     SG+        A1 (1)
   75    31           2.3061439333          62.7533667448      DE        A1 (1)
   76   199           2.3061439333          62.7533667448      DE        A2 (4)
   77    32           2.4738542003          67.3169951197     SG+        A1 (1)
   78   105           2.5211651607          68.6043918024      PI        B1 (2)
   79   157           2.5211651607          68.6043918024      PI        B2 (3)
   80    33           2.6004525130          70.7619103455     SG+        A1 (1)
   81   158           2.6197459705          71.2869120151      PI        B2 (3)
   82   106           2.6197459705          71.2869120151      PI        B1 (2)
   83   200           2.7352350539          74.4295297420      DE        A2 (4)
   84    34           2.7352350539          74.4295297420      DE        A1 (1)
   85    35           3.1429616074          85.5243333115     SG+        A1 (1)
   86   159           3.5168919768          95.6994959583      PI        B2 (3)
   87   107           3.5168919768          95.6994959583      PI        B1 (2)
   88    36           3.7019605307         100.7354673329      PI        A1 (1)
   89   201           3.7019605307         100.7354673329      PI        A2 (4)
   90    37           3.9048413804         106.2561359189     SG+        A1 (1)
   91   108           3.9844720636         108.4229969684      PH        B1 (2)
   92   160           3.9844720636         108.4229969684      PH        B2 (3)
   93   109           4.1289278644         112.3538391478      PH        B1 (2)
   94   161           4.1289278644         112.3538391478      PH        B2 (3)
   95   162           4.1635194202         113.2951232377      PI        B2 (3)
   96   110           4.1635194202         113.2951232377      PI        B1 (2)
   97    38           4.1932129538         114.1031253628     SG+        A1 (1)
   98   202           4.2192920753         114.8127743372      DE        A2 (4)
   99    39           4.2192920753         114.8127743372      DE        A1 (1)
  100    40           4.2739038557         116.2988364327      DE        A1 (1)
  101   203           4.2739038557         116.2988364327      DE        A2 (4)
  102    41           4.4301976396         120.5518065087     SG+        A1 (1)
  103   163           4.6488768676         126.5023708229      PI        B2 (3)
  104   111           4.6488768676         126.5023708229      PI        B1 (2)
  105    42           4.8089560176         130.8583459486     SG+        A1 (1)
  106   204           4.8132741339         130.9758478658      DE        A2 (4)
  107    43           4.8132741339         130.9758478658      DE        A1 (1)
  108   112           5.1506658246         140.1567425198      PI        B1 (2)
  109   164           5.1506658246         140.1567425198      PI        B2 (3)
  110    44           5.3678808780         146.0674646172     SG+        A1 (1)
  111   113           5.4084517773         147.1714549132      PI        B1 (2)
  112   165           5.4084517773         147.1714549133      PI        B2 (3)
  113   205           5.8485618303         159.1474583039      PI        A2 (4)
  114    45           5.8485618303         159.1474583039      PI        A1 (1)
  115   114           5.9322297257         161.4241774816      PH        B1 (2)
  116   166           5.9322297257         161.4241774816      PH        B2 (3)
  117    46           6.1246860834         166.6611812194     SG+        A1 (1)
  118   206           6.1656648424         167.7762699429      DE        A2 (4)
  119    47           6.1656648424         167.7762699429      DE        A1 (1)
  120   167           6.1854018417         168.3133409976      PI        B2 (3)
  121   115           6.1854018417         168.3133409976      PI        B1 (2)
  122    48           6.2532174643         170.1586979056     SG+        A1 (1)
  123   168           6.3798235788         173.6038254284      PH        B2 (3)
  124   116           6.3798235788         173.6038254284      PH        B1 (2)
  125   207           6.4630359536         175.8681492602      DE        A2 (4)
  126    49           6.4630359536         175.8681492602      DE        A1 (1)
  127    50           6.5140537053         177.2564128632      DE        A1 (1)
  128   208           6.5140537053         177.2564128632      DE        A2 (4)
  129   117           6.9130335597         188.1132066494      PI        B1 (2)
  130   169           6.9130335597         188.1132066494      PI        B2 (3)
  131    51           7.1983691818         195.8775836621     SG+        A1 (1)
  132   170           7.5480797961         205.3936932668      PI        B2 (3)
  133   118           7.5480797961         205.3936932668      PI        B1 (2)
  134    52           8.1947952945         222.9917166421     SG+        A1 (1)
  135    53           9.6838278617         263.5103527238     SG+        A1 (1)
  136   171           9.8981885889         269.3434046591      PI        B2 (3)
  137   119           9.8981885889         269.3434046593      PI        B1 (2)
  138   209          10.6352122184         289.3988372153      PI        A2 (4)
  139    54          10.6352122184         289.3988372153      PI        A1 (1)
  140    55          10.7310388274         292.0064118123     SG+        A1 (1)
  141   120          10.7561763370         292.6904382231      PH        B1 (2)
  142   172          10.7561763370         292.6904382231      PH        B2 (3)
  143    56          10.9909187485         299.0781039847      DE        A1 (1)
  144   210          10.9909187485         299.0781039847      DE        A2 (4)
  145   173          11.0143760788         299.7164103923      PI        B2 (3)
  146   121          11.0143760788         299.7164103923      PI        B1 (2)
  147    57          11.2618234048         306.4497944513     SG+        A1 (1)
  148   174          11.8754237284         323.1467081116      PH        B2 (3)
  149   122          11.8754237284         323.1467081116      PH        B1 (2)
  150   211          12.0338155490         327.4567686689      DE        A2 (4)
  151    58          12.0338155490         327.4567686690      DE        A1 (1)
  152   175          12.5403690921         341.2407913432      PI        B2 (3)
  153   123          12.5403690921         341.2407913432      PI        B1 (2)
  154   212          12.7468937005         346.8606116432      DE        A2 (4)
  155    59          12.7468937005         346.8606116432      DE        A1 (1)
  156    60          12.7908955947         348.0579640567     SG+        A1 (1)
  157   124          13.0877504553         356.1357954835      PI        B1 (2)
  158   176          13.0877504553         356.1357954835      PI        B2 (3)
  159    61          13.8082530931         375.7416689994     SG+        A1 (1)
  160    62          17.4552136062         474.9805097677     SG+        A1 (1)
  161   125          18.8264099932         512.2926603694      PI        B1 (2)
  162   177          18.8264099932         512.2926603696      PI        B2 (3)
  163    63          20.1065442981         547.1268857447     SG+        A1 (1)
  164    64          26.3051126321         715.7985052122      DE        A1 (1)
  165   213          26.3051126321         715.7985052123      DE        A2 (4)
  166   178          26.6884907983         726.2307554799      PI        B2 (3)
  167   126          26.6884907983         726.2307554799      PI        B1 (2)
  168    65          27.1855596427         739.7566863803     SG+        A1 (1)
  169   179          33.5610644153         913.2429911180      PI        B2 (3)
  170   127          33.5610644154         913.2429911188      PI        B1 (2)
  171    66          34.3348804641         934.2995963021     SG+        A1 (1)
  172    67          35.8528920783         975.6067923425     SG+        A1 (1)
  173   214          47.0752540683        1280.9827871039      DE        A2 (4)
  174    68          47.0752540683        1280.9827871039      DE        A1 (1)
  175   128          47.2586122726        1285.9722175025      PI        B1 (2)
  176   180          47.2586122726        1285.9722175026      PI        B2 (3)
  177    69          47.6870369590        1297.6302459026     SG+        A1 (1)
  178    70          63.8687885612        1737.9580928328     SG+        A1 (1)
  179   129          66.3896160693        1806.5532966407      PI        B1 (2)
  180   181          66.3896160693        1806.5532966408      PI        B2 (3)
  181    71          67.3081238521        1831.5471640733     SG+        A1 (1)
  182   182          98.5433327109        2681.5004079099      PH        B2 (3)
  183   130          98.5433327109        2681.5004079099      PH        B1 (2)
  184   215          98.5567414803        2681.8652790739      DE        A2 (4)
  185    72          98.5567414803        2681.8652790739      DE        A1 (1)
  186   183          98.5731614057        2682.3120879614      PI        B2 (3)
  187   131          98.5731614057        2682.3120879614      PI        B1 (2)
  188    73          98.5897397039        2682.7632063900     SG+        A1 (1)
  189   184         103.2959271370        2810.8250769841      PH        B2 (3)
  190   132         103.2959271370        2810.8250769841      PH        B1 (2)
  191   216         103.3064261610        2811.1107699500      DE        A2 (4)
  192    74         103.3064261611        2811.1107699534      DE        A1 (1)
  193   133         103.3474144219        2812.2261172326      PI        B1 (2)
  194   185         103.3474144219        2812.2261172326      PI        B2 (3)
  195    75         103.3497103344        2812.2885921891     SG+        A1 (1)
  196    76         115.0012076608        3129.3419531207      DE        A1 (1)
  197   217         115.0012076608        3129.3419531208      DE        A2 (4)
  198   186         115.1854092898        3134.3543342703      PI        B2 (3)
  199   134         115.1854092898        3134.3543342703      PI        B1 (2)
  200    77         115.4548710370        3141.6867611866     SG+        A1 (1)
  201   187         116.8440771933        3179.4889825248      PI        B2 (3)
  202   135         116.8440771933        3179.4889825254      PI        B1 (2)
  203    78         117.4755414614        3196.6719988287     SG+        A1 (1)
  204    79         122.0643538153        3321.5399311416     SG+        A1 (1)
  205    80         198.5517154884        5402.8668548836      DE        A1 (1)
  206   218         198.5517154884        5402.8668548836      DE        A2 (4)
  207   136         198.6511530205        5405.5726876934      PI        B1 (2)
  208   188         198.6511530205        5405.5726876935      PI        B2 (3)
  209    81         198.8748882007        5411.6608314610     SG+        A1 (1)
  210    82         216.4002543641        5888.5502893581     SG+        A1 (1)
  211   137         224.8593994406        6118.7353292708      PI        B1 (2)
  212   189         224.8593994406        6118.7353292709      PI        B2 (3)
  213    83         225.5733926130        6138.1640712303     SG+        A1 (1)
  214   190         395.3396934405       10757.7399714489      PI        B2 (3)
  215   138         395.3396934405       10757.7399714492      PI        B1 (2)
  216    84         395.8761430359       10772.3375070642     SG+        A1 (1)
  217    85         508.7380526310       13843.4662003126     SG+        A1 (1)
  218    86         895.2277434597       24360.3853575987     SG+        A1 (1)


  VSCF finished.

 @CHECKOUT-I, Total execution time (CPU/WALL):       47.63/       8.12 seconds.
--executable xvscf finished with status     0 in        8.14 seconds (walltime).
 --invoking executable--
/nfs/workspaces/public/cfour_mpi/bin/xvtran
 @GETMEM-I,  Allocated    3814 MB of main memory.
  Full RHF integral transformation
  Transformation of IIII integrals :
  1 pass through the AO integral file was required.
     4481970 AO integrals were read.
     8715810 MO integrals were written to HF2.
  Transformation of IIJJ integrals :
  1 pass through the AO integral file was required.
    10176568 AO integrals were read.
    14479498 MO integrals were written to HF2.
  Transformation of IJIJ integrals :
  1 pass through the AO integral file was required.
    19326808 AO integrals were read.
    27076610 MO integrals were written to HF2.
  Transformation of IJKL integrals :
  1 pass through the AO integral file was required.
    14299419 AO integrals were read.
    18309847 MO integrals were written to HF2.
  Summary of active molecular orbitals: 
------------------------------------------------------------------------
 
  Index      Eigenvalue    Symmetry    Index      Eigenvalue    Symmetry
------------------------------------------------------------------------
     1       -20.6572804        1       110         4.1289279        2
     2       -11.4872753        1       111         4.1635194        2
     3        -1.3325352        1       112         4.6488769        2
     4        -0.7954910        1       113         5.1506658        2
     5        -0.5552348        1       114         5.4084518        2
     6        -0.5282128        2       115         5.9322297        2
     7        -0.5282128        3       116         6.1854018        2
     8         0.0636865        1       117         6.3798236        2
     9         0.0685414        1       118         6.9130336        2
    10         0.1566325        1       119         7.5480798        2
    11         0.2207600        1       120         9.8981886        2
    12         0.2247828        1       121        10.7561763        2
    13         0.2996738        1       122        11.0143761        2
    14         0.3546587        1       123        11.8754237        2
    15         0.4595807        1       124        12.5403691        2
    16         0.5117048        1       125        13.0877505        2
    17         0.5478609        1       126        18.8264100        2
    18         0.7223792        1       127        26.6884908        2
    19         0.7484326        1       128        33.5610644        2
    20         0.8256556        1       129        47.2586123        2
    21         0.8698044        1       130        66.3896161        2
    22         0.8703720        1       131        98.5433327        2
    23         1.1244041        1       132        98.5731614        2
    24         1.3893095        1       133       103.2959271        2
    25         1.5708792        1       134       103.3474144        2
    26         1.6191532        1       135       115.1854093        2
    27         1.7045839        1       136       116.8440772        2
    28         1.8977076        1       137       198.6511530        2
    29         1.9939622        1       138       224.8593994        2
    30         2.0798442        1       139       395.3396934        2
    31         2.1425373        1       140         0.0211149        3
    32         2.2551407        1       141         0.0866330        3
    33         2.3061439        1       142         0.1742704        3
    34         2.4738542        1       143         0.2938048        3
    35         2.6004525        1       144         0.4008188        3
    36         2.7352351        1       145         0.6239655        3
    37         3.1429616        1       146         0.7380879        3
    38         3.7019605        1       147         0.7877802        3
    39         3.9048414        1       148         0.8966267        3
    40         4.1932130        1       149         1.0328835        3
    41         4.2192921        1       150         1.4259076        3
    42         4.2739039        1       151         1.5370850        3
    43         4.4301976        1       152         1.6404925        3
    44         4.8089560        1       153         2.0905835        3
    45         4.8132741        1       154         2.2201690        3
    46         5.3678809        1       155         2.2490402        3
    47         5.8485618        1       156         2.2518398        3
    48         6.1246861        1       157         2.5211652        3
    49         6.1656648        1       158         2.6197460        3
    50         6.2532175        1       159         3.5168920        3
    51         6.4630360        1       160         3.9844721        3
    52         6.5140537        1       161         4.1289279        3
    53         7.1983692        1       162         4.1635194        3
    54         8.1947953        1       163         4.6488769        3
    55         9.6838279        1       164         5.1506658        3
    56        10.6352122        1       165         5.4084518        3
    57        10.7310388        1       166         5.9322297        3
    58        10.9909187        1       167         6.1854018        3
    59        11.2618234        1       168         6.3798236        3
    60        12.0338155        1       169         6.9130336        3
    61        12.7468937        1       170         7.5480798        3
    62        12.7908956        1       171         9.8981886        3
    63        13.8082531        1       172        10.7561763        3
    64        17.4552136        1       173        11.0143761        3
    65        20.1065443        1       174        11.8754237        3
    66        26.3051126        1       175        12.5403691        3
    67        27.1855596        1       176        13.0877505        3
    68        34.3348805        1       177        18.8264100        3
    69        35.8528921        1       178        26.6884908        3
    70        47.0752541        1       179        33.5610644        3
    71        47.6870370        1       180        47.2586123        3
    72        63.8687886        1       181        66.3896161        3
    73        67.3081239        1       182        98.5433327        3
    74        98.5567415        1       183        98.5731614        3
    75        98.5897397        1       184       103.2959271        3
    76       103.3064262        1       185       103.3474144        3
    77       103.3497103        1       186       115.1854093        3
    78       115.0012077        1       187       116.8440772        3
    79       115.4548710        1       188       198.6511530        3
    80       117.4755415        1       189       224.8593994        3
    81       122.0643538        1       190       395.3396934        3
    82       198.5517155        1       191         0.2247828        4
    83       198.8748882        1       192         0.5478609        4
    84       216.4002544        1       193         0.7484326        4
    85       225.5733926        1       194         0.8703720        4
    86       395.8761430        1       195         1.5708792        4
    87       508.7380526        1       196         1.7045839        4
    88       895.2277435        1       197         2.0798442        4
    89         0.0211149        2       198         2.1425373        4
    90         0.0866330        2       199         2.3061439        4
    91         0.1742704        2       200         2.7352351        4
    92         0.2938048        2       201         3.7019605        4
    93         0.4008188        2       202         4.2192921        4
    94         0.6239655        2       203         4.2739039        4
    95         0.7380879        2       204         4.8132741        4
    96         0.7877802        2       205         5.8485618        4
    97         0.8966267        2       206         6.1656648        4
    98         1.0328835        2       207         6.4630360        4
    99         1.4259076        2       208         6.5140537        4
   100         1.5370850        2       209        10.6352122        4
   101         1.6404925        2       210        10.9909187        4
   102         2.0905835        2       211        12.0338155        4
   103         2.2201690        2       212        12.7468937        4
   104         2.2490402        2       213        26.3051126        4
   105         2.2518398        2       214        47.0752541        4
   106         2.5211652        2       215        98.5567415        4
   107         2.6197460        2       216       103.3064262        4
   108         3.5168920        2       217       115.0012077        4
   109         3.9844721        2       218       198.5517155        4
------------------------------------------------------------------------
  -20.6572804352112       -11.4872752778045       -1.33253517412088     
 -0.795491010410303      -0.555234826604372      -0.528212784493671     
 -0.528212784493681       6.368646321499630E-002  6.854135042480504E-002
  0.156632523103706       0.220760048355894       0.224782847338785     
  0.299673784504168       0.354658743278144       0.459580700637737     
  0.511704780948700       0.547860942302241       0.722379179764693     
  0.748432557400895       0.825655601964453       0.869804351869368     
  0.870372047263133        1.12440412497560        1.38930953113594     
   1.57087915998127        1.61915319652263        1.70458394898255     
   1.89770761137299        1.99396215725803        2.07984424302770     
   2.14253731366672        2.25514065894315        2.30614393330797     
   2.47385420028770        2.60045251302851        2.73523505394617     
   3.14296160743966        3.70196053071193        3.90484138042422     
   4.19321295376709        4.21929207528567        4.27390385571859     
   4.43019763959079        4.80895601759758        4.81327413386297     
   5.36788087801502        5.84856183033706        6.12468608337698     
   6.16566484241597        6.25321746433392        6.46303595355556     
   6.51405370530173        7.19836918184996        8.19479529446297     
   9.68382786168089        10.6352122184014        10.7310388273865     
   10.9909187485377        11.2618234048064        12.0338155490096     
   12.7468937004938        12.7908955946993        13.8082530930565     
[...]
 Convergence information after    14 iterations: 
 Largest element of residual vector :  0.14252504E-05.
 Largest element of DIIS residual   :  0.97457272E-06.
 Convergence information after    15 iterations: 
 Largest element of residual vector :  0.89366101E-06.
 Largest element of DIIS residual   :  0.70693490E-06.
 Convergence information after    16 iterations: 
 Largest element of residual vector :  0.51189347E-06.
 Largest element of DIIS residual   :  0.21132192E-06.
 Convergence information after    17 iterations: 
 Largest element of residual vector :  0.22079886E-06.
 Largest element of DIIS residual   :  0.75011026E-07.
 Perturbed amplitude equations converged in    17 iterations.
  Dominant contributions to perturbed wavefunction:
    7    7  140   28   0.2414741324 ABAB
    7    7   28  140   0.2414741324 ABAB
    7    7  140   39  -0.2225851218 ABAB
    7    7   39  140  -0.2225851218 ABAB
    7    7  140   21  -0.1821910673 ABAB
    7    7   21  140  -0.1821910673 ABAB
    7    7  140   44   0.1750303427 ABAB
    7    7   44  140   0.1750303427 ABAB
    7    7  140   54  -0.1669577113 ABAB
    7    7   54  140  -0.1669577113 ABAB
    7    6   28   89   0.1521751883 ABAB
    6    7   89   28   0.1521751883 ABAB
    7    7  140   57   0.1436204726 ABAB
    7    7   57  140   0.1436204726 ABAB
    7    7  140   29  -0.1415311539 ABAB
    7    7   29  140  -0.1415311539 ABAB
    7    6   39   89  -0.1410857866 ABAB
    6    7   89   39  -0.1410857866 ABAB
    7    7  140   24   0.1330726232 ABAB
    7    7   24  140   0.1330726232 ABAB
  norm of converged amps    1.82278117441373     
 Starting iterative solution of the perturbed Lambda equations.
 The DIIS procedure is used to accelerate convergence.
 Convergence criterion is 10**(-7).
 Maximum number of iterations is 100.
 Convergence information after     1 iterations: 
 Largest element of residual vector :  0.68956337E-01.
 Largest element of DIIS residual   :  0.68956337E-01.
 Convergence information after     2 iterations: 
 Largest element of residual vector : -0.13742605E-01.
 Largest element of DIIS residual   :  0.87266548E-02.
 Convergence information after     3 iterations: 
 Largest element of residual vector : -0.61966747E-02.
 Largest element of DIIS residual   : -0.57415853E-02.
 Convergence information after     4 iterations: 
 Largest element of residual vector : -0.38383491E-02.
 Largest element of DIIS residual   : -0.33916655E-02.
 Convergence information after     5 iterations: 
 Largest element of residual vector : -0.29451720E-02.
 Largest element of DIIS residual   : -0.19838839E-02.
 Convergence information after     6 iterations: 
 Largest element of residual vector : -0.13075966E-02.
 Largest element of DIIS residual   : -0.57336213E-03.
 Convergence information after     7 iterations: 
 Largest element of residual vector : -0.57354961E-03.
 Largest element of DIIS residual   : -0.22934881E-03.
 Convergence information after     8 iterations: 
 Largest element of residual vector : -0.14876136E-03.
 Largest element of DIIS residual   : -0.10068475E-03.
 Convergence information after     9 iterations: 
 Largest element of residual vector : -0.59500928E-04.
 Largest element of DIIS residual   : -0.22609089E-04.
 Convergence information after    10 iterations: 
 Largest element of residual vector : -0.18691645E-04.
 Largest element of DIIS residual   : -0.84786908E-05.
 Convergence information after    11 iterations: 
 Largest element of residual vector : -0.39142235E-05.
 Largest element of DIIS residual   : -0.30153586E-05.
 Convergence information after    12 iterations: 
 Largest element of residual vector : -0.21526370E-05.
 Largest element of DIIS residual   : -0.15655214E-05.
 Convergence information after    13 iterations: 
 Largest element of residual vector :  0.12944205E-05.
 Largest element of DIIS residual   :  0.13566353E-05.
 Convergence information after    14 iterations: 
 Largest element of residual vector :  0.98585157E-06.
 Largest element of DIIS residual   :  0.78114986E-06.
 Convergence information after    15 iterations: 
 Largest element of residual vector :  0.68828113E-06.
 Largest element of DIIS residual   :  0.55491291E-06.
 Convergence information after    16 iterations: 
 Largest element of residual vector :  0.39652296E-06.
 Largest element of DIIS residual   :  0.20873234E-06.
 Convergence information after    17 iterations: 
 Largest element of residual vector :  0.19767683E-06.
 Largest element of DIIS residual   :  0.75201893E-07.
 Perturbed Lambda equations converged in    17 iterations.
  Dominant contributions to perturbed wavefunction:
    7    7  140   28   0.2134180732 ABAB
    7    7   28  140   0.2134180732 ABAB
    7    7  140   39  -0.1936769768 ABAB
    7    7   39  140  -0.1936769768 ABAB
    7    7  140   21  -0.1596013379 ABAB
    7    7   21  140  -0.1596013379 ABAB
    7    7  140   44   0.1527561385 ABAB
    7    7   44  140   0.1527561385 ABAB
    7    7  140   54  -0.1481360643 ABAB
    7    7   54  140  -0.1481360643 ABAB
    7    6   28   89   0.1322035236 ABAB
    6    7   89   28   0.1322035236 ABAB
    7    7  140   57   0.1243836019 ABAB
    7    7   57  140   0.1243836019 ABAB
    7    7  140   29  -0.1214189947 ABAB
    7    7   29  140  -0.1214189947 ABAB
    7    6   39   89  -0.1207821834 ABAB
    6    7   89   39  -0.1207821834 ABAB
    7    7  140   24   0.1127804110 ABAB
    7    7   24  140   0.1127804110 ABAB
        The DBOC first-order density matrix is being calculated 
             (Symmetry block 3, perturbation   2)
 term   3.62632226560918     
 final tnorm  0.833950990751893     
  norm contr. I: |<0|L dT/dx|0>|^2   0.000000000000000E+000
  norm contr. II: <0|[nabla(1+L)e-T][nabla e^T]|0>   3.62632226560918     
  total norm contribution   3.62632226560918     
 oo  8.049867694102476E-003
 vv  -27.1632695867097     
 vo  7.487216748613074E-002
  Correlated perturbed 1-el contribution to DBOC  -27.0803475515295       cm**-1
  SUM_I |dc_I/dx|^2 contribution to DBOC   13.6520502729181       cm**-1
 
 
  The total diagonal Born-Oppenheimer correction (DBOC) is:      0.0041399429 a.u.
  The total diagonal Born-Oppenheimer correction (DBOC) is:        908.612432 cm-1
 
 Total CC energy including DBOC  -113.151285519752     
 First-order density matrix is being calculated  (Symmetry block 3, perturbation   2)
 Calculation of the contributions of <pq||rs> to dI(i,j)/dx required   1.9 seconds.
 Calculation of the contributions of <pq||rs> to dI(a,b)/dx required  15.2 seconds.
 Calculation of the contributions of <pq||rs> to dI(i,a)/dx required   9.4 seconds.
 First-order Z-vector equations are solved for 1 perturbation.
 Convergence reached after  22 iterations.
        U*G(pq,rs) contribution is being calculated
             (Symmetry block 3, perturbation   2)

 CCSD contribution to force constants 

        0.0000000000        0.0000000000        0.0000000000
        0.0000000000        0.0000000000        0.0000000000
        0.0000000000        0.0000000000        0.0000000000
        0.0000000000        0.0000000000        0.0000000000
        0.0000000000        0.0000000000        0.0000000000
        0.0000000000        0.0000000000        0.0000000000
        0.0000000000        0.0000000000        0.0000000000
        0.0000000000        0.0000000000        0.0000000000
        0.0000000000        0.0000000000        0.0000000000
        0.0000000000        0.0000000000        0.0000000000
        0.0000000000        0.0000000000        0.0000000000
        0.0000000000       -1.0486773099        1.0486773099

 CCSD contribution to dipole derivatives 

        0.0000000000        0.0000000000        0.0000000000
        0.0000000000        0.0000000000        0.0000000000
        0.0000000000        0.0000000000        0.0000000000
        0.0000000000        0.0000000000       -0.0557144650
        0.0000000000        0.0000000000        0.0000000000
        0.0000000000        0.0000000000        0.0000000000
 @CHECKOUT-I, Total execution time (CPU/WALL):     1043.90/     210.64 seconds.
--executable xsdcc finished with status     0 in      210.69 seconds (walltime).
 --invoking executable--
/nfs/workspaces/public/cfour_mpi/bin/xanti
 @GETMEM-I,  Allocated    3814 MB of main memory.
 CCSD MO derivative gammas will be sorted to Mulliken order.
 @CHECKOUT-I, Total execution time (CPU/WALL):        9.84/      23.28 seconds.
--executable xanti finished with status     0 in       23.31 seconds (walltime).
 --invoking executable--
/nfs/workspaces/public/cfour_mpi/bin/xbcktrn
 @GETMEM-I,  Allocated    3814 MB of main memory.
 CCSD MO derivative gammas will be transformed to the AO basis.
 @CHECKOUT-I, Total execution time (CPU/WALL):       17.40/       3.12 seconds.
--executable xbcktrn finished with status     0 in        3.15 seconds (walltime).
 --invoking executable--
/nfs/workspaces/public/cfour_mpi/bin/xvdint
 @GETMEM-I,  Allocated    3814 MB of main memory.
 One- and two-electron integral derivatives are calculated
 for RHF-CC/MBPT hessians and dipole derivatives.
 Spherical gaussians are used.
  magnet F F
                    8722  records have been written to the Sort file.
  Total length of Sort file :             178609116  words.
 Evaluation of 2el integral derivatives

                      Two-electron integral gradient
                      ------------------------------

                         C #1 z     0.0000000000
                         O #2 z     0.0000000000


 C #1       0.0000000000           -0.0035801869            0.0000000000
 O #2       0.0000000000            0.0035801869            0.0000000000


 Evaluation of 2e integral derivatives required  258.31 seconds.
  contribution to Hessian
        0.0000000000        0.0000000000        0.0000000000
        0.0000000000       -0.0035801869        0.0035801869
 @CHECKOUT-I, Total execution time (CPU/WALL):      258.30/      57.31 seconds.
--executable xvdint finished with status     0 in       57.34 seconds (walltime).
 --invoking executable--
/nfs/workspaces/public/cfour_mpi/bin/xanti
 @GETMEM-I,  Allocated    3814 MB of main memory.
 CCSD MO gammas will be sorted to Mulliken order.
 @CHECKOUT-I, Total execution time (CPU/WALL):       10.45/       9.01 seconds.
--executable xanti finished with status     0 in        9.04 seconds (walltime).
 --invoking executable--
/nfs/workspaces/public/cfour_mpi/bin/xbcktrn
 @GETMEM-I,  Allocated    3814 MB of main memory.
 CCSD MO gammas will be transformed to the AO basis.
 @CHECKOUT-I, Total execution time (CPU/WALL):       24.19/       3.52 seconds.
--executable xbcktrn finished with status     0 in        3.54 seconds (walltime).
 --invoking executable--
/nfs/workspaces/public/cfour_mpi/bin/xvdint
 @GETMEM-I,  Allocated    3814 MB of main memory.
 One- and two-electron integral derivatives are calculated
 for RHF-CC/MBPT hessians and dipole derivatives.
 Spherical gaussians are used.
  magnet F F

                     Kinetic energy integral gradient
                     --------------------------------

                         C #1 z    -0.7190274185
                         O #2 z     0.7190274185


 C #1       0.0000000000            0.0000000000           -0.7190274185
 O #2       0.0000000000            0.0000000000            0.7190274185



                   Nuclear attraction integral gradient
                   ------------------------------------

                         C #1 z    15.9911660414
                         O #2 z   -15.9911660414


 C #1       0.0000000000            0.0000000000           15.9911660414
 O #2       0.0000000000            0.0000000000          -15.9911660414



                      Reorthonormalization gradient
                      -----------------------------

                         C #1 z     0.0000000000
                         O #2 z     0.0000000000


 C #1       0.0000000000            0.0000000000            0.0000000000
 O #2       0.0000000000            0.0000000000            0.0000000000



                     Kinetic energy integral Hessian
                     -------------------------------


           Symmetry 1

           C #1 z      O #2 z

 C #1 z    0.736670
 O #2 z   -0.736670    0.736670


           Symmetry 2

           C #1 x      O #2 x

 C #1 x   -0.630319
 O #2 x    0.630319   -0.630319


           Symmetry 3

           C #1 y      O #2 y

 C #1 y   -0.630319
 O #2 y    0.630319   -0.630319




           C #1 x      C #1 y      C #1 z      O #2 x      O #2 y      O #2 z

 C #1 x   -0.630319
 C #1 y    0.000000   -0.630319
 C #1 z    0.000000    0.000000    0.736670

 O #2 x    0.630319    0.000000    0.000000   -0.630319
 O #2 y    0.000000    0.630319    0.000000    0.000000   -0.630319
 O #2 z    0.000000    0.000000   -0.736670    0.000000    0.000000    0.736670




                   Nuclear attraction integral Hessian
                   -----------------------------------


           Symmetry 1

           C #1 z      O #2 z

 C #1 z   -9.893693
 O #2 z    9.893693   -9.893693


           Symmetry 2

           C #1 x      O #2 x

 C #1 x    9.750187
 O #2 x   -9.750187    9.750187


           Symmetry 3

           C #1 y      O #2 y

 C #1 y    9.750187
 O #2 y   -9.750187    9.750187




           C #1 x      C #1 y      C #1 z      O #2 x      O #2 y      O #2 z

 C #1 x    9.750187
 C #1 y    0.000000    9.750187
 C #1 z    0.000000    0.000000   -9.893693

 O #2 x   -9.750187    0.000000    0.000000    9.750187
 O #2 y    0.000000   -9.750187    0.000000    0.000000    9.750187
 O #2 z    0.000000    0.000000    9.893693    0.000000    0.000000   -9.893693




                Highest order reorthonormalization Hessian
                ------------------------------------------


           Symmetry 1

           C #1 z      O #2 z

 C #1 z    0.000000
 O #2 z    0.000000    0.000000


           Symmetry 2

           C #1 x      O #2 x

 C #1 x    0.000000
 O #2 x    0.000000    0.000000


           Symmetry 3

           C #1 y      O #2 y

 C #1 y    0.000000
 O #2 y    0.000000    0.000000




           C #1 x      C #1 y      C #1 z      O #2 x      O #2 y      O #2 z




                Electronic contributions to dipole moment
                -----------------------------------------

                               au             Debye

                    z      0.35324573      0.89786125

  Conversion factor used: 1 a.u. =   2.54174691 Debye 



   Electronic contributions to static part of dipole moment derivatives
   --------------------------------------------------------------------


                     Total dipole moment derivatives
                     -------------------------------


           Symmetry 1
                              Ez

               C #1 z    -5.64422614
               O #2 z    -8.35577386

           Symmetry 2
                              Ex

               C #1 x    -5.67179205
               O #2 x    -8.32820795

           Symmetry 3
                              Ey

               C #1 y    -5.67179205
               O #2 y    -8.32820795



                       Ex          Ey          Ez

      C #1    x   -5.671792    0.000000    0.000000
      C #1    y    0.000000   -5.671792    0.000000
      C #1    z    0.000000    0.000000   -5.644226

      O #2    x   -8.328208    0.000000    0.000000
      O #2    y    0.000000   -8.328208    0.000000
      O #2    z    0.000000    0.000000   -8.355774

 Evaluation of 1e integral derivatives required    1.62 seconds.
                    8815  records have been written to the Sort file.
  Total length of Sort file :             180513570  words.
 Evaluation of 2el integral derivatives

                      Two-electron integral gradient
                      ------------------------------

                         C #1 z    -8.3029433558
                         O #2 z     8.3029433558


 C #1       0.0000000000            0.0000000000           -8.3029433558
 O #2       0.0000000000            0.0000000000            8.3029433558


 Evaluation of 2e integral derivatives required  535.84 seconds.

                            Molecular gradient
                            ------------------

                         C #1 z     0.6515013332
                         O #2 z    -0.6515013332


 C #1       0.0000000000            0.0000000000            0.6515013332
 O #2       0.0000000000            0.0000000000           -0.6515013332


  Molecular gradient norm 0.921E+00

                            Molecular hessian
                            -----------------


           Symmetry 1

           C #1 z      O #2 z

 C #1 z   25.604103
 O #2 z  -25.604103   25.604103


           Symmetry 2

           C #1 x      O #2 x

 C #1 x    1.329615
 O #2 x   -1.329615    1.329615


           Symmetry 3

           C #1 y      O #2 y

 C #1 y    1.329615
 O #2 y   -1.329615    1.329615




           C #1 x      C #1 y      C #1 z      O #2 x      O #2 y      O #2 z

 C #1 x    1.329615
 C #1 y    0.000000    1.329615
 C #1 z    0.000000    0.000000   25.604103

 O #2 x   -1.329615    0.000000    0.000000    1.329615
 O #2 y    0.000000   -1.329615    0.000000    0.000000    1.329615
 O #2 z    0.000000    0.000000  -25.604103    0.000000    0.000000   25.604103




                           Total dipole moment
                           -------------------

                               au             Debye

                    z      0.35024148      0.89022521

  Conversion factor used: 1 a.u. =   2.54174691 Debye 



                     Total dipole moment derivatives
                     -------------------------------


           Symmetry 1
                              Ez

               C #1 z     0.64858432
               O #2 z    -0.64858432

           Symmetry 2
                              Ex

               C #1 x     0.13000452
               O #2 x    -0.13000452

           Symmetry 3
                              Ey

               C #1 y     0.13000452
               O #2 y    -0.13000452



                       Ex          Ey          Ez

      C #1    x    0.130005    0.000000    0.000000
      C #1    y    0.000000    0.130005    0.000000
      C #1    z    0.000000    0.000000    0.648584

      O #2    x   -0.130005    0.000000    0.000000
      O #2    y    0.000000   -0.130005    0.000000
      O #2    z    0.000000    0.000000   -0.648584

 @CHECKOUT-I, Total execution time (CPU/WALL):      537.46/      92.62 seconds.
--executable xvdint finished with status     0 in       92.65 seconds (walltime).
 --invoking executable--
/nfs/workspaces/public/cfour_mpi/bin/xjoda
  @GTFLGS-I, Hessian will be transformed to curvilinear coordinates.
  @GTFLGS-I, Hessian will be transformed to curvilinear coordinates.
  igrd and ihes are                      0                     1
  gradient from JOBARC 
   0.000000000000000   0.000000000000000   0.651501333178616
   0.000000000000000   0.000000000000000  -0.651501333178616
 
  @PROJFCM-I, Projecting force constant matrix onto totally symmetric subspace.
  Largest difference between matrix elements of symmetrized
  and unsymmetrized FCM :    -0.2599698234E-11.
  read isotopes from ZMAT file 
 
  Summary of diagonal Born-Oppenheimer correction at the correlated level
  The total diagonal Born-Oppenheimer correction (DBOC) is:      0.0041399429 a.u.
  The total diagonal Born-Oppenheimer correction (DBOC) is:        908.612432 cm-1
  The total diagonal Born-Oppenheimer correction (DBOC) is:            10.869 kJ/mole
  hellooooooo 
  readis is  F
 
 @CHECKOUT-I, Total execution time (CPU/WALL):        0.01/       0.01 seconds.
--executable xjoda finished with status     0 in        0.04 seconds (walltime).
  The final electronic energy is      -113.151285519751752 a.u. 
  This computation required                         2118.92 seconds (walltime).
