 --invoking executable--
/nfs/workspaces/public/cfour_mpi/bin/xjoda


   *************************************************************************
         <<<     CCCCCC     CCCCCC   |||     CCCCCC     CCCCCC   >>>
       <<<      CCC        CCC       |||    CCC        CCC         >>>
      <<<      CCC        CCC        |||   CCC        CCC            >>>
    <<<        CCC        CCC        |||   CCC        CCC              >>>
      <<<      CCC        CCC        |||   CCC        CCC            >>>
       <<<      CCC        CCC       |||    CCC        CCC         >>>
         <<<     CCCCCC     CCCCCC   |||     CCCCCC     CCCCCC   >>>
   *************************************************************************

     ****************************************************************
     * CFOUR Coupled-Cluster techniques for Computational Chemistry *
     ****************************************************************
 

   Department of Chemistry                Institut fuer Physikalische Chemie
   University of Florida                  Universitaet Mainz
   Gainesville, FL 32611, USA             D-55099 Mainz, Germany

   Department of Chemistry                Fakultaet fuer Chemie und Biowiss.
   Johns Hopkins University               Karlsruher Institut fuer Technologie
   Baltimore, MD 21218, USA               D-76131 Karlsruhe, Germany

   Department of Chemistry                Department of Physical Chemistry
   Southern Methodist University          Eotvos Lorand University
   Dallas, TX 75275, USA                  H-1053 Budapest, Hungary

 
                       Version 2.1
 
                     vincent.theory.phys.ucl.ac.uk                     
                     Wed 26 Feb 03:43:48 GMT 2025                      
                     integer*8 version is running
 
********************************************************************************
*                          Input from ZMAT file                                *
********************************************************************************
Carbon Monoxide DBOC calculation                                                
C                                                                               
O 1 r                                                                           
                                                                                
r=1.6448275862068966                                                            
                                                                                
                                                                                
*CFOUR(CALC=CCSD,BASIS=AUG-PCVQZ,SCF_CONV=10                                    
CC_CONV=14,DBOC=ON,MEMORY=500000000                                             
ZFIELD=-200)                                                                    
                                                                                
%isotopes                                                                       
12                                                                              
16                                                                              
********************************************************************************
  @GTFLGS-I, Hessian will be transformed to curvilinear coordinates.
    -------------------------------------------------------------------
                    CFOUR Control Parameters 
    -------------------------------------------------------------------
        External           Internal           Value            Units
          Name               Name
    -------------------------------------------------------------------
       ABCDTYPE             IABCDT         STANDARD    [  0]    ***   
       ANHARMONIC           IANHAR         OFF         [  0]    ***   
       ANH_ALGORIT          IANALG         STANDARD    [  0]    ***   
       ANH_DERIVAT          IANDER         SECOND      [  1]    ***   
       ANH_MODE             ANHMOD         VIBRATION   [  0]    ***   
       ANH_STEPSIZ          ICUBST             50000          x 10-6  
       ANH_SYMMETR          IANHSM         ABELIAN     [  0]    ***   
       AO_LADDERS           IAOLAD         SINGLEPASS  [  1]    ***   
       AV_SCF               IAVSCF         OFF         [  0]    ***   
       BASIS                IBASIS         AUG-PCVQZ   [ 52]    ***   
       BOTHVECTORS          BOTHVC         OFF         [  0]    ***   
       BOX_POTENT           IPIAB          OFF         [  0]    ***   
       BREIT                IBREIT         OFF         [  0]    ***   
       BRUCK_CONV           IBRTOL          10D-  4             ***   
       BRUECKNER            IBRKNR         OFF         [  0]    ***   
       BUFFERSIZE           IBUFFS              4096            ***   
       CACHE_RECS           ICHREC             10               ***   
       CALCLEVEL            ICLLVL         CCSD        [ 10]    ***   
       CCORBOPT             ICCORB         OFF         [  0]  x 0.01  
       CC_CONV              ICCCNV          10D- 14             ***   
       CC_EXPORDER          ICCEOR              5               ***   
       CC_EXTRAPOL          ICCEXT         DIIS        [  1]    ***   
       CC_GUESS             ICCGES         MP2         [  0]    ***   
       CC_MAXCYC            ICCCYC            100              cycles 
       CC_PROGRAM           ICCPRO         VCC         [  0]    ***   
       CHARGE               ICHRGE              0               ***   
       CHOLESKY             ICHOLE         OFF         [  0]    ***   
       CIS_CONV             ICISTL              5               ***   
       COMM_SIZE            IPSIZE            ***               ***   
       CONSTANT             ICONST         OLD         [  1]    ***   
       CONTINUUM            ICONTU         NONE        [  0]    ***   
       CONTRACTION          ICNTYP         GENERAL     [  1]    ***   
       COORDINATES          ICOORD         INTERNAL    [  0]    ***   
       CPHF_CONVER          ICPHFT          10D- 16             ***   
       CPHF_MAXCYC          ICPHFC             64              cycles 
       CUBIC                ICUBIC         OFF         [  0]    ***   
       CURVILINEAR          ICURVY         ON          [  1]    ***   
       DBOC                 IDBOC          ON          [  1]    ***   
       DCT                  IDCT           OFF         [  0]    ***   
       DERIV_LEV            IDRLVL         SECOND      [  2]    ***   
       DEVMEM_SIZE          IDVMEM          50000000           MByte  
       DIAG_MRCC            IEOMST          10D-  0             ***   
       DIFF_TYPE            IDIFTY         RELAXED     [  0]    ***   
       DIRECT               IDIRCT         OFF         [  0]    ***   
       DROPMO               IDRPMO      NONE         
       ECP                  IECP           OFF         [  0]    ***   
       EIGENVECTOR          IVEC                1               ***   
       EL_ANHARM            IELANH         OFF         [  0]    ***   
       EOMFOLLOW            IEOMSR         ENERGY      [  0]    ***   
       EOMIP                IEOMIP         OFF         [  0]    ***   
       EOMLEVEL             HBARFM         SAME        [  0]    ***   
       EOM_MRCC             IMRCCE         NEW         [  1]    ***   
       EOM_NONIT            EOMNON         OFF         [  0]    ***   
       EOM_NSING            IEOMSI          10D-  0             ***   
       EOM_NSTATES          IMRCCD         DAVIDSON    [  0]    ***   
       EOM_NTRIP            IEOMTR          10D-  0             ***   
       EOM_ORDER            IEXORD         ENERGY      [  0]    ***   
       EOM_PROPSTA          IEOMST              0               ***   
       ESTATE_CONV          IEXTOL          10D-  5             ***   
       ESTATE_DIAG          IEXDIG         ITERATIVE   [  0]    ***   
       ESTATE_LOCK          IESLOC         ON          [  1]    ***   
       ESTATE_MAXC          IEXMXC             40               ***   
       ESTATE_PROP          IEXPRP         OFF         [  0]    ***   
       EVAL_HESS            IRECAL              0            # of cyc.
       EXCITATION           IEXCIT              0               ***   
       EXCITE               IEXCIT         NONE        [  0]    ***   
       EXTERN_POT           IEXPOT         OFF         [  0]    ***   
       FCGRADNEW            IFCGNW         OFF         [  0]    ***   
       FC_FIELD             IFINFC              0             x 10-6  
       FD_CALTYPE           IFDCAL         GRADONLY    [  0]    ***   
       FD_PROJECT           IFDPRJ         OFF         [  1]    ***   
       FD_STEPSIZE          IDISFD              0            10-4 bohr
       FD_USEGROUP          IFDGRP         FULL        [  0]    ***   
       FILE_RECSIZ          IFLREC              4096           words  
       FINITE_PERT          IFIPER              0             x 10-6  
       FIXGEOM              IFIXGM         OFF         [  0]    ***   
       FOCK                 IFOCK          AO          [  1]    ***   
       FREQ_ALGORI          IVIALG         STANDARD    [  0]    ***   
       FROZEN_CORE          IFROCO         OFF         [  0]    ***   
       GAMMA_ABCD           IGABCD         STORE       [  0]    ***   
       GAMMA_ABCI           IGABCI         STORE       [  0]    ***   
       GENBAS_1             IGNBS1              0               ***   
       GENBAS_2             IGNBS2              0               ***   
       GENBAS_3             IGNBS3              0               ***   
       GENBAS_4             IGNBS4              0               ***   
       GEO_CONV             ICONTL              5              H/bohr 
       GEO_MAXCYC           IOPTCY             50               ***   
       GEO_MAXSTEP          IMXSTP            300            millibohr
       GEO_METHOD           INR            SINGLE_POINT[  5]    ***   
       GIAO                 IGIAO          OFF         [  1]    ***   
       GIMIC                IGIMIC         OFF         [  0]    ***   
       GRID                 IGRID          OFF         [  0]    ***   
       GRID_ALGO            IGALGO         SERIAL      [  0]    ***   
       GUESS                IGUESS         MOREAD      [  0]    ***   
       HBAR                 IHBAR          OFF         [  0]    ***   
       HESS_TYPE            IHESTP         SCF         [  0]    ***   
       HF2_FILE             IHF2Fl         USE         [  1]    ***   
       HFSTABILITY          ISTABL         OFF         [  0]    ***   
       INCORE               INCORE         OFF         [  0]    ***   
       INPUT_MRCC           IMRCC          ON          [  1]    ***   
       INTEGRALS            INTTYP         VMOL        [  1]    ***   
       JODA_PRINT           IJPRNT              0               ***   
       KEYWORD_OUT          IDMPKW         NO          [  0]    ***   
       LINDEP_TOL           ILINDP              8               ***   
       LINEQ_CONV           IZTACN          10D-  7           cycles  
       LINEQ_EXPOR          ILMAXD              5               ***   
       LINEQ_MAXCY          ILMAXC            100               ***   
       LINEQ_TYPE           ILTYPE         DIIS        [  1]    ***   
       LOCK_ORBOCC          ILOCOC         OFF         [  0]    ***   
       MEMORY_SIZE          IMEMSZ         500000000           words  
       MEM_UNIT             IMEMU          INTEGERWORDS[  0]    ***   
       MRCC                 IMRCCC         OFF         [  0]    ***   
       MULTIPLICTY          IMULTP              1               ***   
       NACOUPLING           IVCOUP         OFF         [  0]    ***   
       NEGEVAL              IDIE           ABORT       [  0]    ***   
       NEWNORM              INEWNO         OFF         [  0]    ***   
       NON-HF               INONHF         OFF         [  0]    ***   
       NTOP_TAMP            ITOPT2             15               ***   
       NUC_MODEL            INUCMO         POINT       [  0]    ***   
       OCCUPATION           IOCCU   ESTIMATED BY SCF 
       OPEN-SHELL           IOPEN          SPIN-ORBITAL[  0]    ***   
       OPTVIB               IOPTVB         OFF         [  0]    ***   
       ORBITALS             IORBTP         STANDARD    [  0]    ***   
       PARALLEL             IPARAL         ON          [  1]    ***   
       PARA_INT             IPINTS         ON          [  1]    ***   
       PARA_PRINT           IPPRIN              0               ***   
       PERT_ORB             IPTORB         STANDARD    [  0]    ***   
       POINTS               IGRDFD              0               ***   
       PRINT                IPRNT               0               ***   
       PROPS                IPROPS         OFF         [  0]    ***   
       PROP_INTEGR          IINTYP         INTERNAL    [  0]    ***   
       PSI                  IPSI           OFF         [  0]    ***   
       QC_ALG               IQCALG         FLM         [  0]    ***   
       QC_LINALG            IQCLIN         TRIDIAG     [  2]    ***   
       QC_MAXCYC            IQCMAX          10D-100           cycles  
       QC_MAXSCFCY          IQCMSC          10D- 15           cycles  
       QC_RTRUST            IQCRTR          10D-  0           x 10-3  
       QC_SKIPSCF           IQCSKI         OFF         [  0]    ***   
       QC_START             IQCSTA          10D-  1             ***   
       QRHFGUESS            IQGUES         OFF         [  0]    ***   
       QUARTIC              IQUART         OFF         [  0]    ***   
       RAMAN_INT            IRAMIN         OFF         [  0]    ***   
       RAMAN_ORB            IRAMRE         UNRELAXED   [  0]    ***   
       RDO                  IRDOFM         ON          [  1]    ***   
       REDUCE_REPR          REDREP         Ir          [  0]    ***   
       REFERENCE            IREFNC         RHF         [  0]    ***   
       RELATIVIST           IRELAT         OFF         [  0]    ***   
       RELAX_DENS           IRDENS         ON          [  1]    ***   
       RESET_FLAGS          IRESET         OFF         [  0]    ***   
       RESTART_CC           ICCRES         OFF         [  0]    ***   
       ROT_EVEC             ROTVEC              0               ***   
       SAVE_INTS            ISVINT         OFF         [  0]    ***   
       SCALE_ON             ISTCRT              0               ***   
       SCF_CONV             ISCFCV          10D- 10             ***   
       SCF_DAMPING          IDAMP               0             x 10-3  
       SCF_EXPORDE          IRPPOR              6               ***   
       SCF_EXPSTAR          IRPPLS              8               ***   
       SCF_EXTRAPO          IRPP           ON          [  1]    ***   
       SCF_MAXCYC           ISCFCY            150              cycles 
       SCF_NOSTOP           ISCFST         OFF         [  0]    ***   
       SCF_PRINT            ISCFPR              0               ***   
       SCF_PROG             ISCFPR         SCF         [  0]    ***   
       SD_FIELD             IFINSD              0             x 10-6  
       SOPERT               IPERSO         OFF         [  0]    ***   
       SPHERICAL            IDFGHI         ON          [  1]    ***   
       SPINORBIT            ISOCAL         OFF         [  0]    ***   
       SPINROTATIO          ISRCON         OFF         [  0]    ***   
       SPIN_FLIP            ISPFLP         OFF         [  0]    ***   
       SPIN_ORBIT           ISPORB         OFF         [  0]    ***   
       SPIN_SCAL            ISCSMP         OFF         [  0]    ***   
       STEEPSCALE           ISTPSC              1000          x 10-3  
       SUBGROUP             ISUBGP         DEFAULT     [  0]    ***   
       SUBGRPAXIS           ISBXYZ         X           [  0]    ***   
       SYMMETRY             ISYM           ON          [  0]    ***   
       SYM_CHECK            ISYMCK         OVERRIDE    [  1]    ***   
       T3_EXTRAPOL          IT3EXT         OFF         [  0]    ***   
       T4_EXTRAPOL          IT4EXP         OFF         [  0]    ***   
       TAMP_SUM             IEVERY              5               ***   
       TESTSUITE            ITESTS         OFF         [  0]    ***   
       THERMOCH             ITHERM         OFF         [  0]    ***   
       TOL_CHOLESK          ITOLCH          10D-  4             ***   
       TRANGRAD             IRESRM         OFF         [  0]    ***   
       TRANS_INV            ITRAIN         IGNORE      [  1]    ***   
       TREAT_PERT           ITREAT         SIMULTANEOUS[  0]    ***   
       TRIP_ALGORI          ITRALG         NORMAL      [  0]    ***   
       UIJ_THRESHO          IUIJTH              1               ***   
       UNITS                IUNITS         ANGSTROM    [  0]    ***   
       UNOS                 IUNOS          OFF         [  0]    ***   
       UPDATE_HESS          IHUPDT         ON          [  1]    ***   
       VIBPHASE             ISETPH         STANDARD    [  0]    ***   
       VIBRATION            IVIB           ANALYTIC    [  1]    ***   
       VIB_ALGORIT          IGEALG         STANDARD    [  0]    ***   
       VNATORB              IVNORB         OFF         [  0]    ***   
       VTRAN                IVTRAN         FULL/PARTIAL[  0]    ***   
       XFIELD               IXEFLD              0             x 10-6  
       XFORM_TOL            IXFTOL          10D- 11             ***   
       YFIELD               IYEFLD              0             x 10-6  
       ZFIELD               IZEFLD            ***             x 10-6  
       ZSCALE_EXP           IZEXPS         OFF         [  0]    ***   
    -------------------------------------------------------------------
   2 entries found in Z-matrix 
   Job Title : Carbon Monoxide DBOC calculation                                                
   There are  1 unique internal coordinates.
   Of these,  0 will be optimized.
   User supplied Z-matrix: 
--------------------------------------------------------------------------------
       SYMBOL    BOND      LENGTH    ANGLE     ANGLE     DIHED     ANGLE
                  TO      (ANGST)    WRT      (DEG)      WRT      (DEG)
--------------------------------------------------------------------------------
        C    
        O          1         r    
                  *Initial values for internal coordinates* 
                      Name             Value
                        r               1.6448275862
--------------------------------------------------------------------------------
  read isotopes from ZMAT file 
   Rotational constants (in cm-1): 
          0.9088072184             0.9088072184
   Rotational constants (in MHz): 
      27245.3588007663         27245.3588007663
********************************************************************************
   The full molecular point group is CXv .
   The largest Abelian subgroup of the full molecular point group is C2v .
   The computational point group is C2v .
********************************************************************************
--------------------------------------------------------------------------------
   Analysis of internal coordinates specified by Z-matrix 
--------------------------------------------------------------------------------
   *The nuclear repulsion energy is   15.442652477987419 a.u.
   *There is   1 degree of freedom within the tot. symm. molecular subspace.
   *Z-matrix requests optimization of   0 coordinates.
   *The optimization is constrained.
   *The following   1 parameters can have non-zero 
    derivatives within the totally symmetric subspace:
             r    [ 1]
   *The following   0 parameters are to be optimized:

   *The following coordinates must be varied in an  unconstrained optimization.
             r    [ 1]
--------------------------------------------------------------------------------


 ----------------------------------------------------------------
         Coordinates used in calculation (QCOMP) 
 ----------------------------------------------------------------
 Z-matrix   Atomic            Coordinates (in bohr)
  Symbol    Number           X              Y              Z
 ----------------------------------------------------------------
     C         6        -0.00000000     0.00000000     1.77591477
     O         8         0.00000000     0.00000000    -1.33235955
 ----------------------------------------------------------------
 
   Interatomic distance matrix (Angstroms) 
 
                 C             O    
                [ 1]        [ 2]
  C    [ 1]     0.00000
  O    [ 2]     1.64483     0.00000
 rotcon2
   Rotational constants (in cm-1): 
          0.9088072184             0.0000000000
   Rotational constants (in MHz): 
      27245.3588007663             0.0000000000
  ECPDATA file not present.   Using default ECPDATA. 
  @GTFLGS-I, Hessian will be transformed to curvilinear coordinates.
  There are  218 basis functions.
 @CHECKOUT-I, Total execution time (CPU/WALL):        0.12/       0.15 seconds.
--executable xjoda finished with status     0 in        0.17 seconds (walltime).
 --invoking executable--
/nfs/workspaces/public/cfour_mpi/bin/xvmol
 SERIAL VERSION OF MOLECULE STARTED
********************************************************************************
                    INPUT FROM MOL FILE
********************************************************************************
INTGRL        1    0    1    0    0    0    0    0    0                         
         *** CFOUR Program System (Release V0.1) ***                            
Carbon Monoxide DBOC calculation                                                
    2    2 X  Y       0.10E-08              0    0                              
   9999.00      3.00                                                            
          6.00000000    1    5    1    1    1    1    1                         
C #1  -0.000000000000000   0.000000000000000   1.775914765858284                
   16    9                                                                      
   33980.0000000000       9.100000000000000E-005 -1.900000000000000E-005        
  0.000000000000000E+000  0.000000000000000E+000  0.000000000000000E+000        
  0.000000000000000E+000  0.000000000000000E+000  0.000000000000000E+000        
  0.000000000000000E+000                                                        
   5089.00000000000       7.040000000000000E-004 -1.510000000000000E-004        
  0.000000000000000E+000  0.000000000000000E+000  0.000000000000000E+000        
  0.000000000000000E+000  0.000000000000000E+000  0.000000000000000E+000        
  0.000000000000000E+000                                                        
   1157.00000000000       3.693000000000000E-003 -7.850000000000000E-004        
  0.000000000000000E+000  0.000000000000000E+000  0.000000000000000E+000        
  0.000000000000000E+000  0.000000000000000E+000  0.000000000000000E+000        
  0.000000000000000E+000                                                        
   326.600000000000       1.536000000000000E-002 -3.324000000000000E-003        
  0.000000000000000E+000  0.000000000000000E+000  0.000000000000000E+000        
  0.000000000000000E+000  0.000000000000000E+000  0.000000000000000E+000        
  0.000000000000000E+000                                                        
   106.100000000000       5.292900000000000E-002 -1.151200000000000E-002        
  0.000000000000000E+000  0.000000000000000E+000  0.000000000000000E+000        
  0.000000000000000E+000  0.000000000000000E+000  0.000000000000000E+000        
  0.000000000000000E+000                                                        
   38.1100000000000       0.147043000000000      -3.416000000000000E-002        
  0.000000000000000E+000  0.000000000000000E+000  0.000000000000000E+000        
  0.000000000000000E+000  0.000000000000000E+000  0.000000000000000E+000        
  0.000000000000000E+000                                                        
   14.7500000000000       0.305631000000000      -7.717300000000001E-002        
  0.000000000000000E+000  0.000000000000000E+000  0.000000000000000E+000        
  0.000000000000000E+000  0.000000000000000E+000  0.000000000000000E+000        
  0.000000000000000E+000                                                        
   6.03500000000000       0.399345000000000      -0.141493000000000             
  0.000000000000000E+000  0.000000000000000E+000  0.000000000000000E+000        
  0.000000000000000E+000  0.000000000000000E+000  0.000000000000000E+000        
  0.000000000000000E+000                                                        
   2.53000000000000       0.217051000000000      -0.118019000000000             
  0.000000000000000E+000  0.000000000000000E+000  0.000000000000000E+000        
  0.000000000000000E+000  0.000000000000000E+000  0.000000000000000E+000        
  0.000000000000000E+000                                                        
  0.735500000000000       1.589400000000000E-002  0.273806000000000             
   1.00000000000000       0.000000000000000E+000  0.000000000000000E+000        
  0.000000000000000E+000  0.000000000000000E+000  0.000000000000000E+000        
  0.000000000000000E+000                                                        
  0.290500000000000      -3.084000000000000E-003  0.586510000000000             
  0.000000000000000E+000   1.00000000000000       0.000000000000000E+000        
  0.000000000000000E+000  0.000000000000000E+000  0.000000000000000E+000        
  0.000000000000000E+000                                                        
  0.111100000000000       9.779999999999999E-004  0.285430000000000             
  0.000000000000000E+000  0.000000000000000E+000   1.00000000000000             
  0.000000000000000E+000  0.000000000000000E+000  0.000000000000000E+000        
  0.000000000000000E+000                                                        
   7.21600000000000       0.000000000000000E+000  0.000000000000000E+000        
  0.000000000000000E+000  0.000000000000000E+000  0.000000000000000E+000        
   1.00000000000000       0.000000000000000E+000  0.000000000000000E+000        
  0.000000000000000E+000                                                        
   19.5700000000000       0.000000000000000E+000  0.000000000000000E+000        
  0.000000000000000E+000  0.000000000000000E+000  0.000000000000000E+000        
  0.000000000000000E+000   1.00000000000000       0.000000000000000E+000        
  0.000000000000000E+000                                                        
   53.0730000000000       0.000000000000000E+000  0.000000000000000E+000        
  0.000000000000000E+000  0.000000000000000E+000  0.000000000000000E+000        
  0.000000000000000E+000  0.000000000000000E+000   1.00000000000000             
  0.000000000000000E+000                                                        
  4.145000000000000E-002  0.000000000000000E+000  0.000000000000000E+000        
  0.000000000000000E+000  0.000000000000000E+000  0.000000000000000E+000        
  0.000000000000000E+000  0.000000000000000E+000  0.000000000000000E+000        
   1.00000000000000                                                             
   10    8                                                                      
   34.5100000000000       5.378000000000000E-003  0.000000000000000E+000        
  0.000000000000000E+000  0.000000000000000E+000  0.000000000000000E+000        
  0.000000000000000E+000  0.000000000000000E+000  0.000000000000000E+000        
   7.91500000000000       3.613200000000000E-002  0.000000000000000E+000        
  0.000000000000000E+000  0.000000000000000E+000  0.000000000000000E+000        
  0.000000000000000E+000  0.000000000000000E+000  0.000000000000000E+000        
   2.36800000000000       0.142493000000000       0.000000000000000E+000        
  0.000000000000000E+000  0.000000000000000E+000  0.000000000000000E+000        
  0.000000000000000E+000  0.000000000000000E+000  0.000000000000000E+000        
  0.813200000000000       0.342150000000000        1.00000000000000             
  0.000000000000000E+000  0.000000000000000E+000  0.000000000000000E+000        
  0.000000000000000E+000  0.000000000000000E+000  0.000000000000000E+000        
  0.289000000000000       0.463864000000000       0.000000000000000E+000        
   1.00000000000000       0.000000000000000E+000  0.000000000000000E+000        
  0.000000000000000E+000  0.000000000000000E+000  0.000000000000000E+000        
  0.100700000000000       0.250028000000000       0.000000000000000E+000        
  0.000000000000000E+000   1.00000000000000       0.000000000000000E+000        
  0.000000000000000E+000  0.000000000000000E+000  0.000000000000000E+000        
   8.18200000000000       0.000000000000000E+000  0.000000000000000E+000        
  0.000000000000000E+000  0.000000000000000E+000   1.00000000000000             
  0.000000000000000E+000  0.000000000000000E+000  0.000000000000000E+000        
   24.1860000000000       0.000000000000000E+000  0.000000000000000E+000        
  0.000000000000000E+000  0.000000000000000E+000  0.000000000000000E+000        
   1.00000000000000       0.000000000000000E+000  0.000000000000000E+000        
   71.4940000000000       0.000000000000000E+000  0.000000000000000E+000        
  0.000000000000000E+000  0.000000000000000E+000  0.000000000000000E+000        
  0.000000000000000E+000   1.00000000000000       0.000000000000000E+000        
  3.218000000000000E-002  0.000000000000000E+000  0.000000000000000E+000        
  0.000000000000000E+000  0.000000000000000E+000  0.000000000000000E+000        
  0.000000000000000E+000  0.000000000000000E+000   1.00000000000000             
    6    6                                                                      
   1.84800000000000        1.00000000000000       0.000000000000000E+000        
  0.000000000000000E+000  0.000000000000000E+000  0.000000000000000E+000        
  0.000000000000000E+000                                                        
  0.649000000000000       0.000000000000000E+000   1.00000000000000             
  0.000000000000000E+000  0.000000000000000E+000  0.000000000000000E+000        
  0.000000000000000E+000                                                        
  0.228000000000000       0.000000000000000E+000  0.000000000000000E+000        
   1.00000000000000       0.000000000000000E+000  0.000000000000000E+000        
  0.000000000000000E+000                                                        
   8.65600000000000       0.000000000000000E+000  0.000000000000000E+000        
  0.000000000000000E+000   1.00000000000000       0.000000000000000E+000        
  0.000000000000000E+000                                                        
   33.2130000000000       0.000000000000000E+000  0.000000000000000E+000        
  0.000000000000000E+000  0.000000000000000E+000   1.00000000000000             
  0.000000000000000E+000                                                        
  7.660000000000000E-002  0.000000000000000E+000  0.000000000000000E+000        
  0.000000000000000E+000  0.000000000000000E+000  0.000000000000000E+000        
   1.00000000000000                                                             
    4    4                                                                      
   1.41900000000000        1.00000000000000       0.000000000000000E+000        
  0.000000000000000E+000  0.000000000000000E+000                                
  0.485000000000000       0.000000000000000E+000   1.00000000000000             
  0.000000000000000E+000  0.000000000000000E+000                                
   24.6940000000000       0.000000000000000E+000  0.000000000000000E+000        
   1.00000000000000       0.000000000000000E+000                                
  0.187000000000000       0.000000000000000E+000  0.000000000000000E+000        
  0.000000000000000E+000   1.00000000000000                                     
    2    2                                                                      
   1.01100000000000        1.00000000000000       0.000000000000000E+000        
  0.424000000000000       0.000000000000000E+000   1.00000000000000             
          8.00000000    1    5    1    1    1    1    1                         
O #2   0.000000000000000   0.000000000000000  -1.332359545722653                
   16    9                                                                      
   61420.0000000000       9.000000000000001E-005 -2.000000000000000E-005        
  0.000000000000000E+000  0.000000000000000E+000  0.000000000000000E+000        
  0.000000000000000E+000  0.000000000000000E+000  0.000000000000000E+000        
  0.000000000000000E+000                                                        
   9199.00000000000       6.980000000000001E-004 -1.590000000000000E-004        
  0.000000000000000E+000  0.000000000000000E+000  0.000000000000000E+000        
  0.000000000000000E+000  0.000000000000000E+000  0.000000000000000E+000        
  0.000000000000000E+000                                                        
   2091.00000000000       3.664000000000000E-003 -8.290000000000000E-004        
  0.000000000000000E+000  0.000000000000000E+000  0.000000000000000E+000        
  0.000000000000000E+000  0.000000000000000E+000  0.000000000000000E+000        
  0.000000000000000E+000                                                        
   590.900000000000       1.521800000000000E-002 -3.508000000000000E-003        
  0.000000000000000E+000  0.000000000000000E+000  0.000000000000000E+000        
  0.000000000000000E+000  0.000000000000000E+000  0.000000000000000E+000        
  0.000000000000000E+000                                                        
   192.300000000000       5.242300000000000E-002 -1.215600000000000E-002        
  0.000000000000000E+000  0.000000000000000E+000  0.000000000000000E+000        
  0.000000000000000E+000  0.000000000000000E+000  0.000000000000000E+000        
  0.000000000000000E+000                                                        
   69.3200000000000       0.145921000000000      -3.626100000000000E-002        
  0.000000000000000E+000  0.000000000000000E+000  0.000000000000000E+000        
  0.000000000000000E+000  0.000000000000000E+000  0.000000000000000E+000        
  0.000000000000000E+000                                                        
   26.9700000000000       0.305258000000000      -8.299200000000000E-002        
  0.000000000000000E+000  0.000000000000000E+000  0.000000000000000E+000        
  0.000000000000000E+000  0.000000000000000E+000  0.000000000000000E+000        
  0.000000000000000E+000                                                        
   11.1000000000000       0.398508000000000      -0.152090000000000             
  0.000000000000000E+000  0.000000000000000E+000  0.000000000000000E+000        
  0.000000000000000E+000  0.000000000000000E+000  0.000000000000000E+000        
  0.000000000000000E+000                                                        
   4.68200000000000       0.216980000000000      -0.115331000000000             
  0.000000000000000E+000  0.000000000000000E+000  0.000000000000000E+000        
  0.000000000000000E+000  0.000000000000000E+000  0.000000000000000E+000        
  0.000000000000000E+000                                                        
   1.42800000000000       1.759400000000000E-002  0.288979000000000             
   1.00000000000000       0.000000000000000E+000  0.000000000000000E+000        
  0.000000000000000E+000  0.000000000000000E+000  0.000000000000000E+000        
  0.000000000000000E+000                                                        
  0.554700000000000      -2.502000000000000E-003  0.586128000000000             
  0.000000000000000E+000   1.00000000000000       0.000000000000000E+000        
  0.000000000000000E+000  0.000000000000000E+000  0.000000000000000E+000        
  0.000000000000000E+000                                                        
  0.206700000000000       9.540000000000000E-004  0.277624000000000             
  0.000000000000000E+000  0.000000000000000E+000   1.00000000000000             
  0.000000000000000E+000  0.000000000000000E+000  0.000000000000000E+000        
  0.000000000000000E+000                                                        
   12.9740000000000       0.000000000000000E+000  0.000000000000000E+000        
  0.000000000000000E+000  0.000000000000000E+000  0.000000000000000E+000        
   1.00000000000000       0.000000000000000E+000  0.000000000000000E+000        
  0.000000000000000E+000                                                        
   34.9000000000000       0.000000000000000E+000  0.000000000000000E+000        
  0.000000000000000E+000  0.000000000000000E+000  0.000000000000000E+000        
  0.000000000000000E+000   1.00000000000000       0.000000000000000E+000        
  0.000000000000000E+000                                                        
   93.8810000000000       0.000000000000000E+000  0.000000000000000E+000        
  0.000000000000000E+000  0.000000000000000E+000  0.000000000000000E+000        
  0.000000000000000E+000  0.000000000000000E+000   1.00000000000000             
  0.000000000000000E+000                                                        
  6.959000000000000E-002  0.000000000000000E+000  0.000000000000000E+000        
  0.000000000000000E+000  0.000000000000000E+000  0.000000000000000E+000        
  0.000000000000000E+000  0.000000000000000E+000  0.000000000000000E+000        
   1.00000000000000                                                             
   10    8                                                                      
   63.4200000000000       6.044000000000000E-003  0.000000000000000E+000        
  0.000000000000000E+000  0.000000000000000E+000  0.000000000000000E+000        
  0.000000000000000E+000  0.000000000000000E+000  0.000000000000000E+000        
   14.6600000000000       4.179900000000000E-002  0.000000000000000E+000        
  0.000000000000000E+000  0.000000000000000E+000  0.000000000000000E+000        
  0.000000000000000E+000  0.000000000000000E+000  0.000000000000000E+000        
   4.45900000000000       0.161143000000000       0.000000000000000E+000        
  0.000000000000000E+000  0.000000000000000E+000  0.000000000000000E+000        
  0.000000000000000E+000  0.000000000000000E+000  0.000000000000000E+000        
   1.53100000000000       0.356731000000000        1.00000000000000             
  0.000000000000000E+000  0.000000000000000E+000  0.000000000000000E+000        
  0.000000000000000E+000  0.000000000000000E+000  0.000000000000000E+000        
  0.530200000000000       0.448309000000000       0.000000000000000E+000        
   1.00000000000000       0.000000000000000E+000  0.000000000000000E+000        
  0.000000000000000E+000  0.000000000000000E+000  0.000000000000000E+000        
  0.175000000000000       0.244940000000000       0.000000000000000E+000        
  0.000000000000000E+000   1.00000000000000       0.000000000000000E+000        
  0.000000000000000E+000  0.000000000000000E+000  0.000000000000000E+000        
   14.4750000000000       0.000000000000000E+000  0.000000000000000E+000        
  0.000000000000000E+000  0.000000000000000E+000   1.00000000000000             
  0.000000000000000E+000  0.000000000000000E+000  0.000000000000000E+000        
   42.7300000000000       0.000000000000000E+000  0.000000000000000E+000        
  0.000000000000000E+000  0.000000000000000E+000  0.000000000000000E+000        
   1.00000000000000       0.000000000000000E+000  0.000000000000000E+000        
   126.140000000000       0.000000000000000E+000  0.000000000000000E+000        
  0.000000000000000E+000  0.000000000000000E+000  0.000000000000000E+000        
  0.000000000000000E+000   1.00000000000000       0.000000000000000E+000        
  5.348000000000000E-002  0.000000000000000E+000  0.000000000000000E+000        
  0.000000000000000E+000  0.000000000000000E+000  0.000000000000000E+000        
  0.000000000000000E+000  0.000000000000000E+000   1.00000000000000             
    6    6                                                                      
   3.77500000000000        1.00000000000000       0.000000000000000E+000        
  0.000000000000000E+000  0.000000000000000E+000  0.000000000000000E+000        
  0.000000000000000E+000                                                        
   1.30000000000000       0.000000000000000E+000   1.00000000000000             
  0.000000000000000E+000  0.000000000000000E+000  0.000000000000000E+000        
  0.000000000000000E+000                                                        
  0.444000000000000       0.000000000000000E+000  0.000000000000000E+000        
   1.00000000000000       0.000000000000000E+000  0.000000000000000E+000        
  0.000000000000000E+000                                                        
   14.9270000000000       0.000000000000000E+000  0.000000000000000E+000        
  0.000000000000000E+000   1.00000000000000       0.000000000000000E+000        
  0.000000000000000E+000                                                        
   57.5440000000000       0.000000000000000E+000  0.000000000000000E+000        
  0.000000000000000E+000  0.000000000000000E+000   1.00000000000000             
  0.000000000000000E+000                                                        
  0.154000000000000       0.000000000000000E+000  0.000000000000000E+000        
  0.000000000000000E+000  0.000000000000000E+000  0.000000000000000E+000        
   1.00000000000000                                                             
    4    4                                                                      
   2.66600000000000        1.00000000000000       0.000000000000000E+000        
  0.000000000000000E+000  0.000000000000000E+000                                
  0.859000000000000       0.000000000000000E+000   1.00000000000000             
  0.000000000000000E+000  0.000000000000000E+000                                
   26.4830000000000       0.000000000000000E+000  0.000000000000000E+000        
   1.00000000000000       0.000000000000000E+000                                
  0.324000000000000       0.000000000000000E+000  0.000000000000000E+000        
  0.000000000000000E+000   1.00000000000000                                     
    2    2                                                                      
   1.84600000000000        1.00000000000000       0.000000000000000E+000        
  0.714000000000000       0.000000000000000E+000   1.00000000000000             
FINISH                                                                          
 
********************************************************************************
 ONE- AND TWO-ELECTRON INTEGRALS OVER SYMMETRY-ADAPTED AOS ARE CALCULATED.

  SPHERICAL HARMONICS ARE USED.
  
  INTEGRALS LESS THAN  0.10E-13 ARE NEGLECTED.

  NUCLEAR REPULSION ENERGY :   15.4426524780 A.U.
  @MOLECU-I, ONE ELECTRON INTEGRALS (CPU/WALL):        0.07/       0.07 SECONDS.
  @TWOEL-I,    4413561 INTEGRALS OF SYMMETRY TYPE  I I I I
  @TWOEL-I,   19047887 INTEGRALS OF SYMMETRY TYPE  I J I J
  @TWOEL-I,   10029524 INTEGRALS OF SYMMETRY TYPE  I I J J
  @TWOEL-I,   14072828 INTEGRALS OF SYMMETRY TYPE  I J K L
  @TWOEL-I, TOTAL NUMBER OF 2-E INTEGRALS   47563800.
  @MOLECU-I, TWO ELECTRON INTEGRALS (CPU/WALL):      146.86/      20.30 SECONDS.
 @CHECKOUT-I, Total execution time (CPU/WALL):      146.95/      20.40 seconds.

Running with 14 threads/proc

--executable xvmol finished with status     0 in       20.44 seconds (walltime).
 --invoking executable--
/nfs/workspaces/public/cfour_mpi/bin/xvmol2ja
 @GETMEM-I,  Allocated    3814 MB of main memory.
 @CHECKOUT-I, Total execution time (CPU/WALL):        0.10/       0.03 seconds.
--executable xvmol2ja finished with status     0 in        0.05 seconds (walltime).
 --invoking executable--
/nfs/workspaces/public/cfour_mpi/bin/xvprop
 @GETMEM-I,  Allocated    3814 MB of main memory.
   Property integrals will be calculated.
    --------------------------------------------------------------
                                   Property evaluated at 
    Property type                X             Y             Z
    --------------------------------------------------------------
    Dipole moment               ----          ----          ----  
    Quadrupole moment           ----          ----          ----  
    Octopole moment             ----          ----          ----  
    Relativisitic corr.         ----          ----          ----  
    Second moment            0.0000000     0.0000000     0.0000000
    Electron density         0.0000000     0.0000000     1.7759148
    Electron density         0.0000000     0.0000000    -1.3323595
    Field gradient           0.0000000     0.0000000     1.7759148
    Field gradient           0.0000000     0.0000000    -1.3323595
    Potential                0.0000000     0.0000000     1.7759148
    Potential                0.0000000     0.0000000    -1.3323595
    --------------------------------------------------------------
 @CHECKOUT-I, Total execution time (CPU/WALL):        1.30/       1.30 seconds.
--executable xvprop finished with status     0 in        1.32 seconds (walltime).
 --invoking executable--
/nfs/workspaces/public/cfour_mpi/bin/xvscf
  There are  218 functions in the AO basis.

  There are 4 irreducible representations.

       Irrep        # of functions
         1                 86
         2                 52
         3                 52
         4                 28


  Parameters for SCF calculation: 
        SCF reference function:  RHF  
  Maximum number of iterations:  150
     Full symmetry point group: CXv 
     Computational point group: C2v 
        Initial density matrix: MOREAD                 
     SCF convergence tolerance: 10**(-10)
  DIIS convergence acceleration:  ON
          Latest start for DIIS:   8
                     DIIS order:   6

  Memory information:    2523578 words required.
  Fock matrices are constructed from AO integral file.
 @GETMEM-I,  Allocated      19 MB of main memory.
  Initialization and symmetry analysis required      0.002 seconds.

  Adding electric field perturbation to one-electron Hamiltonian.
  Field direction     : Z
  Field strength      : -0.0002000 a.u.

  @INITGES-I, Occupancies from core Hamiltonian:

          Alpha population by irrep:   5    1    1    0
           Beta population by irrep:   5    1    1    0


 total no. of electrons in initial guess :  0.000000000000000E+000
  --------------------------------------------------------------------
  Iteration         Total Energy            Largest Density Difference
  --------------------------------------------------------------------
       0            15.442651800433296              0.0000000000D+00
   current occupation vector 
     5  1  1  0
     5  1  1  0
       1           -93.647346327051949              0.1755556276D+02
   current occupation vector 
     5  1  1  0
     5  1  1  0
       2           -97.895156452258902              0.1755555108D+02
   current occupation vector 
     5  1  1  0
     5  1  1  0
       3          -100.167755825869477              0.6816551432D+01
   current occupation vector 
     5  1  1  0
     5  1  1  0
       4           -94.937072086379501              0.6813375351D+01
   current occupation vector 
     5  1  1  0
     5  1  1  0
       5          -100.121443500022849              0.7010490176D+01
   current occupation vector 
     5  1  1  0
     5  1  1  0
       6           -94.782538498239134              0.7010768107D+01
   current occupation vector 
     5  1  1  0
     5  1  1  0
       7          -100.114986545734041              0.7020592270D+01
   current occupation vector 
     5  1  1  0
     5  1  1  0
       8           -94.778057085071651              0.7020607659D+01
   current occupation vector 
     5  1  1  0
     5  1  1  0
       9          -107.359635612990530              0.5944154090D+01
   current occupation vector 
     5  1  1  0
     5  1  1  0
      10          -110.612024071242232              0.1323196030D+01
   current occupation vector 
     5  1  1  0
     5  1  1  0
      11          -112.360152760968091              0.1028323279D+01
   current occupation vector 
     5  1  1  0
     5  1  1  0
      12          -112.478103520254393              0.5084685308D+00
   current occupation vector 
     5  1  1  0
     5  1  1  0
      13          -112.500181885299924              0.1279100339D+00
   current occupation vector 
     5  1  1  0
     5  1  1  0
      14          -112.506807843234739              0.9040357445D-01
   current occupation vector 
     5  1  1  0
     5  1  1  0
      15          -112.507335068409262              0.2801580772D-01
   current occupation vector 
     5  1  1  0
     5  1  1  0
      16          -112.507836155179220              0.4324828743D-01
   current occupation vector 
     5  1  1  0
     5  1  1  0
      17          -112.508047414706112              0.3204522130D-01
   current occupation vector 
     5  1  1  0
     5  1  1  0
      18          -112.508093286002250              0.1960860113D-01
   current occupation vector 
     5  1  1  0
     5  1  1  0
      19          -112.508093704148266              0.1661684239D-02
   current occupation vector 
     5  1  1  0
     5  1  1  0
      20          -112.508093708028980              0.1427294681D-03
   current occupation vector 
     5  1  1  0
     5  1  1  0
      21          -112.508093708212087              0.1768172681D-04
   current occupation vector 
     5  1  1  0
     5  1  1  0
      22          -112.508093708212002              0.3447656266D-05
   current occupation vector 
     5  1  1  0
     5  1  1  0
      23          -112.508093708212456              0.9512363388D-06
   current occupation vector 
     5  1  1  0
     5  1  1  0
      24          -112.508093708213067              0.1091828139D-06
   current occupation vector 
     5  1  1  0
     5  1  1  0
      25          -112.508093708211732              0.3387720504D-07
   current occupation vector 
     5  1  1  0
     5  1  1  0
      26          -112.508093708213295              0.3415945304D-08
   current occupation vector 
     5  1  1  0
     5  1  1  0
      27          -112.508093708213437              0.6601510005D-08
   current occupation vector 
     5  1  1  0
     5  1  1  0
      28          -112.508093708213863              0.6849239398D-08
   current occupation vector 
     5  1  1  0
     5  1  1  0
      29          -112.508093708214247              0.1101472025D-08
   current occupation vector 
     5  1  1  0
     5  1  1  0

  SCF has converged.

 Density matrix saved to file den.dat
 total electron number:   14.0000000000000     
     E(SCF)=      -112.508093708212513              0.9881873098D-10

  Eigenvector printing suppressed.

 @PUTMOS-I, Writing converged MOs to NEWMOS. 
 @PUTMOS-I, Symmetry   1 Full Blocks 21 Partial Blocksize   2
 @PUTMOS-I, Symmetry   2 Full Blocks 13 Partial Blocksize   0
 @PUTMOS-I, Symmetry   3 Full Blocks 13 Partial Blocksize   0
 @PUTMOS-I, Symmetry   4 Full Blocks  7 Partial Blocksize   0
 @PUTFOCK-I, Writing converged Fock matrix to NEWFOCK. 
 @PUTFOCK-I, Symmetry   1 Full Blocks 21 Partial Blocksize   2
 @PUTFOCK-I, Symmetry   2 Full Blocks 13 Partial Blocksize   0
 @PUTFOCK-I, Symmetry   3 Full Blocks 13 Partial Blocksize   0
 @PUTFOCK-I, Symmetry   4 Full Blocks  7 Partial Blocksize   0


 
  ORBITAL EIGENVALUES (ALPHA)  (1H = 27.2113834 eV)

       MO #        E(hartree)               E(eV)           FULLSYM    COMPSYM
       ----   --------------------   --------------------   -------   ---------
    1     1         -20.6404625040        -561.6555387500     SG+        A1 (1)
    2     2         -11.5297525368        -313.7405167864     SG+        A1 (1)
    3     3          -1.2619942554         -34.3406095316     SG+        A1 (1)
    4     4          -0.8085648465         -22.0021680414     SG+        A1 (1)
    5     5          -0.5204178386         -14.1612893349     SG+        A1 (1)
    6    87          -0.4900874460         -13.3359573932      PI        B1 (2)
    7   139          -0.4900874460         -13.3359573932      PI        B2 (3)
  +++++++++++++++++++++++++++++++++++++++++++++++++++++++++++++++++++++++++++++
    8   140          -0.0143297592          -0.3899325725      PI        B2 (3)
    9    88          -0.0143297592          -0.3899325725      PI        B1 (2)
   10     6           0.0576978183           1.5700374557     SG+        A1 (1)
   11     7           0.0692875201           1.8854092735     SG+        A1 (1)
   12    89           0.0807356405           2.1969284672      PI        B1 (2)
   13   141           0.0807356405           2.1969284672      PI        B2 (3)
   14     8           0.1570935372           4.2747324715     SG+        A1 (1)
   15   142           0.1815865472           4.9412211565      PI        B2 (3)
   16    90           0.1815865472           4.9412211565      PI        B1 (2)
   17     9           0.1861117055           5.0643569732     SG+        A1 (1)
   18   191           0.2207211617           6.0061281543      DE        A2 (4)
   19    10           0.2207211617           6.0061281543      DE        A1 (1)
   20   143           0.2824302121           7.6853167855      PI        B2 (3)
   21    91           0.2824302121           7.6853167855      PI        B1 (2)
   22    11           0.2985411903           8.1237187910     SG+        A1 (1)
   23    12           0.3047863775           8.2936589737     SG+        A1 (1)
   24   144           0.4064240874          11.0593616639      PI        B2 (3)
   25    92           0.4064240874          11.0593616639      PI        B1 (2)
   26    13           0.4139796709          11.2649595459     SG+        A1 (1)
   27    14           0.5144739928          13.9995490677     SG+        A1 (1)
   28    15           0.5505287995          14.9806502371      DE        A1 (1)
   29   192           0.5505287995          14.9806502371      DE        A2 (4)
   30    93           0.6235071450          16.9664919758      PI        B1 (2)
   31   145           0.6235071450          16.9664919758      PI        B2 (3)
   32    16           0.7015494629          19.0901314077     SG+        A1 (1)
   33   146           0.7288264030          19.8323746836      PH        B2 (3)
   34    94           0.7288264030          19.8323746836      PH        B1 (2)
   35    17           0.7352471182          20.0070912271      DE        A1 (1)
   36   193           0.7352471182          20.0070912271      DE        A2 (4)
   37    95           0.7725408017          21.0219039480      PI        B1 (2)
   38   147           0.7725408017          21.0219039480      PI        B2 (3)
   39    18           0.8143451289          22.1594575211     SG+        A1 (1)
   40    19           0.8546611832          23.2565131320      DE        A1 (1)
   41   194           0.8546611832          23.2565131321      DE        A2 (4)
   42    96           0.8767237688          23.8568666092      PI        B1 (2)
   43   148           0.8767237688          23.8568666093      PI        B2 (3)
   44    20           0.8930314036          24.3006199127     SG+        A1 (1)
   45    97           1.0455259474          28.4502074101      PI        B1 (2)
   46   149           1.0455259474          28.4502074101      PI        B2 (3)
   47    21           1.1385841655          30.9824502618     SG+        A1 (1)
   48    22           1.3478394454          36.6765759104     SG+        A1 (1)
   49   150           1.4198545420          38.6362063153      PH        B2 (3)
   50    98           1.4198545420          38.6362063153      PH        B1 (2)
   51    99           1.4730652362          40.0841429154      PI        B1 (2)
   52   151           1.4730652362          40.0841429154      PI        B2 (3)
   53    23           1.5832926208          43.0835825386     SG+        A1 (1)
   54    24           1.5874634967          43.1970778411      DE        A1 (1)
   55   195           1.5874634967          43.1970778411      DE        A2 (4)
   56   100           1.6398207898          44.6217922178      PI        B1 (2)
   57   152           1.6398207898          44.6217922179      PI        B2 (3)
   58    25           1.6687645066          45.4093907933      DE        A1 (1)
   59   196           1.6687645066          45.4093907934      DE        A2 (4)
   60    26           1.9195313864          52.2331045050     SG+        A1 (1)
   61    27           1.9247591259          52.3753585268     SG+        A1 (1)
   62   101           2.0531669997          55.8695144140      PI        B1 (2)
   63   153           2.0531669997          55.8695144140      PI        B2 (3)
   64   197           2.0628758717          56.1337062516      PI        A2 (4)
   65    28           2.0628758717          56.1337062516      PI        A1 (1)
   66    29           2.1201461140          57.6921087712      DE        A1 (1)
   67   198           2.1201461140          57.6921087712      DE        A2 (4)
   68   102           2.1885943712          59.5546805431      PH        B1 (2)
   69   154           2.1885943712          59.5546805431      PH        B2 (3)
   70   103           2.2033764955          59.9569225947      PH        B1 (2)
   71   155           2.2033764955          59.9569225947      PH        B2 (3)
   72   104           2.2130678777          60.2206385103      PI        B1 (2)
   73   156           2.2130678777          60.2206385103      PI        B2 (3)
   74    30           2.2162693144          60.3077540316     SG+        A1 (1)
   75    31           2.2761446781          61.9370455089      DE        A1 (1)
   76   199           2.2761446781          61.9370455089      DE        A2 (4)
   77    32           2.3766006322          64.6705909904     SG+        A1 (1)
   78   105           2.4925907983          67.8268438708      PI        B1 (2)
   79   157           2.4925907983          67.8268438708      PI        B2 (3)
   80    33           2.6030868941          70.8335955002      DE        A1 (1)
   81   200           2.6030868941          70.8335955002      DE        A2 (4)
   82   106           2.6082018164          70.9727796099      PI        B1 (2)
   83   158           2.6082018164          70.9727796099      PI        B2 (3)
   84    34           2.6525511093          72.1795852230     SG+        A1 (1)
   85    35           2.8559555545          77.7145015675     SG+        A1 (1)
   86   107           3.3348442819          90.7457263344      PI        B1 (2)
   87   159           3.3348442819          90.7457263344      PI        B2 (3)
   88    36           3.7137413759         101.0560404288      PI        A1 (1)
   89   201           3.7137413759         101.0560404288      PI        A2 (4)
   90    37           3.8670971071         105.2290620258     SG+        A1 (1)
   91   108           3.8909677750         105.8786159232      PH        B1 (2)
   92   160           3.8909677750         105.8786159232      PH        B2 (3)
   93    38           4.0846814057         111.1498317977     SG+        A1 (1)
   94   161           4.1440600494         112.7656068358      PH        B2 (3)
   95   109           4.1440600494         112.7656068358      PH        B1 (2)
   96   110           4.1514071466         112.9655315155      PI        B1 (2)
   97   162           4.1514071466         112.9655315155      PI        B2 (3)
   98    39           4.1620555128         113.2552882917      DE        A1 (1)
   99   202           4.1620555128         113.2552882917      DE        A2 (4)
  100    40           4.3024884140         117.0766618087      DE        A1 (1)
  101   203           4.3024884140         117.0766618087      DE        A2 (4)
  102    41           4.3619242980         118.6939944344     SG+        A1 (1)
  103   111           4.5004308092         122.4629482145      PI        B1 (2)
  104   163           4.5004308092         122.4629482145      PI        B2 (3)
  105   204           4.6263661051         125.8898218355      DE        A2 (4)
  106    42           4.6263661051         125.8898218355      DE        A1 (1)
  107    43           4.8368357084         131.6169909043     SG+        A1 (1)
  108   112           5.0968596091         138.6926009579      PI        B1 (2)
  109   164           5.0968596091         138.6926009579      PI        B2 (3)
  110    44           5.1325185954         139.6629313078     SG+        A1 (1)
  111   113           5.3523404138         145.6445870875      PI        B1 (2)
  112   165           5.3523404138         145.6445870876      PI        B2 (3)
  113   205           5.8180652237         158.3176034489      PI        A2 (4)
  114    45           5.8180652237         158.3176034489      PI        A1 (1)
  115   166           5.8886254879         160.2376458496      PH        B2 (3)
  116   114           5.8886254879         160.2376458496      PH        B1 (2)
  117    46           5.9988745802         163.2376761700     SG+        A1 (1)
  118   206           6.0681117544         165.1217154619      DE        A2 (4)
  119    47           6.0681117544         165.1217154619      DE        A1 (1)
  120   167           6.1118925764         166.3130521958      PI        B2 (3)
  121   115           6.1118925764         166.3130521958      PI        B1 (2)
  122    48           6.1628641482         167.7000591792     SG+        A1 (1)
  123    49           6.2733344028         170.7061076308      DE        A1 (1)
  124   207           6.2733344028         170.7061076309      DE        A2 (4)
  125   116           6.3430945989         172.6043790745      PH        B1 (2)
  126   168           6.3430945989         172.6043790745      PH        B2 (3)
  127   208           6.4754279400         176.2053523541      DE        A2 (4)
  128    50           6.4754279400         176.2053523541      DE        A1 (1)
  129   117           6.7401670155         183.4092688394      PI        B1 (2)
  130   169           6.7401670155         183.4092688394      PI        B2 (3)
  131    51           7.0721010536         192.4416532127     SG+        A1 (1)
  132   170           7.1235514307         193.8416891491      PI        B2 (3)
  133   118           7.1235514307         193.8416891491      PI        B1 (2)
  134    52           7.6286249803         207.5854391541     SG+        A1 (1)
  135    53           9.4489272209         257.1183813270     SG+        A1 (1)
  136   171           9.6629918861         262.9433770047      PI        B2 (3)
  137   119           9.6629918861         262.9433770049      PI        B1 (2)
  138    54          10.6657033625         290.2285434273      PI        A1 (1)
  139   209          10.6657033625         290.2285434273      PI        A2 (4)
  140    55          10.6752203761         290.4875145347     SG+        A1 (1)
  141   120          10.7307225761         291.9978061779      PH        B1 (2)
  142   172          10.7307225761         291.9978061779      PH        B2 (3)
  143   210          10.9451069735         297.8315022111      DE        A2 (4)
  144    56          10.9451069735         297.8315022111      DE        A1 (1)
  145   121          10.9829704458         298.8618196711      PI        B1 (2)
  146   173          10.9829704458         298.8618196711      PI        B2 (3)
  147    57          11.1432793374         303.2240463835     SG+        A1 (1)
  148   122          11.9016271039         323.8597382069      PH        B1 (2)
  149   174          11.9016271039         323.8597382069      PH        B2 (3)
  150    58          11.9809363791         326.0178533033      DE        A1 (1)
  151   211          11.9809363791         326.0178533033      DE        A2 (4)
  152   175          12.2703574204         333.8934002212      PI        B2 (3)
  153   123          12.2703574204         333.8934002212      PI        B1 (2)
  154    59          12.5293781237         340.9417118886     SG+        A1 (1)
  155    60          12.7243604729         346.2474513485      DE        A1 (1)
  156   212          12.7243604729         346.2474513485      DE        A2 (4)
  157   124          13.1068699120         356.6560623484      PI        B1 (2)
  158   176          13.1068699120         356.6560623484      PI        B2 (3)
  159    61          13.4045323710         364.7558696450     SG+        A1 (1)
  160    62          17.2764822416         470.1169820785     SG+        A1 (1)
  161   125          18.6886437224         508.5438495552      PI        B1 (2)
  162   177          18.6886437224         508.5438495554      PI        B2 (3)
  163    63          19.5163407968         531.0666319872     SG+        A1 (1)
  164   213          26.2432541537         714.1152504399      DE        A2 (4)
  165    64          26.2432541537         714.1152504399      DE        A1 (1)
  166   178          26.5009166967         721.1266046850      PI        B2 (3)
  167   126          26.5009166967         721.1266046850      PI        B1 (2)
  168    65          26.9453101909         733.2191664355     SG+        A1 (1)
  169   179          33.3789134584         908.2864115930      PI        B2 (3)
  170   127          33.3789134585         908.2864115941      PI        B1 (2)
  171    66          34.2638752401         932.3674459273     SG+        A1 (1)
  172    67          35.5256799984         966.7028989818     SG+        A1 (1)
  173    68          47.0760175339        1281.0035620610      DE        A1 (1)
  174   214          47.0760175339        1281.0035620610      DE        A2 (4)
  175   128          47.2638412014        1286.1145038875      PI        B1 (2)
  176   180          47.2638412014        1286.1145038875      PI        B2 (3)
  177    69          47.4393469218        1290.8902573357     SG+        A1 (1)
  178    70          63.7057781930        1733.5223552057     SG+        A1 (1)
  179   129          66.2787347725        1803.5360631623      PI        B1 (2)
  180   181          66.2787347725        1803.5360631625      PI        B2 (3)
  181    71          66.8934404665        1820.2630554782     SG+        A1 (1)
  182   182          98.4985798604        2680.2826209363      PH        B2 (3)
  183   130          98.4985798604        2680.2826209363      PH        B1 (2)
  184    72          98.5127558708        2680.6683697905      DE        A1 (1)
  185   215          98.5127558708        2680.6683697905      DE        A2 (4)
  186   131          98.5258918254        2681.0258172891      PI        B1 (2)
  187   183          98.5258918254        2681.0258172891      PI        B2 (3)
  188    73          98.5342453733        2681.2531288820     SG+        A1 (1)
  189   216         103.3150771597        2811.3461755921      DE        A2 (4)
  190    74         103.3150771597        2811.3461755937      DE        A1 (1)
  191   132         103.3196753267        2811.4712980771      PH        B1 (2)
  192   184         103.3196753267        2811.4712980771      PH        B2 (3)
  193   133         103.3336607334        2811.8518603433      PI        B1 (2)
  194   185         103.3336607334        2811.8518603433      PI        B2 (3)
  195    75         103.3439816909        2812.1327078737     SG+        A1 (1)
  196    76         114.9486977066        3127.9130846258      DE        A1 (1)
  197   217         114.9486977066        3127.9130846258      DE        A2 (4)
  198   186         115.0744296779        3131.3344255022      PI        B2 (3)
  199   134         115.0744296779        3131.3344255022      PI        B1 (2)
  200    77         115.2692435713        3136.6355810465     SG+        A1 (1)
  201   187         116.6912814593        3175.3311992253      PI        B2 (3)
  202   135         116.6912814593        3175.3311992262      PI        B1 (2)
  203    78         117.4177420492        3195.0991968618     SG+        A1 (1)
  204    79         121.8056607564        3314.5005351326     SG+        A1 (1)
  205   218         198.5594098304        5403.0762285715      DE        A2 (4)
  206    80         198.5594098304        5403.0762285715      DE        A1 (1)
  207   136         198.6617844261        5405.8619829458      PI        B1 (2)
  208   188         198.6617844261        5405.8619829458      PI        B2 (3)
  209    81         198.7525553260        5408.3319847054     SG+        A1 (1)
  210    82         216.2323956341        5883.9826211012     SG+        A1 (1)
  211   137         224.7642402394        6116.1459157637      PI        B1 (2)
  212   189         224.7642402394        6116.1459157639      PI        B2 (3)
  213    83         225.2501432670        6129.3680093444     SG+        A1 (1)
  214   190         395.2325422727       10754.8242399384      PI        B2 (3)
  215   138         395.2325422727       10754.8242399387      PI        B1 (2)
  216    84         395.7908359137       10770.0161822548     SG+        A1 (1)
  217    85         508.5523593644       13838.4132296394     SG+        A1 (1)
  218    86         895.0442442885       24355.3920912972     SG+        A1 (1)


  VSCF finished.

 @CHECKOUT-I, Total execution time (CPU/WALL):       49.28/       8.42 seconds.
--executable xvscf finished with status     0 in        8.47 seconds (walltime).
 --invoking executable--
/nfs/workspaces/public/cfour_mpi/bin/xvtran
 @GETMEM-I,  Allocated    3814 MB of main memory.
  Full RHF integral transformation
  Transformation of IIII integrals :
  1 pass through the AO integral file was required.
     4413561 AO integrals were read.
     8620474 MO integrals were written to HF2.
  Transformation of IIJJ integrals :
  1 pass through the AO integral file was required.
    10029524 AO integrals were read.
    14365834 MO integrals were written to HF2.
  Transformation of IJIJ integrals :
  1 pass through the AO integral file was required.
    19047887 AO integrals were read.
    26716237 MO integrals were written to HF2.
  Transformation of IJKL integrals :
  1 pass through the AO integral file was required.
    14072828 AO integrals were read.
    18100803 MO integrals were written to HF2.
  Summary of active molecular orbitals: 
------------------------------------------------------------------------
 
  Index      Eigenvalue    Symmetry    Index      Eigenvalue    Symmetry
------------------------------------------------------------------------
     1       -20.6404625        1       110         4.1440600        2
     2       -11.5297525        1       111         4.1514071        2
     3        -1.2619943        1       112         4.5004308        2
     4        -0.8085648        1       113         5.0968596        2
     5        -0.5204178        1       114         5.3523404        2
     6        -0.4900874        2       115         5.8886255        2
     7        -0.4900874        3       116         6.1118926        2
     8         0.0576978        1       117         6.3430946        2
     9         0.0692875        1       118         6.7401670        2
    10         0.1570935        1       119         7.1235514        2
    11         0.1861117        1       120         9.6629919        2
    12         0.2207212        1       121        10.7307226        2
    13         0.2985412        1       122        10.9829704        2
    14         0.3047864        1       123        11.9016271        2
    15         0.4139797        1       124        12.2703574        2
    16         0.5144740        1       125        13.1068699        2
    17         0.5505288        1       126        18.6886437        2
    18         0.7015495        1       127        26.5009167        2
    19         0.7352471        1       128        33.3789135        2
    20         0.8143451        1       129        47.2638412        2
    21         0.8546612        1       130        66.2787348        2
    22         0.8930314        1       131        98.4985799        2
    23         1.1385842        1       132        98.5258918        2
    24         1.3478394        1       133       103.3196753        2
    25         1.5832926        1       134       103.3336607        2
    26         1.5874635        1       135       115.0744297        2
    27         1.6687645        1       136       116.6912815        2
    28         1.9195314        1       137       198.6617844        2
    29         1.9247591        1       138       224.7642402        2
    30         2.0628759        1       139       395.2325423        2
    31         2.1201461        1       140        -0.0143298        3
    32         2.2162693        1       141         0.0807356        3
    33         2.2761447        1       142         0.1815865        3
    34         2.3766006        1       143         0.2824302        3
    35         2.6030869        1       144         0.4064241        3
    36         2.6525511        1       145         0.6235071        3
    37         2.8559556        1       146         0.7288264        3
    38         3.7137414        1       147         0.7725408        3
    39         3.8670971        1       148         0.8767238        3
    40         4.0846814        1       149         1.0455259        3
    41         4.1620555        1       150         1.4198545        3
    42         4.3024884        1       151         1.4730652        3
    43         4.3619243        1       152         1.6398208        3
    44         4.6263661        1       153         2.0531670        3
    45         4.8368357        1       154         2.1885944        3
    46         5.1325186        1       155         2.2033765        3
    47         5.8180652        1       156         2.2130679        3
    48         5.9988746        1       157         2.4925908        3
    49         6.0681118        1       158         2.6082018        3
    50         6.1628641        1       159         3.3348443        3
    51         6.2733344        1       160         3.8909678        3
    52         6.4754279        1       161         4.1440600        3
    53         7.0721011        1       162         4.1514071        3
    54         7.6286250        1       163         4.5004308        3
    55         9.4489272        1       164         5.0968596        3
    56        10.6657034        1       165         5.3523404        3
    57        10.6752204        1       166         5.8886255        3
    58        10.9451070        1       167         6.1118926        3
    59        11.1432793        1       168         6.3430946        3
    60        11.9809364        1       169         6.7401670        3
    61        12.5293781        1       170         7.1235514        3
    62        12.7243605        1       171         9.6629919        3
    63        13.4045324        1       172        10.7307226        3
    64        17.2764822        1       173        10.9829704        3
    65        19.5163408        1       174        11.9016271        3
    66        26.2432542        1       175        12.2703574        3
    67        26.9453102        1       176        13.1068699        3
    68        34.2638752        1       177        18.6886437        3
    69        35.5256800        1       178        26.5009167        3
    70        47.0760175        1       179        33.3789135        3
    71        47.4393469        1       180        47.2638412        3
    72        63.7057782        1       181        66.2787348        3
    73        66.8934405        1       182        98.4985799        3
    74        98.5127559        1       183        98.5258918        3
    75        98.5342454        1       184       103.3196753        3
    76       103.3150772        1       185       103.3336607        3
    77       103.3439817        1       186       115.0744297        3
    78       114.9486977        1       187       116.6912815        3
    79       115.2692436        1       188       198.6617844        3
    80       117.4177420        1       189       224.7642402        3
    81       121.8056608        1       190       395.2325423        3
    82       198.5594098        1       191         0.2207212        4
    83       198.7525553        1       192         0.5505288        4
    84       216.2323956        1       193         0.7352471        4
    85       225.2501433        1       194         0.8546612        4
    86       395.7908359        1       195         1.5874635        4
    87       508.5523594        1       196         1.6687645        4
    88       895.0442443        1       197         2.0628759        4
    89        -0.0143298        2       198         2.1201461        4
    90         0.0807356        2       199         2.2761447        4
    91         0.1815865        2       200         2.6030869        4
    92         0.2824302        2       201         3.7137414        4
    93         0.4064241        2       202         4.1620555        4
    94         0.6235071        2       203         4.3024884        4
    95         0.7288264        2       204         4.6263661        4
    96         0.7725408        2       205         5.8180652        4
    97         0.8767238        2       206         6.0681118        4
    98         1.0455259        2       207         6.2733344        4
    99         1.4198545        2       208         6.4754279        4
   100         1.4730652        2       209        10.6657034        4
   101         1.6398208        2       210        10.9451070        4
   102         2.0531670        2       211        11.9809364        4
   103         2.1885944        2       212        12.7243605        4
   104         2.2033765        2       213        26.2432542        4
   105         2.2130679        2       214        47.0760175        4
   106         2.4925908        2       215        98.5127559        4
   107         2.6082018        2       216       103.3150772        4
   108         3.3348443        2       217       114.9486977        4
   109         3.8909678        2       218       198.5594098        4
------------------------------------------------------------------------
  -20.6404625040121       -11.5297525368144       -1.26199425537302     
 -0.808564846482323      -0.520417838621485      -0.490087446022257     
 -0.490087446022228       5.769781832304184E-002  6.928752007108702E-002
  0.157093537240190       0.186111705486908       0.220721161654060     
  0.298541190337486       0.304786377515256       0.413979670944303     
  0.514473992809704       0.550528799543707       0.701549462852688     
  0.735247118199213       0.814345128852276       0.854661183159466     
  0.893031403640696        1.13858416554274        1.34783944539773     
   1.58329262078438        1.58746349666013        1.66876450659757     
   1.91953138644778        1.92475912587293        2.06287587170665     
   2.12014611396669        2.21626931439320        2.27614467807381     
   2.37660063216017        2.60308689414840        2.65255110929036     
   2.85595555452526        3.71374137592650        3.86709710708082     
   4.08468140571358        4.16205551283061        4.30248841404773     
   4.36192429799123        4.62636610513137        4.83683570840722     
   5.13251859542761        5.81806522372306        5.99887458018624     
   6.06811175435801        6.16286414821555        6.27333440279382     
   6.47542793998966        7.07210105358769        7.62862498031347     
[...]
 Convergence information after    16 iterations: 
 Largest element of residual vector :  0.10570770E-05.
 Largest element of DIIS residual   :  0.34564693E-06.
 Convergence information after    17 iterations: 
 Largest element of residual vector :  0.49360907E-06.
 Largest element of DIIS residual   :  0.20831146E-06.
 Convergence information after    18 iterations: 
 Largest element of residual vector :  0.86254303E-07.
 Largest element of DIIS residual   : -0.41393898E-07.
 Perturbed amplitude equations converged in    18 iterations.
  Dominant contributions to perturbed wavefunction:
    7    7  140   45  -0.2297182182 ABAB
    7    7   45  140  -0.2297182182 ABAB
    7    7  140   22  -0.2208221144 ABAB
    7    7   22  140  -0.2208221144 ABAB
    7    7  140   28   0.2142573514 ABAB
    7    7   28  140   0.2142573514 ABAB
    7    0   36    0   0.1977843602 AA  
    7    7  140   39  -0.1845180457 ABAB
    7    7   39  140  -0.1845180457 ABAB
    7    0   45    0   0.1696514507 AA  
    7    7  140   32  -0.1688189956 ABAB
    7    7   32  140  -0.1688189956 ABAB
    7    0   22    0   0.1682279107 AA  
    7    0   39    0   0.1577802170 AA  
    7    7  140   57  -0.1567831219 ABAB
    7    7   57  140  -0.1567831219 ABAB
    7    0   28    0  -0.1527697456 AA  
    7    7  140   36  -0.1444080760 ABAB
    7    7   36  140  -0.1444080760 ABAB
    7    6   45   89  -0.1431975112 ABAB
  norm of converged amps    1.61671278809258     
 Starting iterative solution of the perturbed Lambda equations.
 The DIIS procedure is used to accelerate convergence.
 Convergence criterion is 10**(-7).
 Maximum number of iterations is 100.
 Convergence information after     1 iterations: 
 Largest element of residual vector :  0.80098059E-01.
 Largest element of DIIS residual   :  0.80098059E-01.
 Convergence information after     2 iterations: 
 Largest element of residual vector :  0.17552644E-01.
 Largest element of DIIS residual   :  0.13601048E-01.
 Convergence information after     3 iterations: 
 Largest element of residual vector :  0.69470109E-02.
 Largest element of DIIS residual   :  0.62122417E-02.
 Convergence information after     4 iterations: 
 Largest element of residual vector :  0.35716700E-02.
 Largest element of DIIS residual   :  0.32962197E-02.
 Convergence information after     5 iterations: 
 Largest element of residual vector :  0.32763672E-02.
 Largest element of DIIS residual   :  0.27543851E-02.
 Convergence information after     6 iterations: 
 Largest element of residual vector :  0.18202487E-02.
 Largest element of DIIS residual   :  0.81774075E-03.
 Convergence information after     7 iterations: 
 Largest element of residual vector :  0.87462882E-03.
 Largest element of DIIS residual   :  0.43702158E-03.
 Convergence information after     8 iterations: 
 Largest element of residual vector :  0.32587768E-03.
 Largest element of DIIS residual   : -0.20045514E-03.
 Convergence information after     9 iterations: 
 Largest element of residual vector :  0.14336118E-03.
 Largest element of DIIS residual   : -0.88735500E-04.
 Convergence information after    10 iterations: 
 Largest element of residual vector : -0.78480002E-04.
 Largest element of DIIS residual   : -0.42349499E-04.
 Convergence information after    11 iterations: 
 Largest element of residual vector : -0.21655675E-04.
 Largest element of DIIS residual   : -0.76707398E-05.
 Convergence information after    12 iterations: 
 Largest element of residual vector :  0.91373329E-05.
 Largest element of DIIS residual   :  0.53737112E-05.
 Convergence information after    13 iterations: 
 Largest element of residual vector :  0.23354194E-05.
 Largest element of DIIS residual   :  0.20112011E-05.
 Convergence information after    14 iterations: 
 Largest element of residual vector :  0.25635883E-05.
 Largest element of DIIS residual   :  0.15169715E-05.
 Convergence information after    15 iterations: 
 Largest element of residual vector :  0.13982387E-05.
 Largest element of DIIS residual   :  0.69531942E-06.
 Convergence information after    16 iterations: 
 Largest element of residual vector :  0.64370686E-06.
 Largest element of DIIS residual   :  0.20258471E-06.
 Convergence information after    17 iterations: 
 Largest element of residual vector :  0.30020570E-06.
 Largest element of DIIS residual   :  0.13125983E-06.
 Convergence information after    18 iterations: 
 Largest element of residual vector :  0.60099078E-07.
 Largest element of DIIS residual   : -0.30458073E-07.
 Perturbed Lambda equations converged in    18 iterations.
  Dominant contributions to perturbed wavefunction:
    7    7  140   45  -0.1817559007 ABAB
    7    7   45  140  -0.1817559007 ABAB
    7    7  140   22  -0.1735690177 ABAB
    7    7   22  140  -0.1735690177 ABAB
    7    7  140   28   0.1695252562 ABAB
    7    7   28  140   0.1695252562 ABAB
    7    7  140   39  -0.1438902189 ABAB
    7    7   39  140  -0.1438902189 ABAB
    7    7  140   32  -0.1334610605 ABAB
    7    7   32  140  -0.1334610605 ABAB
    7    7  140   57  -0.1227565081 ABAB
    7    7   57  140  -0.1227565081 ABAB
    7    6   45   89  -0.1126299132 ABAB
    6    7   89   45  -0.1126299132 ABAB
    7    6   22   89  -0.1067874520 ABAB
    6    7   89   22  -0.1067874520 ABAB
    7    7  140   16   0.1064659105 ABAB
    7    7   16  140   0.1064659105 ABAB
    7    7  140   36  -0.1061732128 ABAB
    7    7   36  140  -0.1061732128 ABAB
        The DBOC first-order density matrix is being calculated 
             (Symmetry block 3, perturbation   2)
 term   2.71409038346314     
 final tnorm  0.766765933656975     
  norm contr. I: |<0|L dT/dx|0>|^2   0.000000000000000E+000
  norm contr. II: <0|[nabla(1+L)e-T][nabla e^T]|0>   2.71409038346314     
  total norm contribution   2.71409038346314     
 oo  1.032212545986331E-002
 vv  -20.2993237023959     
 vo  5.047472811094544E-002
  Correlated perturbed 1-el contribution to DBOC  -20.2385268488251       cm**-1
  SUM_I |dc_I/dx|^2 contribution to DBOC   10.2177621420136       cm**-1
 
 
  The total diagonal Born-Oppenheimer correction (DBOC) is:      0.0041412008 a.u.
  The total diagonal Born-Oppenheimer correction (DBOC) is:        908.888519 cm-1
 
 Total CC energy including DBOC  -113.055899477166     
 First-order density matrix is being calculated  (Symmetry block 3, perturbation   2)
 Calculation of the contributions of <pq||rs> to dI(i,j)/dx required   1.3 seconds.
 Calculation of the contributions of <pq||rs> to dI(a,b)/dx required  14.7 seconds.
 Calculation of the contributions of <pq||rs> to dI(i,a)/dx required   8.7 seconds.
 First-order Z-vector equations are solved for 1 perturbation.
 Convergence reached after  19 iterations.
        U*G(pq,rs) contribution is being calculated
             (Symmetry block 3, perturbation   2)

 CCSD contribution to force constants 

        0.0000000000        0.0000000000        0.0000000000
        0.0000000000        0.0000000000        0.0000000000
        0.0000000000        0.0000000000        0.0000000000
        0.0000000000        0.0000000000        0.0000000000
        0.0000000000        0.0000000000        0.0000000000
        0.0000000000        0.0000000000        0.0000000000
        0.0000000000        0.0000000000        0.0000000000
        0.0000000000        0.0000000000        0.0000000000
        0.0000000000        0.0000000000        0.0000000000
        0.0000000000        0.0000000000        0.0000000000
        0.0000000000        0.0000000000        0.0000000000
        0.0000000000       -6.1243134347        6.1243134347

 CCSD contribution to dipole derivatives 

        0.0000000000        0.0000000000        0.0000000000
        0.0000000000        0.0000000000        0.0000000000
        0.0000000000        0.0000000000        0.0000000000
        0.0000000000        0.0000000000       -0.0573314589
        0.0000000000        0.0000000000        0.0000000000
        0.0000000000        0.0000000000        0.0000000000
 @CHECKOUT-I, Total execution time (CPU/WALL):     1068.17/     211.87 seconds.
--executable xsdcc finished with status     0 in      211.92 seconds (walltime).
 --invoking executable--
/nfs/workspaces/public/cfour_mpi/bin/xanti
 @GETMEM-I,  Allocated    3814 MB of main memory.
 CCSD MO derivative gammas will be sorted to Mulliken order.
 @CHECKOUT-I, Total execution time (CPU/WALL):        8.30/       7.81 seconds.
--executable xanti finished with status     0 in        7.84 seconds (walltime).
 --invoking executable--
/nfs/workspaces/public/cfour_mpi/bin/xbcktrn
 @GETMEM-I,  Allocated    3814 MB of main memory.
 CCSD MO derivative gammas will be transformed to the AO basis.
 @CHECKOUT-I, Total execution time (CPU/WALL):       17.48/       5.19 seconds.
--executable xbcktrn finished with status     0 in        5.21 seconds (walltime).
 --invoking executable--
/nfs/workspaces/public/cfour_mpi/bin/xvdint
 @GETMEM-I,  Allocated    3814 MB of main memory.
 One- and two-electron integral derivatives are calculated
 for RHF-CC/MBPT hessians and dipole derivatives.
 Spherical gaussians are used.
  magnet F F
                    8722  records have been written to the Sort file.
  Total length of Sort file :             178609116  words.
 Evaluation of 2el integral derivatives

                      Two-electron integral gradient
                      ------------------------------

                         C #1 z     0.0000000000
                         O #2 z     0.0000000000


 C #1       0.0000000000            0.0806294323            0.0000000000
 O #2       0.0000000000           -0.0806294323            0.0000000000


 Evaluation of 2e integral derivatives required  256.58 seconds.
  contribution to Hessian
        0.0000000000        0.0000000000        0.0000000000
        0.0000000000        0.0806294323       -0.0806294323
 @CHECKOUT-I, Total execution time (CPU/WALL):      256.57/      64.13 seconds.
--executable xvdint finished with status     0 in       64.16 seconds (walltime).
 --invoking executable--
/nfs/workspaces/public/cfour_mpi/bin/xanti
 @GETMEM-I,  Allocated    3814 MB of main memory.
 CCSD MO gammas will be sorted to Mulliken order.
 @CHECKOUT-I, Total execution time (CPU/WALL):       10.73/       9.32 seconds.
--executable xanti finished with status     0 in        9.35 seconds (walltime).
 --invoking executable--
/nfs/workspaces/public/cfour_mpi/bin/xbcktrn
 @GETMEM-I,  Allocated    3814 MB of main memory.
 CCSD MO gammas will be transformed to the AO basis.
 @CHECKOUT-I, Total execution time (CPU/WALL):       22.28/       5.69 seconds.
--executable xbcktrn finished with status     0 in        5.72 seconds (walltime).
 --invoking executable--
/nfs/workspaces/public/cfour_mpi/bin/xvdint
 @GETMEM-I,  Allocated    3814 MB of main memory.
 One- and two-electron integral derivatives are calculated
 for RHF-CC/MBPT hessians and dipole derivatives.
 Spherical gaussians are used.
  magnet F F

                     Kinetic energy integral gradient
                     --------------------------------

                         C #1 z    -0.4802622883
                         O #2 z     0.4802622883


 C #1       0.0000000000            0.0000000000           -0.4802622883
 O #2       0.0000000000            0.0000000000            0.4802622883



                   Nuclear attraction integral gradient
                   ------------------------------------

                         C #1 z    13.0151447709
                         O #2 z   -13.0151447709


 C #1       0.0000000000            0.0000000000           13.0151447709
 O #2       0.0000000000            0.0000000000          -13.0151447709



                      Reorthonormalization gradient
                      -----------------------------

                         C #1 z     0.0000000000
                         O #2 z     0.0000000000


 C #1       0.0000000000            0.0000000000            0.0000000000
 O #2       0.0000000000            0.0000000000            0.0000000000



                     Kinetic energy integral Hessian
                     -------------------------------


           Symmetry 1

           C #1 z      O #2 z

 C #1 z    0.506901
 O #2 z   -0.506901    0.506901


           Symmetry 2

           C #1 x      O #2 x

 C #1 x   -0.349488
 O #2 x    0.349488   -0.349488


           Symmetry 3

           C #1 y      O #2 y

 C #1 y   -0.349488
 O #2 y    0.349488   -0.349488




           C #1 x      C #1 y      C #1 z      O #2 x      O #2 y      O #2 z

 C #1 x   -0.349488
 C #1 y    0.000000   -0.349488
 C #1 z    0.000000    0.000000    0.506901

 O #2 x    0.349488    0.000000    0.000000   -0.349488
 O #2 y    0.000000    0.349488    0.000000    0.000000   -0.349488
 O #2 z    0.000000    0.000000   -0.506901    0.000000    0.000000    0.506901




                   Nuclear attraction integral Hessian
                   -----------------------------------


           Symmetry 1

           C #1 z      O #2 z

 C #1 z   -7.837825
 O #2 z    7.837825   -7.837825


           Symmetry 2

           C #1 x      O #2 x

 C #1 x    6.660174
 O #2 x   -6.660174    6.660174


           Symmetry 3

           C #1 y      O #2 y

 C #1 y    6.660174
 O #2 y   -6.660174    6.660174




           C #1 x      C #1 y      C #1 z      O #2 x      O #2 y      O #2 z

 C #1 x    6.660174
 C #1 y    0.000000    6.660174
 C #1 z    0.000000    0.000000   -7.837825

 O #2 x   -6.660174    0.000000    0.000000    6.660174
 O #2 y    0.000000   -6.660174    0.000000    0.000000    6.660174
 O #2 z    0.000000    0.000000    7.837825    0.000000    0.000000   -7.837825




                Highest order reorthonormalization Hessian
                ------------------------------------------


           Symmetry 1

           C #1 z      O #2 z

 C #1 z    0.000000
 O #2 z    0.000000    0.000000


           Symmetry 2

           C #1 x      O #2 x

 C #1 x    0.000000
 O #2 x    0.000000    0.000000


           Symmetry 3

           C #1 y      O #2 y

 C #1 y    0.000000
 O #2 y    0.000000    0.000000




           C #1 x      C #1 y      C #1 z      O #2 x      O #2 y      O #2 z




                Electronic contributions to dipole moment
                -----------------------------------------

                               au             Debye

                    z      0.51753606      1.31544568

  Conversion factor used: 1 a.u. =   2.54174691 Debye 



   Electronic contributions to static part of dipole moment derivatives
   --------------------------------------------------------------------


                     Total dipole moment derivatives
                     -------------------------------


           Symmetry 1
                              Ez

               C #1 z    -5.66367584
               O #2 z    -8.33632416

           Symmetry 2
                              Ex

               C #1 x    -5.67947419
               O #2 x    -8.32052581

           Symmetry 3
                              Ey

               C #1 y    -5.67947419
               O #2 y    -8.32052581



                       Ex          Ey          Ez

      C #1    x   -5.679474    0.000000    0.000000
      C #1    y    0.000000   -5.679474    0.000000
      C #1    z    0.000000    0.000000   -5.663676

      O #2    x   -8.320526    0.000000    0.000000
      O #2    y    0.000000   -8.320526    0.000000
      O #2    z    0.000000    0.000000   -8.336324

 Evaluation of 1e integral derivatives required    1.64 seconds.
                    8815  records have been written to the Sort file.
  Total length of Sort file :             180513570  words.
 Evaluation of 2el integral derivatives

                      Two-electron integral gradient
                      ------------------------------

                         C #1 z    -7.0064262566
                         O #2 z     7.0064262566


 C #1       0.0000000000            0.0000000000           -7.0064262566
 O #2       0.0000000000            0.0000000000            7.0064262566


 Evaluation of 2e integral derivatives required  540.70 seconds.

                            Molecular gradient
                            ------------------

                         C #1 z     0.5602163186
                         O #2 z    -0.5602163186


 C #1       0.0000000000            0.0000000000            0.5602163186
 O #2       0.0000000000            0.0000000000           -0.5602163186


  Molecular gradient norm 0.792E+00

                            Molecular hessian
                            -----------------


           Symmetry 1

           C #1 z      O #2 z

 C #1 z   12.869492
 O #2 z  -12.869492   12.869492


           Symmetry 2

           C #1 x      O #2 x

 C #1 x    6.286614
 O #2 x   -6.286614    6.286614


           Symmetry 3

           C #1 y      O #2 y

 C #1 y    6.286614
 O #2 y   -6.286614    6.286614




           C #1 x      C #1 y      C #1 z      O #2 x      O #2 y      O #2 z

 C #1 x    6.286614
 C #1 y    0.000000    6.286614
 C #1 z    0.000000    0.000000   12.869492

 O #2 x   -6.286614    0.000000    0.000000    6.286614
 O #2 y    0.000000   -6.286614    0.000000    0.000000    6.286614
 O #2 z    0.000000    0.000000  -12.869492    0.000000    0.000000   12.869492




                           Total dipole moment
                           -------------------

                               au             Debye

                    z      0.51414829      1.30683482

  Conversion factor used: 1 a.u. =   2.54174691 Debye 



                     Total dipole moment derivatives
                     -------------------------------


           Symmetry 1
                              Ez

               C #1 z     0.55033653
               O #2 z    -0.55033653

           Symmetry 2
                              Ex

               C #1 x     0.17596636
               O #2 x    -0.17596636

           Symmetry 3
                              Ey

               C #1 y     0.17596636
               O #2 y    -0.17596636



                       Ex          Ey          Ez

      C #1    x    0.175966    0.000000    0.000000
      C #1    y    0.000000    0.175966    0.000000
      C #1    z    0.000000    0.000000    0.550337

      O #2    x   -0.175966    0.000000    0.000000
      O #2    y    0.000000   -0.175966    0.000000
      O #2    z    0.000000    0.000000   -0.550337

 @CHECKOUT-I, Total execution time (CPU/WALL):      542.33/      95.55 seconds.
--executable xvdint finished with status     0 in       95.58 seconds (walltime).
 --invoking executable--
/nfs/workspaces/public/cfour_mpi/bin/xjoda
  @GTFLGS-I, Hessian will be transformed to curvilinear coordinates.
  @GTFLGS-I, Hessian will be transformed to curvilinear coordinates.
  igrd and ihes are                      0                     1
  gradient from JOBARC 
   0.000000000000000   0.000000000000000   0.560216318595147
   0.000000000000000   0.000000000000000  -0.560216318595147
 
  @PROJFCM-I, Projecting force constant matrix onto totally symmetric subspace.
  Largest difference between matrix elements of symmetrized
  and unsymmetrized FCM :     0.1072919531E-11.
  read isotopes from ZMAT file 
 
  Summary of diagonal Born-Oppenheimer correction at the correlated level
  The total diagonal Born-Oppenheimer correction (DBOC) is:      0.0041412008 a.u.
  The total diagonal Born-Oppenheimer correction (DBOC) is:        908.888519 cm-1
  The total diagonal Born-Oppenheimer correction (DBOC) is:            10.873 kJ/mole
  hellooooooo 
  readis is  F
 
 @CHECKOUT-I, Total execution time (CPU/WALL):        0.01/       0.01 seconds.
--executable xjoda finished with status     0 in        0.04 seconds (walltime).
  The final electronic energy is      -113.055899477165823 a.u. 
  This computation required                         2238.73 seconds (walltime).
