 --invoking executable--
/nfs/workspaces/public/cfour_mpi/bin/xjoda


   *************************************************************************
         <<<     CCCCCC     CCCCCC   |||     CCCCCC     CCCCCC   >>>
       <<<      CCC        CCC       |||    CCC        CCC         >>>
      <<<      CCC        CCC        |||   CCC        CCC            >>>
    <<<        CCC        CCC        |||   CCC        CCC              >>>
      <<<      CCC        CCC        |||   CCC        CCC            >>>
       <<<      CCC        CCC       |||    CCC        CCC         >>>
         <<<     CCCCCC     CCCCCC   |||     CCCCCC     CCCCCC   >>>
   *************************************************************************

     ****************************************************************
     * CFOUR Coupled-Cluster techniques for Computational Chemistry *
     ****************************************************************
 

   Department of Chemistry                Institut fuer Physikalische Chemie
   University of Florida                  Universitaet Mainz
   Gainesville, FL 32611, USA             D-55099 Mainz, Germany

   Department of Chemistry                Fakultaet fuer Chemie und Biowiss.
   Johns Hopkins University               Karlsruher Institut fuer Technologie
   Baltimore, MD 21218, USA               D-76131 Karlsruhe, Germany

   Department of Chemistry                Department of Physical Chemistry
   Southern Methodist University          Eotvos Lorand University
   Dallas, TX 75275, USA                  H-1053 Budapest, Hungary

 
                       Version 2.1
 
                     vincent.theory.phys.ucl.ac.uk                     
                     Tue 25 Feb 22:21:13 GMT 2025                      
                     integer*8 version is running
 
********************************************************************************
*                          Input from ZMAT file                                *
********************************************************************************
Carbon Monoxide DBOC calculation                                                
C                                                                               
O 1 r                                                                           
                                                                                
r=1.6137931034482758                                                            
                                                                                
                                                                                
*CFOUR(CALC=CCSD,BASIS=AUG-PCVQZ,SCF_CONV=10                                    
CC_CONV=14,DBOC=ON,MEMORY=500000000                                             
ZFIELD=200)                                                                     
                                                                                
%isotopes                                                                       
12                                                                              
16                                                                              
********************************************************************************
  @GTFLGS-I, Hessian will be transformed to curvilinear coordinates.
    -------------------------------------------------------------------
                    CFOUR Control Parameters 
    -------------------------------------------------------------------
        External           Internal           Value            Units
          Name               Name
    -------------------------------------------------------------------
       ABCDTYPE             IABCDT         STANDARD    [  0]    ***   
       ANHARMONIC           IANHAR         OFF         [  0]    ***   
       ANH_ALGORIT          IANALG         STANDARD    [  0]    ***   
       ANH_DERIVAT          IANDER         SECOND      [  1]    ***   
       ANH_MODE             ANHMOD         VIBRATION   [  0]    ***   
       ANH_STEPSIZ          ICUBST             50000          x 10-6  
       ANH_SYMMETR          IANHSM         ABELIAN     [  0]    ***   
       AO_LADDERS           IAOLAD         SINGLEPASS  [  1]    ***   
       AV_SCF               IAVSCF         OFF         [  0]    ***   
       BASIS                IBASIS         AUG-PCVQZ   [ 52]    ***   
       BOTHVECTORS          BOTHVC         OFF         [  0]    ***   
       BOX_POTENT           IPIAB          OFF         [  0]    ***   
       BREIT                IBREIT         OFF         [  0]    ***   
       BRUCK_CONV           IBRTOL          10D-  4             ***   
       BRUECKNER            IBRKNR         OFF         [  0]    ***   
       BUFFERSIZE           IBUFFS              4096            ***   
       CACHE_RECS           ICHREC             10               ***   
       CALCLEVEL            ICLLVL         CCSD        [ 10]    ***   
       CCORBOPT             ICCORB         OFF         [  0]  x 0.01  
       CC_CONV              ICCCNV          10D- 14             ***   
       CC_EXPORDER          ICCEOR              5               ***   
       CC_EXTRAPOL          ICCEXT         DIIS        [  1]    ***   
       CC_GUESS             ICCGES         MP2         [  0]    ***   
       CC_MAXCYC            ICCCYC            100              cycles 
       CC_PROGRAM           ICCPRO         VCC         [  0]    ***   
       CHARGE               ICHRGE              0               ***   
       CHOLESKY             ICHOLE         OFF         [  0]    ***   
       CIS_CONV             ICISTL              5               ***   
       COMM_SIZE            IPSIZE            ***               ***   
       CONSTANT             ICONST         OLD         [  1]    ***   
       CONTINUUM            ICONTU         NONE        [  0]    ***   
       CONTRACTION          ICNTYP         GENERAL     [  1]    ***   
       COORDINATES          ICOORD         INTERNAL    [  0]    ***   
       CPHF_CONVER          ICPHFT          10D- 16             ***   
       CPHF_MAXCYC          ICPHFC             64              cycles 
       CUBIC                ICUBIC         OFF         [  0]    ***   
       CURVILINEAR          ICURVY         ON          [  1]    ***   
       DBOC                 IDBOC          ON          [  1]    ***   
       DCT                  IDCT           OFF         [  0]    ***   
       DERIV_LEV            IDRLVL         SECOND      [  2]    ***   
       DEVMEM_SIZE          IDVMEM          50000000           MByte  
       DIAG_MRCC            IEOMST          10D-  0             ***   
       DIFF_TYPE            IDIFTY         RELAXED     [  0]    ***   
       DIRECT               IDIRCT         OFF         [  0]    ***   
       DROPMO               IDRPMO      NONE         
       ECP                  IECP           OFF         [  0]    ***   
       EIGENVECTOR          IVEC                1               ***   
       EL_ANHARM            IELANH         OFF         [  0]    ***   
       EOMFOLLOW            IEOMSR         ENERGY      [  0]    ***   
       EOMIP                IEOMIP         OFF         [  0]    ***   
       EOMLEVEL             HBARFM         SAME        [  0]    ***   
       EOM_MRCC             IMRCCE         NEW         [  1]    ***   
       EOM_NONIT            EOMNON         OFF         [  0]    ***   
       EOM_NSING            IEOMSI          10D-  0             ***   
       EOM_NSTATES          IMRCCD         DAVIDSON    [  0]    ***   
       EOM_NTRIP            IEOMTR          10D-  0             ***   
       EOM_ORDER            IEXORD         ENERGY      [  0]    ***   
       EOM_PROPSTA          IEOMST              0               ***   
       ESTATE_CONV          IEXTOL          10D-  5             ***   
       ESTATE_DIAG          IEXDIG         ITERATIVE   [  0]    ***   
       ESTATE_LOCK          IESLOC         ON          [  1]    ***   
       ESTATE_MAXC          IEXMXC             40               ***   
       ESTATE_PROP          IEXPRP         OFF         [  0]    ***   
       EVAL_HESS            IRECAL              0            # of cyc.
       EXCITATION           IEXCIT              0               ***   
       EXCITE               IEXCIT         NONE        [  0]    ***   
       EXTERN_POT           IEXPOT         OFF         [  0]    ***   
       FCGRADNEW            IFCGNW         OFF         [  0]    ***   
       FC_FIELD             IFINFC              0             x 10-6  
       FD_CALTYPE           IFDCAL         GRADONLY    [  0]    ***   
       FD_PROJECT           IFDPRJ         OFF         [  1]    ***   
       FD_STEPSIZE          IDISFD              0            10-4 bohr
       FD_USEGROUP          IFDGRP         FULL        [  0]    ***   
       FILE_RECSIZ          IFLREC              4096           words  
       FINITE_PERT          IFIPER              0             x 10-6  
       FIXGEOM              IFIXGM         OFF         [  0]    ***   
       FOCK                 IFOCK          AO          [  1]    ***   
       FREQ_ALGORI          IVIALG         STANDARD    [  0]    ***   
       FROZEN_CORE          IFROCO         OFF         [  0]    ***   
       GAMMA_ABCD           IGABCD         STORE       [  0]    ***   
       GAMMA_ABCI           IGABCI         STORE       [  0]    ***   
       GENBAS_1             IGNBS1              0               ***   
       GENBAS_2             IGNBS2              0               ***   
       GENBAS_3             IGNBS3              0               ***   
       GENBAS_4             IGNBS4              0               ***   
       GEO_CONV             ICONTL              5              H/bohr 
       GEO_MAXCYC           IOPTCY             50               ***   
       GEO_MAXSTEP          IMXSTP            300            millibohr
       GEO_METHOD           INR            SINGLE_POINT[  5]    ***   
       GIAO                 IGIAO          OFF         [  1]    ***   
       GIMIC                IGIMIC         OFF         [  0]    ***   
       GRID                 IGRID          OFF         [  0]    ***   
       GRID_ALGO            IGALGO         SERIAL      [  0]    ***   
       GUESS                IGUESS         MOREAD      [  0]    ***   
       HBAR                 IHBAR          OFF         [  0]    ***   
       HESS_TYPE            IHESTP         SCF         [  0]    ***   
       HF2_FILE             IHF2Fl         USE         [  1]    ***   
       HFSTABILITY          ISTABL         OFF         [  0]    ***   
       INCORE               INCORE         OFF         [  0]    ***   
       INPUT_MRCC           IMRCC          ON          [  1]    ***   
       INTEGRALS            INTTYP         VMOL        [  1]    ***   
       JODA_PRINT           IJPRNT              0               ***   
       KEYWORD_OUT          IDMPKW         NO          [  0]    ***   
       LINDEP_TOL           ILINDP              8               ***   
       LINEQ_CONV           IZTACN          10D-  7           cycles  
       LINEQ_EXPOR          ILMAXD              5               ***   
       LINEQ_MAXCY          ILMAXC            100               ***   
       LINEQ_TYPE           ILTYPE         DIIS        [  1]    ***   
       LOCK_ORBOCC          ILOCOC         OFF         [  0]    ***   
       MEMORY_SIZE          IMEMSZ         500000000           words  
       MEM_UNIT             IMEMU          INTEGERWORDS[  0]    ***   
       MRCC                 IMRCCC         OFF         [  0]    ***   
       MULTIPLICTY          IMULTP              1               ***   
       NACOUPLING           IVCOUP         OFF         [  0]    ***   
       NEGEVAL              IDIE           ABORT       [  0]    ***   
       NEWNORM              INEWNO         OFF         [  0]    ***   
       NON-HF               INONHF         OFF         [  0]    ***   
       NTOP_TAMP            ITOPT2             15               ***   
       NUC_MODEL            INUCMO         POINT       [  0]    ***   
       OCCUPATION           IOCCU   ESTIMATED BY SCF 
       OPEN-SHELL           IOPEN          SPIN-ORBITAL[  0]    ***   
       OPTVIB               IOPTVB         OFF         [  0]    ***   
       ORBITALS             IORBTP         STANDARD    [  0]    ***   
       PARALLEL             IPARAL         ON          [  1]    ***   
       PARA_INT             IPINTS         ON          [  1]    ***   
       PARA_PRINT           IPPRIN              0               ***   
       PERT_ORB             IPTORB         STANDARD    [  0]    ***   
       POINTS               IGRDFD              0               ***   
       PRINT                IPRNT               0               ***   
       PROPS                IPROPS         OFF         [  0]    ***   
       PROP_INTEGR          IINTYP         INTERNAL    [  0]    ***   
       PSI                  IPSI           OFF         [  0]    ***   
       QC_ALG               IQCALG         FLM         [  0]    ***   
       QC_LINALG            IQCLIN         TRIDIAG     [  2]    ***   
       QC_MAXCYC            IQCMAX          10D-100           cycles  
       QC_MAXSCFCY          IQCMSC          10D- 15           cycles  
       QC_RTRUST            IQCRTR          10D-  0           x 10-3  
       QC_SKIPSCF           IQCSKI         OFF         [  0]    ***   
       QC_START             IQCSTA          10D-  1             ***   
       QRHFGUESS            IQGUES         OFF         [  0]    ***   
       QUARTIC              IQUART         OFF         [  0]    ***   
       RAMAN_INT            IRAMIN         OFF         [  0]    ***   
       RAMAN_ORB            IRAMRE         UNRELAXED   [  0]    ***   
       RDO                  IRDOFM         ON          [  1]    ***   
       REDUCE_REPR          REDREP         Ir          [  0]    ***   
       REFERENCE            IREFNC         RHF         [  0]    ***   
       RELATIVIST           IRELAT         OFF         [  0]    ***   
       RELAX_DENS           IRDENS         ON          [  1]    ***   
       RESET_FLAGS          IRESET         OFF         [  0]    ***   
       RESTART_CC           ICCRES         OFF         [  0]    ***   
       ROT_EVEC             ROTVEC              0               ***   
       SAVE_INTS            ISVINT         OFF         [  0]    ***   
       SCALE_ON             ISTCRT              0               ***   
       SCF_CONV             ISCFCV          10D- 10             ***   
       SCF_DAMPING          IDAMP               0             x 10-3  
       SCF_EXPORDE          IRPPOR              6               ***   
       SCF_EXPSTAR          IRPPLS              8               ***   
       SCF_EXTRAPO          IRPP           ON          [  1]    ***   
       SCF_MAXCYC           ISCFCY            150              cycles 
       SCF_NOSTOP           ISCFST         OFF         [  0]    ***   
       SCF_PRINT            ISCFPR              0               ***   
       SCF_PROG             ISCFPR         SCF         [  0]    ***   
       SD_FIELD             IFINSD              0             x 10-6  
       SOPERT               IPERSO         OFF         [  0]    ***   
       SPHERICAL            IDFGHI         ON          [  1]    ***   
       SPINORBIT            ISOCAL         OFF         [  0]    ***   
       SPINROTATIO          ISRCON         OFF         [  0]    ***   
       SPIN_FLIP            ISPFLP         OFF         [  0]    ***   
       SPIN_ORBIT           ISPORB         OFF         [  0]    ***   
       SPIN_SCAL            ISCSMP         OFF         [  0]    ***   
       STEEPSCALE           ISTPSC              1000          x 10-3  
       SUBGROUP             ISUBGP         DEFAULT     [  0]    ***   
       SUBGRPAXIS           ISBXYZ         X           [  0]    ***   
       SYMMETRY             ISYM           ON          [  0]    ***   
       SYM_CHECK            ISYMCK         OVERRIDE    [  1]    ***   
       T3_EXTRAPOL          IT3EXT         OFF         [  0]    ***   
       T4_EXTRAPOL          IT4EXP         OFF         [  0]    ***   
       TAMP_SUM             IEVERY              5               ***   
       TESTSUITE            ITESTS         OFF         [  0]    ***   
       THERMOCH             ITHERM         OFF         [  0]    ***   
       TOL_CHOLESK          ITOLCH          10D-  4             ***   
       TRANGRAD             IRESRM         OFF         [  0]    ***   
       TRANS_INV            ITRAIN         IGNORE      [  1]    ***   
       TREAT_PERT           ITREAT         SIMULTANEOUS[  0]    ***   
       TRIP_ALGORI          ITRALG         NORMAL      [  0]    ***   
       UIJ_THRESHO          IUIJTH              1               ***   
       UNITS                IUNITS         ANGSTROM    [  0]    ***   
       UNOS                 IUNOS          OFF         [  0]    ***   
       UPDATE_HESS          IHUPDT         ON          [  1]    ***   
       VIBPHASE             ISETPH         STANDARD    [  0]    ***   
       VIBRATION            IVIB           ANALYTIC    [  1]    ***   
       VIB_ALGORIT          IGEALG         STANDARD    [  0]    ***   
       VNATORB              IVNORB         OFF         [  0]    ***   
       VTRAN                IVTRAN         FULL/PARTIAL[  0]    ***   
       XFIELD               IXEFLD              0             x 10-6  
       XFORM_TOL            IXFTOL          10D- 11             ***   
       YFIELD               IYEFLD              0             x 10-6  
       ZFIELD               IZEFLD            200             x 10-6  
       ZSCALE_EXP           IZEXPS         OFF         [  0]    ***   
    -------------------------------------------------------------------
   2 entries found in Z-matrix 
   Job Title : Carbon Monoxide DBOC calculation                                                
   There are  1 unique internal coordinates.
   Of these,  0 will be optimized.
   User supplied Z-matrix: 
--------------------------------------------------------------------------------
       SYMBOL    BOND      LENGTH    ANGLE     ANGLE     DIHED     ANGLE
                  TO      (ANGST)    WRT      (DEG)      WRT      (DEG)
--------------------------------------------------------------------------------
        C    
        O          1         r    
                  *Initial values for internal coordinates* 
                      Name             Value
                        r               1.6137931034
--------------------------------------------------------------------------------
  read isotopes from ZMAT file 
   Rotational constants (in cm-1): 
          0.9440974395             0.9440974395
   Rotational constants (in MHz): 
      28303.3331624825         28303.3331624825
********************************************************************************
   The full molecular point group is CXv .
   The largest Abelian subgroup of the full molecular point group is C2v .
   The computational point group is C2v .
********************************************************************************
--------------------------------------------------------------------------------
   Analysis of internal coordinates specified by Z-matrix 
--------------------------------------------------------------------------------
   *The nuclear repulsion energy is   15.739626564102563 a.u.
   *There is   1 degree of freedom within the tot. symm. molecular subspace.
   *Z-matrix requests optimization of   0 coordinates.
   *The optimization is constrained.
   *The following   1 parameters can have non-zero 
    derivatives within the totally symmetric subspace:
             r    [ 1]
   *The following   0 parameters are to be optimized:

   *The following coordinates must be varied in an  unconstrained optimization.
             r    [ 1]
--------------------------------------------------------------------------------


 ----------------------------------------------------------------
         Coordinates used in calculation (QCOMP) 
 ----------------------------------------------------------------
 Z-matrix   Atomic            Coordinates (in bohr)
  Symbol    Number           X              Y              Z
 ----------------------------------------------------------------
     C         6        -0.00000000     0.00000000     1.74240694
     O         8         0.00000000     0.00000000    -1.30722069
 ----------------------------------------------------------------
 
   Interatomic distance matrix (Angstroms) 
 
                 C             O    
                [ 1]        [ 2]
  C    [ 1]     0.00000
  O    [ 2]     1.61379     0.00000
 rotcon2
   Rotational constants (in cm-1): 
          0.9440974395             0.0000000000
   Rotational constants (in MHz): 
      28303.3331624825             0.0000000000
  ECPDATA file not present.   Using default ECPDATA. 
  @GTFLGS-I, Hessian will be transformed to curvilinear coordinates.
  There are  218 basis functions.
 @CHECKOUT-I, Total execution time (CPU/WALL):        0.14/       0.68 seconds.
--executable xjoda finished with status     0 in        0.74 seconds (walltime).
 --invoking executable--
/nfs/workspaces/public/cfour_mpi/bin/xvmol
 SERIAL VERSION OF MOLECULE STARTED
********************************************************************************
                    INPUT FROM MOL FILE
********************************************************************************
INTGRL        1    0    1    0    0    0    0    0    0                         
         *** CFOUR Program System (Release V0.1) ***                            
Carbon Monoxide DBOC calculation                                                
    2    2 X  Y       0.10E-08              0    0                              
   9999.00      3.00                                                            
          6.00000000    1    5    1    1    1    1    1                         
C #1  -0.000000000000000   0.000000000000000   1.742406940087373                
   16    9                                                                      
   33980.0000000000       9.100000000000000E-005 -1.900000000000000E-005        
  0.000000000000000E+000  0.000000000000000E+000  0.000000000000000E+000        
  0.000000000000000E+000  0.000000000000000E+000  0.000000000000000E+000        
  0.000000000000000E+000                                                        
   5089.00000000000       7.040000000000000E-004 -1.510000000000000E-004        
  0.000000000000000E+000  0.000000000000000E+000  0.000000000000000E+000        
  0.000000000000000E+000  0.000000000000000E+000  0.000000000000000E+000        
  0.000000000000000E+000                                                        
   1157.00000000000       3.693000000000000E-003 -7.850000000000000E-004        
  0.000000000000000E+000  0.000000000000000E+000  0.000000000000000E+000        
  0.000000000000000E+000  0.000000000000000E+000  0.000000000000000E+000        
  0.000000000000000E+000                                                        
   326.600000000000       1.536000000000000E-002 -3.324000000000000E-003        
  0.000000000000000E+000  0.000000000000000E+000  0.000000000000000E+000        
  0.000000000000000E+000  0.000000000000000E+000  0.000000000000000E+000        
  0.000000000000000E+000                                                        
   106.100000000000       5.292900000000000E-002 -1.151200000000000E-002        
  0.000000000000000E+000  0.000000000000000E+000  0.000000000000000E+000        
  0.000000000000000E+000  0.000000000000000E+000  0.000000000000000E+000        
  0.000000000000000E+000                                                        
   38.1100000000000       0.147043000000000      -3.416000000000000E-002        
  0.000000000000000E+000  0.000000000000000E+000  0.000000000000000E+000        
  0.000000000000000E+000  0.000000000000000E+000  0.000000000000000E+000        
  0.000000000000000E+000                                                        
   14.7500000000000       0.305631000000000      -7.717300000000001E-002        
  0.000000000000000E+000  0.000000000000000E+000  0.000000000000000E+000        
  0.000000000000000E+000  0.000000000000000E+000  0.000000000000000E+000        
  0.000000000000000E+000                                                        
   6.03500000000000       0.399345000000000      -0.141493000000000             
  0.000000000000000E+000  0.000000000000000E+000  0.000000000000000E+000        
  0.000000000000000E+000  0.000000000000000E+000  0.000000000000000E+000        
  0.000000000000000E+000                                                        
   2.53000000000000       0.217051000000000      -0.118019000000000             
  0.000000000000000E+000  0.000000000000000E+000  0.000000000000000E+000        
  0.000000000000000E+000  0.000000000000000E+000  0.000000000000000E+000        
  0.000000000000000E+000                                                        
  0.735500000000000       1.589400000000000E-002  0.273806000000000             
   1.00000000000000       0.000000000000000E+000  0.000000000000000E+000        
  0.000000000000000E+000  0.000000000000000E+000  0.000000000000000E+000        
  0.000000000000000E+000                                                        
  0.290500000000000      -3.084000000000000E-003  0.586510000000000             
  0.000000000000000E+000   1.00000000000000       0.000000000000000E+000        
  0.000000000000000E+000  0.000000000000000E+000  0.000000000000000E+000        
  0.000000000000000E+000                                                        
  0.111100000000000       9.779999999999999E-004  0.285430000000000             
  0.000000000000000E+000  0.000000000000000E+000   1.00000000000000             
  0.000000000000000E+000  0.000000000000000E+000  0.000000000000000E+000        
  0.000000000000000E+000                                                        
   7.21600000000000       0.000000000000000E+000  0.000000000000000E+000        
  0.000000000000000E+000  0.000000000000000E+000  0.000000000000000E+000        
   1.00000000000000       0.000000000000000E+000  0.000000000000000E+000        
  0.000000000000000E+000                                                        
   19.5700000000000       0.000000000000000E+000  0.000000000000000E+000        
  0.000000000000000E+000  0.000000000000000E+000  0.000000000000000E+000        
  0.000000000000000E+000   1.00000000000000       0.000000000000000E+000        
  0.000000000000000E+000                                                        
   53.0730000000000       0.000000000000000E+000  0.000000000000000E+000        
  0.000000000000000E+000  0.000000000000000E+000  0.000000000000000E+000        
  0.000000000000000E+000  0.000000000000000E+000   1.00000000000000             
  0.000000000000000E+000                                                        
  4.145000000000000E-002  0.000000000000000E+000  0.000000000000000E+000        
  0.000000000000000E+000  0.000000000000000E+000  0.000000000000000E+000        
  0.000000000000000E+000  0.000000000000000E+000  0.000000000000000E+000        
   1.00000000000000                                                             
   10    8                                                                      
   34.5100000000000       5.378000000000000E-003  0.000000000000000E+000        
  0.000000000000000E+000  0.000000000000000E+000  0.000000000000000E+000        
  0.000000000000000E+000  0.000000000000000E+000  0.000000000000000E+000        
   7.91500000000000       3.613200000000000E-002  0.000000000000000E+000        
  0.000000000000000E+000  0.000000000000000E+000  0.000000000000000E+000        
  0.000000000000000E+000  0.000000000000000E+000  0.000000000000000E+000        
   2.36800000000000       0.142493000000000       0.000000000000000E+000        
  0.000000000000000E+000  0.000000000000000E+000  0.000000000000000E+000        
  0.000000000000000E+000  0.000000000000000E+000  0.000000000000000E+000        
  0.813200000000000       0.342150000000000        1.00000000000000             
  0.000000000000000E+000  0.000000000000000E+000  0.000000000000000E+000        
  0.000000000000000E+000  0.000000000000000E+000  0.000000000000000E+000        
  0.289000000000000       0.463864000000000       0.000000000000000E+000        
   1.00000000000000       0.000000000000000E+000  0.000000000000000E+000        
  0.000000000000000E+000  0.000000000000000E+000  0.000000000000000E+000        
  0.100700000000000       0.250028000000000       0.000000000000000E+000        
  0.000000000000000E+000   1.00000000000000       0.000000000000000E+000        
  0.000000000000000E+000  0.000000000000000E+000  0.000000000000000E+000        
   8.18200000000000       0.000000000000000E+000  0.000000000000000E+000        
  0.000000000000000E+000  0.000000000000000E+000   1.00000000000000             
  0.000000000000000E+000  0.000000000000000E+000  0.000000000000000E+000        
   24.1860000000000       0.000000000000000E+000  0.000000000000000E+000        
  0.000000000000000E+000  0.000000000000000E+000  0.000000000000000E+000        
   1.00000000000000       0.000000000000000E+000  0.000000000000000E+000        
   71.4940000000000       0.000000000000000E+000  0.000000000000000E+000        
  0.000000000000000E+000  0.000000000000000E+000  0.000000000000000E+000        
  0.000000000000000E+000   1.00000000000000       0.000000000000000E+000        
  3.218000000000000E-002  0.000000000000000E+000  0.000000000000000E+000        
  0.000000000000000E+000  0.000000000000000E+000  0.000000000000000E+000        
  0.000000000000000E+000  0.000000000000000E+000   1.00000000000000             
    6    6                                                                      
   1.84800000000000        1.00000000000000       0.000000000000000E+000        
  0.000000000000000E+000  0.000000000000000E+000  0.000000000000000E+000        
  0.000000000000000E+000                                                        
  0.649000000000000       0.000000000000000E+000   1.00000000000000             
  0.000000000000000E+000  0.000000000000000E+000  0.000000000000000E+000        
  0.000000000000000E+000                                                        
  0.228000000000000       0.000000000000000E+000  0.000000000000000E+000        
   1.00000000000000       0.000000000000000E+000  0.000000000000000E+000        
  0.000000000000000E+000                                                        
   8.65600000000000       0.000000000000000E+000  0.000000000000000E+000        
  0.000000000000000E+000   1.00000000000000       0.000000000000000E+000        
  0.000000000000000E+000                                                        
   33.2130000000000       0.000000000000000E+000  0.000000000000000E+000        
  0.000000000000000E+000  0.000000000000000E+000   1.00000000000000             
  0.000000000000000E+000                                                        
  7.660000000000000E-002  0.000000000000000E+000  0.000000000000000E+000        
  0.000000000000000E+000  0.000000000000000E+000  0.000000000000000E+000        
   1.00000000000000                                                             
    4    4                                                                      
   1.41900000000000        1.00000000000000       0.000000000000000E+000        
  0.000000000000000E+000  0.000000000000000E+000                                
  0.485000000000000       0.000000000000000E+000   1.00000000000000             
  0.000000000000000E+000  0.000000000000000E+000                                
   24.6940000000000       0.000000000000000E+000  0.000000000000000E+000        
   1.00000000000000       0.000000000000000E+000                                
  0.187000000000000       0.000000000000000E+000  0.000000000000000E+000        
  0.000000000000000E+000   1.00000000000000                                     
    2    2                                                                      
   1.01100000000000        1.00000000000000       0.000000000000000E+000        
  0.424000000000000       0.000000000000000E+000   1.00000000000000             
          8.00000000    1    5    1    1    1    1    1                         
O #2   0.000000000000000   0.000000000000000  -1.307220686369395                
   16    9                                                                      
   61420.0000000000       9.000000000000001E-005 -2.000000000000000E-005        
  0.000000000000000E+000  0.000000000000000E+000  0.000000000000000E+000        
  0.000000000000000E+000  0.000000000000000E+000  0.000000000000000E+000        
  0.000000000000000E+000                                                        
   9199.00000000000       6.980000000000001E-004 -1.590000000000000E-004        
  0.000000000000000E+000  0.000000000000000E+000  0.000000000000000E+000        
  0.000000000000000E+000  0.000000000000000E+000  0.000000000000000E+000        
  0.000000000000000E+000                                                        
   2091.00000000000       3.664000000000000E-003 -8.290000000000000E-004        
  0.000000000000000E+000  0.000000000000000E+000  0.000000000000000E+000        
  0.000000000000000E+000  0.000000000000000E+000  0.000000000000000E+000        
  0.000000000000000E+000                                                        
   590.900000000000       1.521800000000000E-002 -3.508000000000000E-003        
  0.000000000000000E+000  0.000000000000000E+000  0.000000000000000E+000        
  0.000000000000000E+000  0.000000000000000E+000  0.000000000000000E+000        
  0.000000000000000E+000                                                        
   192.300000000000       5.242300000000000E-002 -1.215600000000000E-002        
  0.000000000000000E+000  0.000000000000000E+000  0.000000000000000E+000        
  0.000000000000000E+000  0.000000000000000E+000  0.000000000000000E+000        
  0.000000000000000E+000                                                        
   69.3200000000000       0.145921000000000      -3.626100000000000E-002        
  0.000000000000000E+000  0.000000000000000E+000  0.000000000000000E+000        
  0.000000000000000E+000  0.000000000000000E+000  0.000000000000000E+000        
  0.000000000000000E+000                                                        
   26.9700000000000       0.305258000000000      -8.299200000000000E-002        
  0.000000000000000E+000  0.000000000000000E+000  0.000000000000000E+000        
  0.000000000000000E+000  0.000000000000000E+000  0.000000000000000E+000        
  0.000000000000000E+000                                                        
   11.1000000000000       0.398508000000000      -0.152090000000000             
  0.000000000000000E+000  0.000000000000000E+000  0.000000000000000E+000        
  0.000000000000000E+000  0.000000000000000E+000  0.000000000000000E+000        
  0.000000000000000E+000                                                        
   4.68200000000000       0.216980000000000      -0.115331000000000             
  0.000000000000000E+000  0.000000000000000E+000  0.000000000000000E+000        
  0.000000000000000E+000  0.000000000000000E+000  0.000000000000000E+000        
  0.000000000000000E+000                                                        
   1.42800000000000       1.759400000000000E-002  0.288979000000000             
   1.00000000000000       0.000000000000000E+000  0.000000000000000E+000        
  0.000000000000000E+000  0.000000000000000E+000  0.000000000000000E+000        
  0.000000000000000E+000                                                        
  0.554700000000000      -2.502000000000000E-003  0.586128000000000             
  0.000000000000000E+000   1.00000000000000       0.000000000000000E+000        
  0.000000000000000E+000  0.000000000000000E+000  0.000000000000000E+000        
  0.000000000000000E+000                                                        
  0.206700000000000       9.540000000000000E-004  0.277624000000000             
  0.000000000000000E+000  0.000000000000000E+000   1.00000000000000             
  0.000000000000000E+000  0.000000000000000E+000  0.000000000000000E+000        
  0.000000000000000E+000                                                        
   12.9740000000000       0.000000000000000E+000  0.000000000000000E+000        
  0.000000000000000E+000  0.000000000000000E+000  0.000000000000000E+000        
   1.00000000000000       0.000000000000000E+000  0.000000000000000E+000        
  0.000000000000000E+000                                                        
   34.9000000000000       0.000000000000000E+000  0.000000000000000E+000        
  0.000000000000000E+000  0.000000000000000E+000  0.000000000000000E+000        
  0.000000000000000E+000   1.00000000000000       0.000000000000000E+000        
  0.000000000000000E+000                                                        
   93.8810000000000       0.000000000000000E+000  0.000000000000000E+000        
  0.000000000000000E+000  0.000000000000000E+000  0.000000000000000E+000        
  0.000000000000000E+000  0.000000000000000E+000   1.00000000000000             
  0.000000000000000E+000                                                        
  6.959000000000000E-002  0.000000000000000E+000  0.000000000000000E+000        
  0.000000000000000E+000  0.000000000000000E+000  0.000000000000000E+000        
  0.000000000000000E+000  0.000000000000000E+000  0.000000000000000E+000        
   1.00000000000000                                                             
   10    8                                                                      
   63.4200000000000       6.044000000000000E-003  0.000000000000000E+000        
  0.000000000000000E+000  0.000000000000000E+000  0.000000000000000E+000        
  0.000000000000000E+000  0.000000000000000E+000  0.000000000000000E+000        
   14.6600000000000       4.179900000000000E-002  0.000000000000000E+000        
  0.000000000000000E+000  0.000000000000000E+000  0.000000000000000E+000        
  0.000000000000000E+000  0.000000000000000E+000  0.000000000000000E+000        
   4.45900000000000       0.161143000000000       0.000000000000000E+000        
  0.000000000000000E+000  0.000000000000000E+000  0.000000000000000E+000        
  0.000000000000000E+000  0.000000000000000E+000  0.000000000000000E+000        
   1.53100000000000       0.356731000000000        1.00000000000000             
  0.000000000000000E+000  0.000000000000000E+000  0.000000000000000E+000        
  0.000000000000000E+000  0.000000000000000E+000  0.000000000000000E+000        
  0.530200000000000       0.448309000000000       0.000000000000000E+000        
   1.00000000000000       0.000000000000000E+000  0.000000000000000E+000        
  0.000000000000000E+000  0.000000000000000E+000  0.000000000000000E+000        
  0.175000000000000       0.244940000000000       0.000000000000000E+000        
  0.000000000000000E+000   1.00000000000000       0.000000000000000E+000        
  0.000000000000000E+000  0.000000000000000E+000  0.000000000000000E+000        
   14.4750000000000       0.000000000000000E+000  0.000000000000000E+000        
  0.000000000000000E+000  0.000000000000000E+000   1.00000000000000             
  0.000000000000000E+000  0.000000000000000E+000  0.000000000000000E+000        
   42.7300000000000       0.000000000000000E+000  0.000000000000000E+000        
  0.000000000000000E+000  0.000000000000000E+000  0.000000000000000E+000        
   1.00000000000000       0.000000000000000E+000  0.000000000000000E+000        
   126.140000000000       0.000000000000000E+000  0.000000000000000E+000        
  0.000000000000000E+000  0.000000000000000E+000  0.000000000000000E+000        
  0.000000000000000E+000   1.00000000000000       0.000000000000000E+000        
  5.348000000000000E-002  0.000000000000000E+000  0.000000000000000E+000        
  0.000000000000000E+000  0.000000000000000E+000  0.000000000000000E+000        
  0.000000000000000E+000  0.000000000000000E+000   1.00000000000000             
    6    6                                                                      
   3.77500000000000        1.00000000000000       0.000000000000000E+000        
  0.000000000000000E+000  0.000000000000000E+000  0.000000000000000E+000        
  0.000000000000000E+000                                                        
   1.30000000000000       0.000000000000000E+000   1.00000000000000             
  0.000000000000000E+000  0.000000000000000E+000  0.000000000000000E+000        
  0.000000000000000E+000                                                        
  0.444000000000000       0.000000000000000E+000  0.000000000000000E+000        
   1.00000000000000       0.000000000000000E+000  0.000000000000000E+000        
  0.000000000000000E+000                                                        
   14.9270000000000       0.000000000000000E+000  0.000000000000000E+000        
  0.000000000000000E+000   1.00000000000000       0.000000000000000E+000        
  0.000000000000000E+000                                                        
   57.5440000000000       0.000000000000000E+000  0.000000000000000E+000        
  0.000000000000000E+000  0.000000000000000E+000   1.00000000000000             
  0.000000000000000E+000                                                        
  0.154000000000000       0.000000000000000E+000  0.000000000000000E+000        
  0.000000000000000E+000  0.000000000000000E+000  0.000000000000000E+000        
   1.00000000000000                                                             
    4    4                                                                      
   2.66600000000000        1.00000000000000       0.000000000000000E+000        
  0.000000000000000E+000  0.000000000000000E+000                                
  0.859000000000000       0.000000000000000E+000   1.00000000000000             
  0.000000000000000E+000  0.000000000000000E+000                                
   26.4830000000000       0.000000000000000E+000  0.000000000000000E+000        
   1.00000000000000       0.000000000000000E+000                                
  0.324000000000000       0.000000000000000E+000  0.000000000000000E+000        
  0.000000000000000E+000   1.00000000000000                                     
    2    2                                                                      
   1.84600000000000        1.00000000000000       0.000000000000000E+000        
  0.714000000000000       0.000000000000000E+000   1.00000000000000             
FINISH                                                                          
 
********************************************************************************
 ONE- AND TWO-ELECTRON INTEGRALS OVER SYMMETRY-ADAPTED AOS ARE CALCULATED.

  SPHERICAL HARMONICS ARE USED.
  
  INTEGRALS LESS THAN  0.10E-13 ARE NEGLECTED.

  NUCLEAR REPULSION ENERGY :   15.7396265641 A.U.
  @MOLECU-I, ONE ELECTRON INTEGRALS (CPU/WALL):        0.09/       0.31 SECONDS.
  @TWOEL-I,    4426403 INTEGRALS OF SYMMETRY TYPE  I I I I
  @TWOEL-I,   19100171 INTEGRALS OF SYMMETRY TYPE  I J I J
  @TWOEL-I,   10056819 INTEGRALS OF SYMMETRY TYPE  I I J J
  @TWOEL-I,   14115122 INTEGRALS OF SYMMETRY TYPE  I J K L
  @TWOEL-I, TOTAL NUMBER OF 2-E INTEGRALS   47698515.
  @MOLECU-I, TWO ELECTRON INTEGRALS (CPU/WALL):      216.73/      99.17 SECONDS.
 @CHECKOUT-I, Total execution time (CPU/WALL):      216.83/      99.49 seconds.

Running with 14 threads/proc

--executable xvmol finished with status     0 in       99.61 seconds (walltime).
 --invoking executable--
/nfs/workspaces/public/cfour_mpi/bin/xvmol2ja
 @GETMEM-I,  Allocated    3814 MB of main memory.
 @CHECKOUT-I, Total execution time (CPU/WALL):        0.18/       0.14 seconds.
--executable xvmol2ja finished with status     0 in        0.21 seconds (walltime).
 --invoking executable--
/nfs/workspaces/public/cfour_mpi/bin/xvprop
 @GETMEM-I,  Allocated    3814 MB of main memory.
   Property integrals will be calculated.
    --------------------------------------------------------------
                                   Property evaluated at 
    Property type                X             Y             Z
    --------------------------------------------------------------
    Dipole moment               ----          ----          ----  
    Quadrupole moment           ----          ----          ----  
    Octopole moment             ----          ----          ----  
    Relativisitic corr.         ----          ----          ----  
    Second moment            0.0000000     0.0000000     0.0000000
    Electron density         0.0000000     0.0000000     1.7424069
    Electron density         0.0000000     0.0000000    -1.3072207
    Field gradient           0.0000000     0.0000000     1.7424069
    Field gradient           0.0000000     0.0000000    -1.3072207
    Potential                0.0000000     0.0000000     1.7424069
    Potential                0.0000000     0.0000000    -1.3072207
    --------------------------------------------------------------
 @CHECKOUT-I, Total execution time (CPU/WALL):        1.74/       6.82 seconds.
--executable xvprop finished with status     0 in        6.92 seconds (walltime).
 --invoking executable--
/nfs/workspaces/public/cfour_mpi/bin/xvscf
  There are  218 functions in the AO basis.

  There are 4 irreducible representations.

       Irrep        # of functions
         1                 86
         2                 52
         3                 52
         4                 28


  Parameters for SCF calculation: 
        SCF reference function:  RHF  
  Maximum number of iterations:  150
     Full symmetry point group: CXv 
     Computational point group: C2v 
        Initial density matrix: MOREAD                 
     SCF convergence tolerance: 10**(-10)
  DIIS convergence acceleration:  ON
          Latest start for DIIS:   8
                     DIIS order:   6

  Memory information:    2523578 words required.
  Fock matrices are constructed from AO integral file.
 @GETMEM-I,  Allocated      19 MB of main memory.
  Initialization and symmetry analysis required      0.001 seconds.

  Adding electric field perturbation to one-electron Hamiltonian.
  Field direction     : Z
  Field strength      :  0.0002000 a.u.

  @INITGES-I, Occupancies from core Hamiltonian:

          Alpha population by irrep:   5    1    1    0
           Beta population by irrep:   5    1    1    0


 total no. of electrons in initial guess :  0.000000000000000E+000
  --------------------------------------------------------------------
  Iteration         Total Energy            Largest Density Difference
  --------------------------------------------------------------------
       0            15.739627228872649              0.0000000000D+00
   current occupation vector 
     5  1  1  0
     5  1  1  0
       1           -93.612909320987043              0.1755158362D+02
   current occupation vector 
     5  1  1  0
     5  1  1  0
       2           -97.962156405103059              0.1755156870D+02
   current occupation vector 
     5  1  1  0
     5  1  1  0
       3          -100.322485559115407              0.6733934389D+01
   current occupation vector 
     5  1  1  0
     5  1  1  0
       4           -95.169387386913343              0.6729934258D+01
   current occupation vector 
     5  1  1  0
     5  1  1  0
       5          -100.234778634309052              0.6980724363D+01
   current occupation vector 
     5  1  1  0
     5  1  1  0
       6           -94.979588059762406              0.6981119013D+01
   current occupation vector 
     5  1  1  0
     5  1  1  0
       7          -100.226242585347720              0.6994244678D+01
   current occupation vector 
     5  1  1  0
     5  1  1  0
       8           -94.973710096474193              0.6994269323D+01
   current occupation vector 
     5  1  1  0
     5  1  1  0
       9          -107.422297396314022              0.5881456673D+01
   current occupation vector 
     5  1  1  0
     5  1  1  0
      10          -110.588452920055104              0.1329738193D+01
   current occupation vector 
     5  1  1  0
     5  1  1  0
      11          -112.379336599515938              0.1039135206D+01
   current occupation vector 
     5  1  1  0
     5  1  1  0
      12          -112.503285115479656              0.4935585054D+00
   current occupation vector 
     5  1  1  0
     5  1  1  0
      13          -112.520333706217173              0.1269454445D+00
   current occupation vector 
     5  1  1  0
     5  1  1  0
      14          -112.525495729952240              0.8311694085D-01
   current occupation vector 
     5  1  1  0
     5  1  1  0
      15          -112.525875903746879              0.2411652078D-01
   current occupation vector 
     5  1  1  0
     5  1  1  0
      16          -112.526204930130802              0.3416287964D-01
   current occupation vector 
     5  1  1  0
     5  1  1  0
      17          -112.526331520880348              0.2430294011D-01
   current occupation vector 
     5  1  1  0
     5  1  1  0
      18          -112.526357499491297              0.1436298722D-01
   current occupation vector 
     5  1  1  0
     5  1  1  0
      19          -112.526357728790515              0.1240689086D-02
   current occupation vector 
     5  1  1  0
     5  1  1  0
      20          -112.526357730508721              0.7827004554D-04
   current occupation vector 
     5  1  1  0
     5  1  1  0
      21          -112.526357730612574              0.1493101762D-04
   current occupation vector 
     5  1  1  0
     5  1  1  0
      22          -112.526357730613370              0.2160738834D-05
   current occupation vector 
     5  1  1  0
     5  1  1  0
      23          -112.526357730614222              0.3423225887D-06
   current occupation vector 
     5  1  1  0
     5  1  1  0
      24          -112.526357730613597              0.1734665609D-06
   current occupation vector 
     5  1  1  0
     5  1  1  0
      25          -112.526357730615899              0.4808325071D-08
   current occupation vector 
     5  1  1  0
     5  1  1  0
      26          -112.526357730614421              0.4445697144D-08
   current occupation vector 
     5  1  1  0
     5  1  1  0
      27          -112.526357730614137              0.5282061455D-08
   current occupation vector 
     5  1  1  0
     5  1  1  0
      28          -112.526357730613825              0.1905564151D-08
   current occupation vector 
     5  1  1  0
     5  1  1  0
      29          -112.526357730613427              0.1726776500D-09
   current occupation vector 
     5  1  1  0
     5  1  1  0
      30          -112.526357730615672              0.1198920963D-09
   current occupation vector 
     5  1  1  0
     5  1  1  0
      31          -112.526357730614137              0.1076816414D-09
   current occupation vector 
     5  1  1  0
     5  1  1  0
      32          -112.526357730613938              0.1222150159D-09
   current occupation vector 
     5  1  1  0
     5  1  1  0

  SCF has converged.

 Density matrix saved to file den.dat
 total electron number:   13.9999999999999     
     E(SCF)=      -112.526357730613881              0.4099884321D-10

  Eigenvector printing suppressed.

 @PUTMOS-I, Writing converged MOs to NEWMOS. 
 @PUTMOS-I, Symmetry   1 Full Blocks 21 Partial Blocksize   2
 @PUTMOS-I, Symmetry   2 Full Blocks 13 Partial Blocksize   0
 @PUTMOS-I, Symmetry   3 Full Blocks 13 Partial Blocksize   0
 @PUTMOS-I, Symmetry   4 Full Blocks  7 Partial Blocksize   0
 @PUTFOCK-I, Writing converged Fock matrix to NEWFOCK. 
 @PUTFOCK-I, Symmetry   1 Full Blocks 21 Partial Blocksize   2
 @PUTFOCK-I, Symmetry   2 Full Blocks 13 Partial Blocksize   0
 @PUTFOCK-I, Symmetry   3 Full Blocks 13 Partial Blocksize   0
 @PUTFOCK-I, Symmetry   4 Full Blocks  7 Partial Blocksize   0


 
  ORBITAL EIGENVALUES (ALPHA)  (1H = 27.2113834 eV)

       MO #        E(hartree)               E(eV)           FULLSYM    COMPSYM
       ----   --------------------   --------------------   -------   ---------
    1     1         -20.6435553487        -561.7396993326     SG+        A1 (1)
    2     2         -11.5248001267        -313.6057548553     SG+        A1 (1)
    3     3          -1.2722056502         -34.6184757115     SG+        A1 (1)
    4     4          -0.8060587999         -21.9339750459     SG+        A1 (1)
    5     5          -0.5273650736         -14.3503332092     SG+        A1 (1)
    6   139          -0.4950279820         -13.4703962116      PI        B2 (3)
    7    87          -0.4950279820         -13.4703962116      PI        B1 (2)
  +++++++++++++++++++++++++++++++++++++++++++++++++++++++++++++++++++++++++++++
    8    88          -0.0088996821          -0.2421726608      PI        B1 (2)
    9   140          -0.0088996821          -0.2421726608      PI        B2 (3)
   10     6           0.0605163883           1.6467346435     SG+        A1 (1)
   11     7           0.0685188201           1.8644918828     SG+        A1 (1)
   12   141           0.0820855206           2.2336605720      PI        B2 (3)
   13    89           0.0820855206           2.2336605720      PI        B1 (2)
   14     8           0.1565709187           4.2605112975     SG+        A1 (1)
   15   142           0.1798069128           4.8927948415      PI        B2 (3)
   16    90           0.1798069128           4.8927948415      PI        B1 (2)
   17     9           0.1943533244           5.2886228260     SG+        A1 (1)
   18    10           0.2219789740           6.0403549677      DE        A1 (1)
   19   191           0.2219789740           6.0403549677      DE        A2 (4)
   20    91           0.2848962302           7.7524205497      PI        B1 (2)
   21   143           0.2848962302           7.7524205497      PI        B2 (3)
   22    11           0.3009936008           8.1904522711     SG+        A1 (1)
   23    12           0.3087156705           8.4005804724     SG+        A1 (1)
   24    92           0.4058139725          11.0427595952      PI        B1 (2)
   25   144           0.4058139725          11.0427595952      PI        B2 (3)
   26    13           0.4184152797          11.3856585955     SG+        A1 (1)
   27    14           0.5136506172          13.9771438795     SG+        A1 (1)
   28    15           0.5500543552          14.9677399489      DE        A1 (1)
   29   192           0.5500543552          14.9677399489      DE        A2 (4)
   30   145           0.6228123081          16.9475845012      PI        B2 (3)
   31    93           0.6228123081          16.9475845012      PI        B1 (2)
   32    16           0.7034709706          19.1424182905     SG+        A1 (1)
   33    94           0.7308866445          19.8884367046      PH        B1 (2)
   34   146           0.7308866445          19.8884367046      PH        B2 (3)
   35   193           0.7377205426          20.0743965274      DE        A2 (4)
   36    17           0.7377205426          20.0743965274      DE        A1 (1)
   37    95           0.7751913338          21.0940285923      PI        B1 (2)
   38   147           0.7751913338          21.0940285923      PI        B2 (3)
   39    18           0.8178231254          22.2540986192     SG+        A1 (1)
   40    19           0.8577695240          23.3410953866      DE        A1 (1)
   41   194           0.8577695240          23.3410953866      DE        A2 (4)
   42   148           0.8815757381          23.9888954064      PI        B2 (3)
   43    96           0.8815757381          23.9888954064      PI        B1 (2)
   44    20           0.8877004758          24.1555579911     SG+        A1 (1)
   45   149           1.0423920112          28.3649286696      PI        B2 (3)
   46    97           1.0423920112          28.3649286696      PI        B1 (2)
   47    21           1.1357915123          30.9064583045     SG+        A1 (1)
   48    22           1.3558172255          36.8936623421     SG+        A1 (1)
   49    98           1.4203319751          38.6491979293      PH        B1 (2)
   50   150           1.4203319751          38.6491979293      PH        B2 (3)
   51    99           1.4824021950          40.3382144803      PI        B1 (2)
   52   151           1.4824021950          40.3382144803      PI        B2 (3)
   53    23           1.5860668560          43.1590733170      DE        A1 (1)
   54   195           1.5860668560          43.1590733170      DE        A2 (4)
   55    24           1.5872984562          43.1925868631     SG+        A1 (1)
   56   152           1.6387724383          44.5932651234      PI        B2 (3)
   57   100           1.6387724383          44.5932651234      PI        B1 (2)
   58    25           1.6735259748          45.5389569308      DE        A1 (1)
   59   196           1.6735259748          45.5389569308      DE        A2 (4)
   60    26           1.9201544549          52.2500590592     SG+        A1 (1)
   61    27           1.9405157463          52.8041179655     SG+        A1 (1)
   62   153           2.0642562293          56.1712676918      PI        B2 (3)
   63   101           2.0642562293          56.1712676918      PI        B1 (2)
   64   197           2.0660920696          56.2212234464      PI        A2 (4)
   65    28           2.0660920696          56.2212234464      PI        A1 (1)
   66    29           2.1236899481          57.7885413995      DE        A1 (1)
   67   198           2.1236899481          57.7885413995      DE        A2 (4)
   68   102           2.1971536349          59.7875899482      PH        B1 (2)
   69   154           2.1971536349          59.7875899482      PH        B2 (3)
   70   103           2.2077255555          60.0752665328      PH        B1 (2)
   71   155           2.2077255555          60.0752665328      PH        B2 (3)
   72    30           2.2181987468          60.3602565553     SG+        A1 (1)
   73   104           2.2193214261          60.3908062142      PI        B1 (2)
   74   156           2.2193214261          60.3908062142      PI        B2 (3)
   75    31           2.2809570181          62.0679959393      DE        A1 (1)
   76   199           2.2809570181          62.0679959393      DE        A2 (4)
   77    32           2.3886951652          64.9996999646     SG+        A1 (1)
   78   157           2.5027242955          68.1025903507      PI        B2 (3)
   79   105           2.5027242955          68.1025903507      PI        B1 (2)
   80   158           2.5995176582          70.7364716528      PI        B2 (3)
   81   106           2.5995176582          70.7364716528      PI        B1 (2)
   82    33           2.6240206617          71.4032322762      DE        A1 (1)
   83   200           2.6240206617          71.4032322762      DE        A2 (4)
   84    34           2.6432266686          71.9258542926     SG+        A1 (1)
   85    35           2.8945818256          78.7655758398     SG+        A1 (1)
   86   107           3.3656136682          91.5830039027      PI        B1 (2)
   87   159           3.3656136682          91.5830039027      PI        B2 (3)
   88    36           3.7109017487         100.9787702424      PI        A1 (1)
   89   201           3.7109017487         100.9787702424      PI        A2 (4)
   90    37           3.8843695397         105.6990688129     SG+        A1 (1)
   91   160           3.9041785219         106.2380986226      PH        B2 (3)
   92   108           3.9041785219         106.2380986226      PH        B1 (2)
   93    38           4.1033112242         111.6567749324     SG+        A1 (1)
   94   109           4.1410956572         112.6849416243      PH        B1 (2)
   95   161           4.1410956572         112.6849416243      PH        B2 (3)
   96   162           4.1543682430         113.0461070451      PI        B2 (3)
   97   110           4.1543682430         113.0461070451      PI        B1 (2)
   98   202           4.1732376558         113.5595698714      DE        A2 (4)
   99    39           4.1732376558         113.5595698714      DE        A1 (1)
  100   203           4.2974601618         116.9398361087      DE        A2 (4)
  101    40           4.2974601618         116.9398361087      DE        A1 (1)
  102    41           4.3842712096         119.3020848141     SG+        A1 (1)
  103   163           4.5175599154         122.9290548894      PI        B2 (3)
  104   111           4.5175599154         122.9290548894      PI        B1 (2)
  105   204           4.6529397185         126.6129266181      DE        A2 (4)
  106    42           4.6529397185         126.6129266181      DE        A1 (1)
  107    43           4.8044695448         130.7362628184     SG+        A1 (1)
  108   112           5.1293166065         139.5758007608      PI        B1 (2)
  109   164           5.1293166066         139.5758007608      PI        B2 (3)
  110    44           5.1783670417         140.9105309582     SG+        A1 (1)
  111   113           5.3481613109         145.5308679148      PI        B1 (2)
  112   165           5.3481613109         145.5308679149      PI        B2 (3)
  113    45           5.8231591561         158.4562163961      PI        A1 (1)
  114   205           5.8231591561         158.4562163961      PI        A2 (4)
  115   114           5.8941764136         160.3886942183      PH        B1 (2)
  116   166           5.8941764136         160.3886942183      PH        B2 (3)
  117    46           6.0207882587         163.8339776789     SG+        A1 (1)
  118    47           6.0850314405         165.5821235294      DE        A1 (1)
  119   206           6.0850314405         165.5821235294      DE        A2 (4)
  120   115           6.1202983495         166.5417849093      PI        B1 (2)
  121   167           6.1202983495         166.5417849093      PI        B2 (3)
  122    48           6.1743504234         168.0126166169     SG+        A1 (1)
  123   207           6.2924980575         171.2275771861      DE        A2 (4)
  124    49           6.2924980575         171.2275771862      DE        A1 (1)
  125   116           6.3488753465         172.7616812136      PH        B1 (2)
  126   168           6.3488753465         172.7616812136      PH        B2 (3)
  127    50           6.4822155882         176.3900536517      DE        A1 (1)
  128   208           6.4822155882         176.3900536517      DE        A2 (4)
  129   117           6.7642359985         184.0642191642      PI        B1 (2)
  130   169           6.7642359985         184.0642191642      PI        B2 (3)
  131    51           7.0823765675         192.7212641621     SG+        A1 (1)
  132   118           7.1894556096         195.6350330302      PI        B1 (2)
  133   170           7.1894556096         195.6350330302      PI        B2 (3)
  134    52           7.7224296095         210.1379928828     SG+        A1 (1)
  135    53           9.5073748949         258.7088233923     SG+        A1 (1)
  136   119           9.6969913191         263.8685486100      PI        B1 (2)
  137   171           9.6969913191         263.8685486100      PI        B2 (3)
  138    54          10.6600594630         290.0749651143      PI        A1 (1)
  139   209          10.6600594630         290.0749651143      PI        A2 (4)
  140    55          10.6795687768         290.6058405328     SG+        A1 (1)
  141   120          10.7338149327         292.0819534795      PH        B1 (2)
  142   172          10.7338149327         292.0819534795      PH        B2 (3)
  143    56          10.9546021922         298.0898802461      DE        A1 (1)
  144   210          10.9546021922         298.0898802461      DE        A2 (4)
  145   121          10.9783306260         298.7355637552      PI        B1 (2)
  146   173          10.9783306260         298.7355637552      PI        B2 (3)
  147    57          11.1526694525         303.4795644063     SG+        A1 (1)
  148   174          11.8966435510         323.7241288386      PH        B2 (3)
  149   122          11.8966435510         323.7241288386      PH        B1 (2)
  150   211          11.9859452049         326.1541503822      DE        A2 (4)
  151    58          11.9859452049         326.1541503823      DE        A1 (1)
  152   175          12.3116717301         335.0176197425      PI        B2 (3)
  153   123          12.3116717301         335.0176197425      PI        B1 (2)
  154    59          12.5576117508         341.7099879381     SG+        A1 (1)
  155    60          12.7261291547         346.2955796258      DE        A1 (1)
  156   212          12.7261291547         346.2955796258      DE        A2 (4)
  157   176          13.1073902760         356.6702221727      PI        B2 (3)
  158   124          13.1073902760         356.6702221728      PI        B1 (2)
  159    61          13.4575381505         366.1982302323     SG+        A1 (1)
  160    62          17.3134648988         471.1233313440     SG+        A1 (1)
  161   125          18.7047406562         508.9818693929      PI        B1 (2)
  162   177          18.7047406562         508.9818693933      PI        B2 (3)
  163    63          19.5922551088         533.1323654366     SG+        A1 (1)
  164   213          26.2507316441         714.3187232994      DE        A2 (4)
  165    64          26.2507316441         714.3187232994      DE        A1 (1)
  166   126          26.5298613809         721.9142295844      PI        B1 (2)
  167   178          26.5298613809         721.9142295845      PI        B2 (3)
  168    65          26.9869294836         734.3516849677     SG+        A1 (1)
  169   127          33.4037883798         908.9632926148      PI        B1 (2)
  170   179          33.4037883798         908.9632926151      PI        B2 (3)
  171    66          34.2969552086         933.2675976325     SG+        A1 (1)
  172    67          35.5516229316         967.4088420853     SG+        A1 (1)
  173   214          47.0746454631        1280.9662261145      DE        A2 (4)
  174    68          47.0746454631        1280.9662261146      DE        A1 (1)
  175   180          47.2635924546        1286.1077351427      PI        B2 (3)
  176   128          47.2635924546        1286.1077351427      PI        B1 (2)
  177    69          47.4673108381        1291.6511941828     SG+        A1 (1)
  178    70          63.7373746351        1734.3821381061     SG+        A1 (1)
  179   129          66.2918596601        1803.8932095105      PI        B1 (2)
  180   181          66.2918596601        1803.8932095108      PI        B2 (3)
  181    71          66.9473705171        1821.7305667615     SG+        A1 (1)
  182   182          98.5039972161        2680.4300346802      PH        B2 (3)
  183   130          98.5039972161        2680.4300346803      PH        B1 (2)
  184   215          98.5178684823        2680.8074910223      DE        A2 (4)
  185    72          98.5178684823        2680.8074910223      DE        A1 (1)
  186   131          98.5308869249        2681.1617408549      PI        B1 (2)
  187   183          98.5308869249        2681.1617408549      PI        B2 (3)
  188    73          98.5401662460        2681.4142440184     SG+        A1 (1)
  189    74         103.3128996592        2811.2869227926      DE        A1 (1)
  190   216         103.3128996593        2811.2869227938      DE        A2 (4)
  191   132         103.3150276458        2811.3448282526      PH        B1 (2)
  192   184         103.3150276458        2811.3448282526      PH        B2 (3)
  193   133         103.3357528733        2811.9087903626      PI        B1 (2)
  194   185         103.3357528733        2811.9087903626      PI        B2 (3)
  195    75         103.3448015422        2812.1550171613     SG+        A1 (1)
  196   217         114.9548011610        3128.0791680624      DE        A2 (4)
  197    76         114.9548011610        3128.0791680624      DE        A1 (1)
  198   186         115.0906902951        3131.7768993901      PI        B1 (3)
  199   134         115.0906902951        3131.7768993901      PI        B2 (2)
  200    77         115.2981838976        3137.4230873623     SG+        A1 (1)
  201   135         116.7115812848        3175.8835855611      PI        B1 (2)
  202   187         116.7115812848        3175.8835855616      PI        B2 (3)
  203    78         117.4380716092        3195.6523923139     SG+        A1 (1)
  204    79         121.8323779518        3315.2275469795     SG+        A1 (1)
  205   218         198.5572154871        5403.0165174555      DE        A2 (4)
  206    80         198.5572154871        5403.0165174555      DE        A1 (1)
  207   188         198.6602596715        5405.8204922654      PI        B2 (3)
  208   136         198.6602596715        5405.8204922655      PI        B1 (2)
  209    81         198.7650129874        5408.6709749057     SG+        A1 (1)
  210    82         216.2622926484        5884.7961602174     SG+        A1 (1)
  211   137         224.7753619397        6116.4485526147      PI        B1 (2)
  212   189         224.7753619397        6116.4485526149      PI        B2 (3)
  213    83         225.2927764344        6130.5281168069     SG+        A1 (1)
  214   138         395.2466056434       10755.2069237122      PI        B1 (2)
  215   190         395.2466056435       10755.2069237129      PI        B2 (3)
  216    84         395.8108544636       10770.5609146897     SG+        A1 (1)
  217    85         508.5726109431       13838.9643031130     SG+        A1 (1)
  218    86         895.0754449739       24356.2411051114     SG+        A1 (1)


  VSCF finished.

 @CHECKOUT-I, Total execution time (CPU/WALL):       32.89/      45.38 seconds.
--executable xvscf finished with status     0 in       45.51 seconds (walltime).
 --invoking executable--
/nfs/workspaces/public/cfour_mpi/bin/xvtran
 @GETMEM-I,  Allocated    3814 MB of main memory.
  Full RHF integral transformation
  Transformation of IIII integrals :
  1 pass through the AO integral file was required.
     4426403 AO integrals were read.
     8622841 MO integrals were written to HF2.
  Transformation of IIJJ integrals :
  1 pass through the AO integral file was required.
    10056819 AO integrals were read.
    14371658 MO integrals were written to HF2.
  Transformation of IJIJ integrals :
  1 pass through the AO integral file was required.
    19100171 AO integrals were read.
    26732824 MO integrals were written to HF2.
  Transformation of IJKL integrals :
  1 pass through the AO integral file was required.
    14115122 AO integrals were read.
    18099728 MO integrals were written to HF2.
  Summary of active molecular orbitals: 
------------------------------------------------------------------------
 
  Index      Eigenvalue    Symmetry    Index      Eigenvalue    Symmetry
------------------------------------------------------------------------
     1       -20.6435553        1       110         4.1410957        2
     2       -11.5248001        1       111         4.1543682        2
     3        -1.2722057        1       112         4.5175599        2
     4        -0.8060588        1       113         5.1293166        2
     5        -0.5273651        1       114         5.3481613        2
     6        -0.4950280        2       115         5.8941764        2
     7        -0.4950280        3       116         6.1202983        2
     8         0.0605164        1       117         6.3488753        2
     9         0.0685188        1       118         6.7642360        2
    10         0.1565709        1       119         7.1894556        2
    11         0.1943533        1       120         9.6969913        2
    12         0.2219790        1       121        10.7338149        2
    13         0.3009936        1       122        10.9783306        2
    14         0.3087157        1       123        11.8966436        2
    15         0.4184153        1       124        12.3116717        2
    16         0.5136506        1       125        13.1073903        2
    17         0.5500544        1       126        18.7047407        2
    18         0.7034710        1       127        26.5298614        2
    19         0.7377205        1       128        33.4037884        2
    20         0.8178231        1       129        47.2635925        2
    21         0.8577695        1       130        66.2918597        2
    22         0.8877005        1       131        98.5039972        2
    23         1.1357915        1       132        98.5308869        2
    24         1.3558172        1       133       103.3150276        2
    25         1.5860669        1       134       103.3357529        2
    26         1.5872985        1       135       115.0906903        2
    27         1.6735260        1       136       116.7115813        2
    28         1.9201545        1       137       198.6602597        2
    29         1.9405157        1       138       224.7753619        2
    30         2.0660921        1       139       395.2466056        2
    31         2.1236899        1       140        -0.0088997        3
    32         2.2181987        1       141         0.0820855        3
    33         2.2809570        1       142         0.1798069        3
    34         2.3886952        1       143         0.2848962        3
    35         2.6240207        1       144         0.4058140        3
    36         2.6432267        1       145         0.6228123        3
    37         2.8945818        1       146         0.7308866        3
    38         3.7109017        1       147         0.7751913        3
    39         3.8843695        1       148         0.8815757        3
    40         4.1033112        1       149         1.0423920        3
    41         4.1732377        1       150         1.4203320        3
    42         4.2974602        1       151         1.4824022        3
    43         4.3842712        1       152         1.6387724        3
    44         4.6529397        1       153         2.0642562        3
    45         4.8044695        1       154         2.1971536        3
    46         5.1783670        1       155         2.2077256        3
    47         5.8231592        1       156         2.2193214        3
    48         6.0207883        1       157         2.5027243        3
    49         6.0850314        1       158         2.5995177        3
    50         6.1743504        1       159         3.3656137        3
    51         6.2924981        1       160         3.9041785        3
    52         6.4822156        1       161         4.1410957        3
    53         7.0823766        1       162         4.1543682        3
    54         7.7224296        1       163         4.5175599        3
    55         9.5073749        1       164         5.1293166        3
    56        10.6600595        1       165         5.3481613        3
    57        10.6795688        1       166         5.8941764        3
    58        10.9546022        1       167         6.1202983        3
    59        11.1526695        1       168         6.3488753        3
    60        11.9859452        1       169         6.7642360        3
    61        12.5576118        1       170         7.1894556        3
    62        12.7261292        1       171         9.6969913        3
    63        13.4575382        1       172        10.7338149        3
    64        17.3134649        1       173        10.9783306        3
    65        19.5922551        1       174        11.8966436        3
    66        26.2507316        1       175        12.3116717        3
    67        26.9869295        1       176        13.1073903        3
    68        34.2969552        1       177        18.7047407        3
    69        35.5516229        1       178        26.5298614        3
    70        47.0746455        1       179        33.4037884        3
    71        47.4673108        1       180        47.2635925        3
    72        63.7373746        1       181        66.2918597        3
    73        66.9473705        1       182        98.5039972        3
    74        98.5178685        1       183        98.5308869        3
    75        98.5401662        1       184       103.3150276        3
    76       103.3128997        1       185       103.3357529        3
    77       103.3448015        1       186       115.0906903        3
    78       114.9548012        1       187       116.7115813        3
    79       115.2981839        1       188       198.6602597        3
    80       117.4380716        1       189       224.7753619        3
    81       121.8323780        1       190       395.2466056        3
    82       198.5572155        1       191         0.2219790        4
    83       198.7650130        1       192         0.5500544        4
    84       216.2622926        1       193         0.7377205        4
    85       225.2927764        1       194         0.8577695        4
    86       395.8108545        1       195         1.5860669        4
    87       508.5726109        1       196         1.6735260        4
    88       895.0754450        1       197         2.0660921        4
    89        -0.0088997        2       198         2.1236899        4
    90         0.0820855        2       199         2.2809570        4
    91         0.1798069        2       200         2.6240207        4
    92         0.2848962        2       201         3.7109017        4
    93         0.4058140        2       202         4.1732377        4
    94         0.6228123        2       203         4.2974602        4
    95         0.7308866        2       204         4.6529397        4
    96         0.7751913        2       205         5.8231592        4
    97         0.8815757        2       206         6.0850314        4
    98         1.0423920        2       207         6.2924981        4
    99         1.4203320        2       208         6.4822156        4
   100         1.4824022        2       209        10.6600595        4
   101         1.6387724        2       210        10.9546022        4
   102         2.0642562        2       211        11.9859452        4
   103         2.1971536        2       212        12.7261292        4
   104         2.2077256        2       213        26.2507316        4
   105         2.2193214        2       214        47.0746455        4
   106         2.5027243        2       215        98.5178685        4
   107         2.5995177        2       216       103.3128997        4
   108         3.3656137        2       217       114.9548012        4
   109         3.9041785        2       218       198.5572155        4
------------------------------------------------------------------------
  -20.6435553486989       -11.5248001266727       -1.27220565020872     
 -0.806058799859527      -0.527365073589943      -0.495027981986942     
 -0.495027981986961       6.051638828264985E-002  6.851882006217429E-002
  0.156570918679822       0.194353324423705       0.221978973980800     
  0.300993600753521       0.308715670532531       0.418415279670667     
  0.513650617244360       0.550054355152058       0.703470970553788     
  0.737720542625891       0.817823125420623       0.857769524006420     
  0.887700475789412        1.13579151233215        1.35581722545246     
   1.58606685601297        1.58729845624470        1.67352597482521     
   1.92015445488716        1.94051574627024        2.06609206963010     
   2.12368994806579        2.21819874675357        2.28095701813159     
   2.38869516515076        2.62402066174088        2.64322666860739     
[...]
 Convergence information after    15 iterations: 
 Largest element of residual vector : -0.12470545E-05.
 Largest element of DIIS residual   : -0.67358464E-06.
 Convergence information after    16 iterations: 
 Largest element of residual vector : -0.67900062E-06.
 Largest element of DIIS residual   : -0.24039368E-06.
 Convergence information after    17 iterations: 
 Largest element of residual vector : -0.31002987E-06.
 Largest element of DIIS residual   : -0.14924648E-06.
 Convergence information after    18 iterations: 
 Largest element of residual vector : -0.81519202E-07.
 Largest element of DIIS residual   : -0.30483460E-07.
 Perturbed amplitude equations converged in    18 iterations.
  Dominant contributions to perturbed wavefunction:
    7    7  140   45  -0.2352209521 ABAB
    7    7   45  140  -0.2352209521 ABAB
    7    7  140   22  -0.2192007899 ABAB
    7    7   22  140  -0.2192007899 ABAB
    7    7  140   39  -0.1960290352 ABAB
    7    7   39  140  -0.1960290352 ABAB
    7    0   36    0   0.1857885350 AA  
    7    7  140   28   0.1834262222 ABAB
    7    7   28  140   0.1834262222 ABAB
    7    7  140   57  -0.1592099598 ABAB
    7    7   57  140  -0.1592099598 ABAB
    7    0   45    0   0.1576797403 AA  
    7    7  140   32  -0.1571677891 ABAB
    7    7   32  140  -0.1571677891 ABAB
    7    0   39    0   0.1517547631 AA  
    7    7  140   29  -0.1489721037 ABAB
    7    7   29  140  -0.1489721037 ABAB
    7    0   22    0   0.1483383008 AA  
    7    6   45   89  -0.1467245544 ABAB
    6    7   89   45  -0.1467245544 ABAB
  norm of converged amps    1.64345552642634     
 Starting iterative solution of the perturbed Lambda equations.
 The DIIS procedure is used to accelerate convergence.
 Convergence criterion is 10**(-7).
 Maximum number of iterations is 100.
 Convergence information after     1 iterations: 
 Largest element of residual vector :  0.78358753E-01.
 Largest element of DIIS residual   :  0.78358753E-01.
 Convergence information after     2 iterations: 
 Largest element of residual vector :  0.17060613E-01.
 Largest element of DIIS residual   :  0.13048038E-01.
 Convergence information after     3 iterations: 
 Largest element of residual vector :  0.69352813E-02.
 Largest element of DIIS residual   : -0.62488034E-02.
 Convergence information after     4 iterations: 
 Largest element of residual vector : -0.36972107E-02.
 Largest element of DIIS residual   : -0.33774434E-02.
 Convergence information after     5 iterations: 
 Largest element of residual vector : -0.32830831E-02.
 Largest element of DIIS residual   : -0.26896570E-02.
 Convergence information after     6 iterations: 
 Largest element of residual vector : -0.17604668E-02.
 Largest element of DIIS residual   : -0.78445942E-03.
 Convergence information after     7 iterations: 
 Largest element of residual vector : -0.83172629E-03.
 Largest element of DIIS residual   : -0.41350441E-03.
 Convergence information after     8 iterations: 
 Largest element of residual vector : -0.30069702E-03.
 Largest element of DIIS residual   : -0.18988263E-03.
 Convergence information after     9 iterations: 
 Largest element of residual vector : -0.13150960E-03.
 Largest element of DIIS residual   : -0.74731556E-04.
 Convergence information after    10 iterations: 
 Largest element of residual vector : -0.66011610E-04.
 Largest element of DIIS residual   : -0.32235655E-04.
 Convergence information after    11 iterations: 
 Largest element of residual vector : -0.15847326E-04.
 Largest element of DIIS residual   : -0.64920964E-05.
 Convergence information after    12 iterations: 
 Largest element of residual vector : -0.59260498E-05.
 Largest element of DIIS residual   : -0.36831347E-05.
 Convergence information after    13 iterations: 
 Largest element of residual vector : -0.18396841E-05.
 Largest element of DIIS residual   : -0.16305365E-05.
 Convergence information after    14 iterations: 
 Largest element of residual vector : -0.15531005E-05.
 Largest element of DIIS residual   : -0.98297996E-06.
 Convergence information after    15 iterations: 
 Largest element of residual vector : -0.80574385E-06.
 Largest element of DIIS residual   : -0.43147074E-06.
 Convergence information after    16 iterations: 
 Largest element of residual vector : -0.41887510E-06.
 Largest element of DIIS residual   : -0.14897946E-06.
 Convergence information after    17 iterations: 
 Largest element of residual vector : -0.19403385E-06.
 Largest element of DIIS residual   : -0.92274719E-07.
 Perturbed Lambda equations converged in    17 iterations.
  Dominant contributions to perturbed wavefunction:
    7    7  140   45  -0.1904252517 ABAB
    7    7   45  140  -0.1904252517 ABAB
    7    7  140   22  -0.1766748652 ABAB
    7    7   22  140  -0.1766748652 ABAB
    7    7  140   39  -0.1567421677 ABAB
    7    7   39  140  -0.1567421677 ABAB
    7    7  140   28   0.1505484996 ABAB
    7    7   28  140   0.1505484996 ABAB
    7    7  140   57  -0.1277795279 ABAB
    7    7   57  140  -0.1277795279 ABAB
    7    7  140   32  -0.1273629321 ABAB
    7    7   32  140  -0.1273629321 ABAB
    7    6   45   89  -0.1177826586 ABAB
    6    7   89   45  -0.1177826586 ABAB
    7    7  140   29  -0.1168975456 ABAB
    7    7   29  140  -0.1168975456 ABAB
    7    7  140   54   0.1103012197 ABAB
    7    7   54  140   0.1103012197 ABAB
    7    6   22   89  -0.1084576054 ABAB
    6    7   89   22  -0.1084576054 ABAB
        The DBOC first-order density matrix is being calculated 
             (Symmetry block 3, perturbation   2)
 term   2.82187211038381     
 final tnorm  0.783955885368584     
  norm contr. I: |<0|L dT/dx|0>|^2   0.000000000000000E+000
  norm contr. II: <0|[nabla(1+L)e-T][nabla e^T]|0>   2.82187211038381     
  total norm contribution   2.82187211038381     
 oo  9.676368832483049E-003
 vv  -21.1069568829462     
 vo  5.964946709952636E-002
  Correlated perturbed 1-el contribution to DBOC  -21.0376310470141       cm**-1
  SUM_I |dc_I/dx|^2 contribution to DBOC   10.6235290448555       cm**-1
 
 
  The total diagonal Born-Oppenheimer correction (DBOC) is:      0.0041413308 a.u.
  The total diagonal Born-Oppenheimer correction (DBOC) is:        908.917048 cm-1
 
 Total CC energy including DBOC  -113.071177471411     
 First-order density matrix is being calculated  (Symmetry block 3, perturbation   2)
 Calculation of the contributions of <pq||rs> to dI(i,j)/dx required   3.2 seconds.
 Calculation of the contributions of <pq||rs> to dI(a,b)/dx required  15.7 seconds.
 Calculation of the contributions of <pq||rs> to dI(i,a)/dx required   8.1 seconds.
 First-order Z-vector equations are solved for 1 perturbation.
 Convergence reached after  19 iterations.
        U*G(pq,rs) contribution is being calculated
             (Symmetry block 3, perturbation   2)

 CCSD contribution to force constants 

        0.0000000000        0.0000000000        0.0000000000
        0.0000000000        0.0000000000        0.0000000000
        0.0000000000        0.0000000000        0.0000000000
        0.0000000000        0.0000000000        0.0000000000
        0.0000000000        0.0000000000        0.0000000000
        0.0000000000        0.0000000000        0.0000000000
        0.0000000000        0.0000000000        0.0000000000
        0.0000000000        0.0000000000        0.0000000000
        0.0000000000        0.0000000000        0.0000000000
        0.0000000000        0.0000000000        0.0000000000
        0.0000000000        0.0000000000        0.0000000000
        0.0000000000       -5.1571658037        5.1571658037

 CCSD contribution to dipole derivatives 

        0.0000000000        0.0000000000        0.0000000000
        0.0000000000        0.0000000000        0.0000000000
        0.0000000000        0.0000000000        0.0000000000
        0.0000000000        0.0000000000       -0.0574201726
        0.0000000000        0.0000000000        0.0000000000
        0.0000000000        0.0000000000        0.0000000000
 @CHECKOUT-I, Total execution time (CPU/WALL):     1356.96/     920.52 seconds.
--executable xsdcc finished with status     0 in      920.88 seconds (walltime).
 --invoking executable--
/nfs/workspaces/public/cfour_mpi/bin/xanti
 @GETMEM-I,  Allocated    3814 MB of main memory.
 CCSD MO derivative gammas will be sorted to Mulliken order.
 @CHECKOUT-I, Total execution time (CPU/WALL):       10.34/      27.63 seconds.
--executable xanti finished with status     0 in       27.73 seconds (walltime).
 --invoking executable--
/nfs/workspaces/public/cfour_mpi/bin/xbcktrn
 @GETMEM-I,  Allocated    3814 MB of main memory.
 CCSD MO derivative gammas will be transformed to the AO basis.
 @CHECKOUT-I, Total execution time (CPU/WALL):       53.53/      23.16 seconds.
--executable xbcktrn finished with status     0 in       23.21 seconds (walltime).
 --invoking executable--
/nfs/workspaces/public/cfour_mpi/bin/xvdint
 @GETMEM-I,  Allocated    3814 MB of main memory.
 One- and two-electron integral derivatives are calculated
 for RHF-CC/MBPT hessians and dipole derivatives.
 Spherical gaussians are used.
  magnet F F
                    8722  records have been written to the Sort file.
  Total length of Sort file :             178609116  words.
 Evaluation of 2el integral derivatives

                      Two-electron integral gradient
                      ------------------------------

                         C #1 z     0.0000000000
                         O #2 z     0.0000000000


 C #1       0.0000000000            0.0761661941            0.0000000000
 O #2       0.0000000000           -0.0761661941            0.0000000000


 Evaluation of 2e integral derivatives required  424.41 seconds.
  contribution to Hessian
        0.0000000000        0.0000000000        0.0000000000
        0.0000000000        0.0761661941       -0.0761661941
 @CHECKOUT-I, Total execution time (CPU/WALL):      424.40/     187.97 seconds.
--executable xvdint finished with status     0 in      188.33 seconds (walltime).
 --invoking executable--
/nfs/workspaces/public/cfour_mpi/bin/xanti
 @GETMEM-I,  Allocated    3814 MB of main memory.
 CCSD MO gammas will be sorted to Mulliken order.
 @CHECKOUT-I, Total execution time (CPU/WALL):       14.43/      65.47 seconds.
--executable xanti finished with status     0 in       65.58 seconds (walltime).
 --invoking executable--
/nfs/workspaces/public/cfour_mpi/bin/xbcktrn
 @GETMEM-I,  Allocated    3814 MB of main memory.
 CCSD MO gammas will be transformed to the AO basis.
 @CHECKOUT-I, Total execution time (CPU/WALL):       43.86/      12.98 seconds.
--executable xbcktrn finished with status     0 in       13.07 seconds (walltime).
 --invoking executable--
/nfs/workspaces/public/cfour_mpi/bin/xvdint
 @GETMEM-I,  Allocated    3814 MB of main memory.
 One- and two-electron integral derivatives are calculated
 for RHF-CC/MBPT hessians and dipole derivatives.
 Spherical gaussians are used.
  magnet F F

                     Kinetic energy integral gradient
                     --------------------------------

                         C #1 z    -0.5127592860
                         O #2 z     0.5127592860


 C #1       0.0000000000            0.0000000000           -0.5127592860
 O #2       0.0000000000            0.0000000000            0.5127592860



                   Nuclear attraction integral gradient
                   ------------------------------------

                         C #1 z    13.4525593197
                         O #2 z   -13.4525593197


 C #1       0.0000000000            0.0000000000           13.4525593197
 O #2       0.0000000000            0.0000000000          -13.4525593197



                      Reorthonormalization gradient
                      -----------------------------

                         C #1 z     0.0000000000
                         O #2 z     0.0000000000


 C #1       0.0000000000            0.0000000000            0.0000000000
 O #2       0.0000000000            0.0000000000            0.0000000000



                     Kinetic energy integral Hessian
                     -------------------------------


           Symmetry 1

           C #1 z      O #2 z

 C #1 z    0.539911
 O #2 z   -0.539911    0.539911


           Symmetry 2

           C #1 x      O #2 x

 C #1 x   -0.384476
 O #2 x    0.384476   -0.384476


           Symmetry 3

           C #1 y      O #2 y

 C #1 y   -0.384476
 O #2 y    0.384476   -0.384476




           C #1 x      C #1 y      C #1 z      O #2 x      O #2 y      O #2 z

 C #1 x   -0.384476
 C #1 y    0.000000   -0.384476
 C #1 z    0.000000    0.000000    0.539911

 O #2 x    0.384476    0.000000    0.000000   -0.384476
 O #2 y    0.000000    0.384476    0.000000    0.000000   -0.384476
 O #2 z    0.000000    0.000000   -0.539911    0.000000    0.000000    0.539911




                   Nuclear attraction integral Hessian
                   -----------------------------------


           Symmetry 1

           C #1 z      O #2 z

 C #1 z   -8.147961
 O #2 z    8.147961   -8.147961


           Symmetry 2

           C #1 x      O #2 x

 C #1 x    7.078929
 O #2 x   -7.078929    7.078929


           Symmetry 3

           C #1 y      O #2 y

 C #1 y    7.078929
 O #2 y   -7.078929    7.078929




           C #1 x      C #1 y      C #1 z      O #2 x      O #2 y      O #2 z

 C #1 x    7.078929
 C #1 y    0.000000    7.078929
 C #1 z    0.000000    0.000000   -8.147961

 O #2 x   -7.078929    0.000000    0.000000    7.078929
 O #2 y    0.000000   -7.078929    0.000000    0.000000    7.078929
 O #2 z    0.000000    0.000000    8.147961    0.000000    0.000000   -8.147961




                Highest order reorthonormalization Hessian
                ------------------------------------------


           Symmetry 1

           C #1 z      O #2 z

 C #1 z    0.000000
 O #2 z    0.000000    0.000000


           Symmetry 2

           C #1 x      O #2 x

 C #1 x    0.000000
 O #2 x    0.000000    0.000000


           Symmetry 3

           C #1 y      O #2 y

 C #1 y    0.000000
 O #2 y    0.000000    0.000000




           C #1 x      C #1 y      C #1 z      O #2 x      O #2 y      O #2 z




                Electronic contributions to dipole moment
                -----------------------------------------

                               au             Debye

                    z      0.50361117      1.28005214

  Conversion factor used: 1 a.u. =   2.54174691 Debye 



   Electronic contributions to static part of dipole moment derivatives
   --------------------------------------------------------------------


                     Total dipole moment derivatives
                     -------------------------------


           Symmetry 1
                              Ez

               C #1 z    -5.65668074
               O #2 z    -8.34331926

           Symmetry 2
                              Ex

               C #1 x    -5.67405052
               O #2 x    -8.32594948

           Symmetry 3
                              Ey

               C #1 y    -5.67405052
               O #2 y    -8.32594948



                       Ex          Ey          Ez

      C #1    x   -5.674051    0.000000    0.000000
      C #1    y    0.000000   -5.674051    0.000000
      C #1    z    0.000000    0.000000   -5.656681

      O #2    x   -8.325949    0.000000    0.000000
      O #2    y    0.000000   -8.325949    0.000000
      O #2    z    0.000000    0.000000   -8.343319

 Evaluation of 1e integral derivatives required    0.97 seconds.
                    8815  records have been written to the Sort file.
  Total length of Sort file :             180513570  words.
 Evaluation of 2el integral derivatives

                      Two-electron integral gradient
                      ------------------------------

                         C #1 z    -7.2019227775
                         O #2 z     7.2019227775


 C #1       0.0000000000            0.0000000000           -7.2019227775
 O #2       0.0000000000            0.0000000000            7.2019227775


 Evaluation of 2e integral derivatives required  720.25 seconds.

                            Molecular gradient
                            ------------------

                         C #1 z     0.5767138316
                         O #2 z    -0.5767138316


 C #1       0.0000000000            0.0000000000            0.5767138316
 O #2       0.0000000000            0.0000000000           -0.5767138316


  Molecular gradient norm 0.816E+00

                            Molecular hessian
                            -----------------


           Symmetry 1

           C #1 z      O #2 z

 C #1 z   14.638721
 O #2 z  -14.638721   14.638721


           Symmetry 2

           C #1 x      O #2 x

 C #1 x    5.329372
 O #2 x   -5.329372    5.329372


           Symmetry 3

           C #1 y      O #2 y

 C #1 y    5.329372
 O #2 y   -5.329372    5.329372




           C #1 x      C #1 y      C #1 z      O #2 x      O #2 y      O #2 z

 C #1 x    5.329372
 C #1 y    0.000000    5.329372
 C #1 z    0.000000    0.000000   14.638721

 O #2 x   -5.329372    0.000000    0.000000    5.329372
 O #2 y    0.000000   -5.329372    0.000000    0.000000    5.329372
 O #2 z    0.000000    0.000000  -14.638721    0.000000    0.000000   14.638721




                           Total dipole moment
                           -------------------

                               au             Debye

                    z      0.50028732      1.27160376

  Conversion factor used: 1 a.u. =   2.54174691 Debye 



                     Total dipole moment derivatives
                     -------------------------------


           Symmetry 1
                              Ez

               C #1 z     0.57396151
               O #2 z    -0.57396151

           Symmetry 2
                              Ex

               C #1 x     0.17162913
               O #2 x    -0.17162913

           Symmetry 3
                              Ey

               C #1 y     0.17162913
               O #2 y    -0.17162913



                       Ex          Ey          Ez

      C #1    x    0.171629    0.000000    0.000000
      C #1    y    0.000000    0.171629    0.000000
      C #1    z    0.000000    0.000000    0.573962

      O #2    x   -0.171629    0.000000    0.000000
      O #2    y    0.000000   -0.171629    0.000000
      O #2    z    0.000000    0.000000   -0.573962

 @CHECKOUT-I, Total execution time (CPU/WALL):      721.21/     323.52 seconds.
--executable xvdint finished with status     0 in      323.79 seconds (walltime).
 --invoking executable--
/nfs/workspaces/public/cfour_mpi/bin/xjoda
  @GTFLGS-I, Hessian will be transformed to curvilinear coordinates.
  @GTFLGS-I, Hessian will be transformed to curvilinear coordinates.
  igrd and ihes are                      0                     1
  gradient from JOBARC 
   0.000000000000000   0.000000000000000   0.576713831640980
   0.000000000000000   0.000000000000000  -0.576713831640980
 
  @PROJFCM-I, Projecting force constant matrix onto totally symmetric subspace.
  Largest difference between matrix elements of symmetrized
  and unsymmetrized FCM :     0.9148237723E-13.
  read isotopes from ZMAT file 
 
  Summary of diagonal Born-Oppenheimer correction at the correlated level
  The total diagonal Born-Oppenheimer correction (DBOC) is:      0.0041413308 a.u.
  The total diagonal Born-Oppenheimer correction (DBOC) is:        908.917048 cm-1
  The total diagonal Born-Oppenheimer correction (DBOC) is:            10.873 kJ/mole
  hellooooooo 
  readis is  F
 
 @CHECKOUT-I, Total execution time (CPU/WALL):        0.01/       0.06 seconds.
--executable xjoda finished with status     0 in        0.16 seconds (walltime).
  The final electronic energy is      -113.071177471410621 a.u. 
  This computation required                         9608.18 seconds (walltime).
