 --invoking executable--
/nfs/workspaces/public/cfour_mpi/bin/xjoda


   *************************************************************************
         <<<     CCCCCC     CCCCCC   |||     CCCCCC     CCCCCC   >>>
       <<<      CCC        CCC       |||    CCC        CCC         >>>
      <<<      CCC        CCC        |||   CCC        CCC            >>>
    <<<        CCC        CCC        |||   CCC        CCC              >>>
      <<<      CCC        CCC        |||   CCC        CCC            >>>
       <<<      CCC        CCC       |||    CCC        CCC         >>>
         <<<     CCCCCC     CCCCCC   |||     CCCCCC     CCCCCC   >>>
   *************************************************************************

     ****************************************************************
     * CFOUR Coupled-Cluster techniques for Computational Chemistry *
     ****************************************************************
 

   Department of Chemistry                Institut fuer Physikalische Chemie
   University of Florida                  Universitaet Mainz
   Gainesville, FL 32611, USA             D-55099 Mainz, Germany

   Department of Chemistry                Fakultaet fuer Chemie und Biowiss.
   Johns Hopkins University               Karlsruher Institut fuer Technologie
   Baltimore, MD 21218, USA               D-76131 Karlsruhe, Germany

   Department of Chemistry                Department of Physical Chemistry
   Southern Methodist University          Eotvos Lorand University
   Dallas, TX 75275, USA                  H-1053 Budapest, Hungary

 
                       Version 2.1
 
                     vincent.theory.phys.ucl.ac.uk                     
                     Wed 26 Feb 08:09:55 GMT 2025                      
                     integer*8 version is running
 
********************************************************************************
*                          Input from ZMAT file                                *
********************************************************************************
Carbon Monoxide DBOC calculation                                                
C                                                                               
O 1 r                                                                           
                                                                                
r=1.7689655172413794                                                            
                                                                                
                                                                                
*CFOUR(CALC=CCSD,BASIS=AUG-PCVQZ,SCF_CONV=10                                    
CC_CONV=14,DBOC=ON,MEMORY=500000000                                             
ZFIELD=200)                                                                     
                                                                                
%isotopes                                                                       
12                                                                              
16                                                                              
********************************************************************************
  @GTFLGS-I, Hessian will be transformed to curvilinear coordinates.
    -------------------------------------------------------------------
                    CFOUR Control Parameters 
    -------------------------------------------------------------------
        External           Internal           Value            Units
          Name               Name
    -------------------------------------------------------------------
       ABCDTYPE             IABCDT         STANDARD    [  0]    ***   
       ANHARMONIC           IANHAR         OFF         [  0]    ***   
       ANH_ALGORIT          IANALG         STANDARD    [  0]    ***   
       ANH_DERIVAT          IANDER         SECOND      [  1]    ***   
       ANH_MODE             ANHMOD         VIBRATION   [  0]    ***   
       ANH_STEPSIZ          ICUBST             50000          x 10-6  
       ANH_SYMMETR          IANHSM         ABELIAN     [  0]    ***   
       AO_LADDERS           IAOLAD         SINGLEPASS  [  1]    ***   
       AV_SCF               IAVSCF         OFF         [  0]    ***   
       BASIS                IBASIS         AUG-PCVQZ   [ 52]    ***   
       BOTHVECTORS          BOTHVC         OFF         [  0]    ***   
       BOX_POTENT           IPIAB          OFF         [  0]    ***   
       BREIT                IBREIT         OFF         [  0]    ***   
       BRUCK_CONV           IBRTOL          10D-  4             ***   
       BRUECKNER            IBRKNR         OFF         [  0]    ***   
       BUFFERSIZE           IBUFFS              4096            ***   
       CACHE_RECS           ICHREC             10               ***   
       CALCLEVEL            ICLLVL         CCSD        [ 10]    ***   
       CCORBOPT             ICCORB         OFF         [  0]  x 0.01  
       CC_CONV              ICCCNV          10D- 14             ***   
       CC_EXPORDER          ICCEOR              5               ***   
       CC_EXTRAPOL          ICCEXT         DIIS        [  1]    ***   
       CC_GUESS             ICCGES         MP2         [  0]    ***   
       CC_MAXCYC            ICCCYC            100              cycles 
       CC_PROGRAM           ICCPRO         VCC         [  0]    ***   
       CHARGE               ICHRGE              0               ***   
       CHOLESKY             ICHOLE         OFF         [  0]    ***   
       CIS_CONV             ICISTL              5               ***   
       COMM_SIZE            IPSIZE            ***               ***   
       CONSTANT             ICONST         OLD         [  1]    ***   
       CONTINUUM            ICONTU         NONE        [  0]    ***   
       CONTRACTION          ICNTYP         GENERAL     [  1]    ***   
       COORDINATES          ICOORD         INTERNAL    [  0]    ***   
       CPHF_CONVER          ICPHFT          10D- 16             ***   
       CPHF_MAXCYC          ICPHFC             64              cycles 
       CUBIC                ICUBIC         OFF         [  0]    ***   
       CURVILINEAR          ICURVY         ON          [  1]    ***   
       DBOC                 IDBOC          ON          [  1]    ***   
       DCT                  IDCT           OFF         [  0]    ***   
       DERIV_LEV            IDRLVL         SECOND      [  2]    ***   
       DEVMEM_SIZE          IDVMEM          50000000           MByte  
       DIAG_MRCC            IEOMST          10D-  0             ***   
       DIFF_TYPE            IDIFTY         RELAXED     [  0]    ***   
       DIRECT               IDIRCT         OFF         [  0]    ***   
       DROPMO               IDRPMO      NONE         
       ECP                  IECP           OFF         [  0]    ***   
       EIGENVECTOR          IVEC                1               ***   
       EL_ANHARM            IELANH         OFF         [  0]    ***   
       EOMFOLLOW            IEOMSR         ENERGY      [  0]    ***   
       EOMIP                IEOMIP         OFF         [  0]    ***   
       EOMLEVEL             HBARFM         SAME        [  0]    ***   
       EOM_MRCC             IMRCCE         NEW         [  1]    ***   
       EOM_NONIT            EOMNON         OFF         [  0]    ***   
       EOM_NSING            IEOMSI          10D-  0             ***   
       EOM_NSTATES          IMRCCD         DAVIDSON    [  0]    ***   
       EOM_NTRIP            IEOMTR          10D-  0             ***   
       EOM_ORDER            IEXORD         ENERGY      [  0]    ***   
       EOM_PROPSTA          IEOMST              0               ***   
       ESTATE_CONV          IEXTOL          10D-  5             ***   
       ESTATE_DIAG          IEXDIG         ITERATIVE   [  0]    ***   
       ESTATE_LOCK          IESLOC         ON          [  1]    ***   
       ESTATE_MAXC          IEXMXC             40               ***   
       ESTATE_PROP          IEXPRP         OFF         [  0]    ***   
       EVAL_HESS            IRECAL              0            # of cyc.
       EXCITATION           IEXCIT              0               ***   
       EXCITE               IEXCIT         NONE        [  0]    ***   
       EXTERN_POT           IEXPOT         OFF         [  0]    ***   
       FCGRADNEW            IFCGNW         OFF         [  0]    ***   
       FC_FIELD             IFINFC              0             x 10-6  
       FD_CALTYPE           IFDCAL         GRADONLY    [  0]    ***   
       FD_PROJECT           IFDPRJ         OFF         [  1]    ***   
       FD_STEPSIZE          IDISFD              0            10-4 bohr
       FD_USEGROUP          IFDGRP         FULL        [  0]    ***   
       FILE_RECSIZ          IFLREC              4096           words  
       FINITE_PERT          IFIPER              0             x 10-6  
       FIXGEOM              IFIXGM         OFF         [  0]    ***   
       FOCK                 IFOCK          AO          [  1]    ***   
       FREQ_ALGORI          IVIALG         STANDARD    [  0]    ***   
       FROZEN_CORE          IFROCO         OFF         [  0]    ***   
       GAMMA_ABCD           IGABCD         STORE       [  0]    ***   
       GAMMA_ABCI           IGABCI         STORE       [  0]    ***   
       GENBAS_1             IGNBS1              0               ***   
       GENBAS_2             IGNBS2              0               ***   
       GENBAS_3             IGNBS3              0               ***   
       GENBAS_4             IGNBS4              0               ***   
       GEO_CONV             ICONTL              5              H/bohr 
       GEO_MAXCYC           IOPTCY             50               ***   
       GEO_MAXSTEP          IMXSTP            300            millibohr
       GEO_METHOD           INR            SINGLE_POINT[  5]    ***   
       GIAO                 IGIAO          OFF         [  1]    ***   
       GIMIC                IGIMIC         OFF         [  0]    ***   
       GRID                 IGRID          OFF         [  0]    ***   
       GRID_ALGO            IGALGO         SERIAL      [  0]    ***   
       GUESS                IGUESS         MOREAD      [  0]    ***   
       HBAR                 IHBAR          OFF         [  0]    ***   
       HESS_TYPE            IHESTP         SCF         [  0]    ***   
       HF2_FILE             IHF2Fl         USE         [  1]    ***   
       HFSTABILITY          ISTABL         OFF         [  0]    ***   
       INCORE               INCORE         OFF         [  0]    ***   
       INPUT_MRCC           IMRCC          ON          [  1]    ***   
       INTEGRALS            INTTYP         VMOL        [  1]    ***   
       JODA_PRINT           IJPRNT              0               ***   
       KEYWORD_OUT          IDMPKW         NO          [  0]    ***   
       LINDEP_TOL           ILINDP              8               ***   
       LINEQ_CONV           IZTACN          10D-  7           cycles  
       LINEQ_EXPOR          ILMAXD              5               ***   
       LINEQ_MAXCY          ILMAXC            100               ***   
       LINEQ_TYPE           ILTYPE         DIIS        [  1]    ***   
       LOCK_ORBOCC          ILOCOC         OFF         [  0]    ***   
       MEMORY_SIZE          IMEMSZ         500000000           words  
       MEM_UNIT             IMEMU          INTEGERWORDS[  0]    ***   
       MRCC                 IMRCCC         OFF         [  0]    ***   
       MULTIPLICTY          IMULTP              1               ***   
       NACOUPLING           IVCOUP         OFF         [  0]    ***   
       NEGEVAL              IDIE           ABORT       [  0]    ***   
       NEWNORM              INEWNO         OFF         [  0]    ***   
       NON-HF               INONHF         OFF         [  0]    ***   
       NTOP_TAMP            ITOPT2             15               ***   
       NUC_MODEL            INUCMO         POINT       [  0]    ***   
       OCCUPATION           IOCCU   ESTIMATED BY SCF 
       OPEN-SHELL           IOPEN          SPIN-ORBITAL[  0]    ***   
       OPTVIB               IOPTVB         OFF         [  0]    ***   
       ORBITALS             IORBTP         STANDARD    [  0]    ***   
       PARALLEL             IPARAL         ON          [  1]    ***   
       PARA_INT             IPINTS         ON          [  1]    ***   
       PARA_PRINT           IPPRIN              0               ***   
       PERT_ORB             IPTORB         STANDARD    [  0]    ***   
       POINTS               IGRDFD              0               ***   
       PRINT                IPRNT               0               ***   
       PROPS                IPROPS         OFF         [  0]    ***   
       PROP_INTEGR          IINTYP         INTERNAL    [  0]    ***   
       PSI                  IPSI           OFF         [  0]    ***   
       QC_ALG               IQCALG         FLM         [  0]    ***   
       QC_LINALG            IQCLIN         TRIDIAG     [  2]    ***   
       QC_MAXCYC            IQCMAX          10D-100           cycles  
       QC_MAXSCFCY          IQCMSC          10D- 15           cycles  
       QC_RTRUST            IQCRTR          10D-  0           x 10-3  
       QC_SKIPSCF           IQCSKI         OFF         [  0]    ***   
       QC_START             IQCSTA          10D-  1             ***   
       QRHFGUESS            IQGUES         OFF         [  0]    ***   
       QUARTIC              IQUART         OFF         [  0]    ***   
       RAMAN_INT            IRAMIN         OFF         [  0]    ***   
       RAMAN_ORB            IRAMRE         UNRELAXED   [  0]    ***   
       RDO                  IRDOFM         ON          [  1]    ***   
       REDUCE_REPR          REDREP         Ir          [  0]    ***   
       REFERENCE            IREFNC         RHF         [  0]    ***   
       RELATIVIST           IRELAT         OFF         [  0]    ***   
       RELAX_DENS           IRDENS         ON          [  1]    ***   
       RESET_FLAGS          IRESET         OFF         [  0]    ***   
       RESTART_CC           ICCRES         OFF         [  0]    ***   
       ROT_EVEC             ROTVEC              0               ***   
       SAVE_INTS            ISVINT         OFF         [  0]    ***   
       SCALE_ON             ISTCRT              0               ***   
       SCF_CONV             ISCFCV          10D- 10             ***   
       SCF_DAMPING          IDAMP               0             x 10-3  
       SCF_EXPORDE          IRPPOR              6               ***   
       SCF_EXPSTAR          IRPPLS              8               ***   
       SCF_EXTRAPO          IRPP           ON          [  1]    ***   
       SCF_MAXCYC           ISCFCY            150              cycles 
       SCF_NOSTOP           ISCFST         OFF         [  0]    ***   
       SCF_PRINT            ISCFPR              0               ***   
       SCF_PROG             ISCFPR         SCF         [  0]    ***   
       SD_FIELD             IFINSD              0             x 10-6  
       SOPERT               IPERSO         OFF         [  0]    ***   
       SPHERICAL            IDFGHI         ON          [  1]    ***   
       SPINORBIT            ISOCAL         OFF         [  0]    ***   
       SPINROTATIO          ISRCON         OFF         [  0]    ***   
       SPIN_FLIP            ISPFLP         OFF         [  0]    ***   
       SPIN_ORBIT           ISPORB         OFF         [  0]    ***   
       SPIN_SCAL            ISCSMP         OFF         [  0]    ***   
       STEEPSCALE           ISTPSC              1000          x 10-3  
       SUBGROUP             ISUBGP         DEFAULT     [  0]    ***   
       SUBGRPAXIS           ISBXYZ         X           [  0]    ***   
       SYMMETRY             ISYM           ON          [  0]    ***   
       SYM_CHECK            ISYMCK         OVERRIDE    [  1]    ***   
       T3_EXTRAPOL          IT3EXT         OFF         [  0]    ***   
       T4_EXTRAPOL          IT4EXP         OFF         [  0]    ***   
       TAMP_SUM             IEVERY              5               ***   
       TESTSUITE            ITESTS         OFF         [  0]    ***   
       THERMOCH             ITHERM         OFF         [  0]    ***   
       TOL_CHOLESK          ITOLCH          10D-  4             ***   
       TRANGRAD             IRESRM         OFF         [  0]    ***   
       TRANS_INV            ITRAIN         IGNORE      [  1]    ***   
       TREAT_PERT           ITREAT         SIMULTANEOUS[  0]    ***   
       TRIP_ALGORI          ITRALG         NORMAL      [  0]    ***   
       UIJ_THRESHO          IUIJTH              1               ***   
       UNITS                IUNITS         ANGSTROM    [  0]    ***   
       UNOS                 IUNOS          OFF         [  0]    ***   
       UPDATE_HESS          IHUPDT         ON          [  1]    ***   
       VIBPHASE             ISETPH         STANDARD    [  0]    ***   
       VIBRATION            IVIB           ANALYTIC    [  1]    ***   
       VIB_ALGORIT          IGEALG         STANDARD    [  0]    ***   
       VNATORB              IVNORB         OFF         [  0]    ***   
       VTRAN                IVTRAN         FULL/PARTIAL[  0]    ***   
       XFIELD               IXEFLD              0             x 10-6  
       XFORM_TOL            IXFTOL          10D- 11             ***   
       YFIELD               IYEFLD              0             x 10-6  
       ZFIELD               IZEFLD            200             x 10-6  
       ZSCALE_EXP           IZEXPS         OFF         [  0]    ***   
    -------------------------------------------------------------------
   2 entries found in Z-matrix 
   Job Title : Carbon Monoxide DBOC calculation                                                
   There are  1 unique internal coordinates.
   Of these,  0 will be optimized.
   User supplied Z-matrix: 
--------------------------------------------------------------------------------
       SYMBOL    BOND      LENGTH    ANGLE     ANGLE     DIHED     ANGLE
                  TO      (ANGST)    WRT      (DEG)      WRT      (DEG)
--------------------------------------------------------------------------------
        C    
        O          1         r    
                  *Initial values for internal coordinates* 
                      Name             Value
                        r               1.7689655172
--------------------------------------------------------------------------------
  read isotopes from ZMAT file 
   Rotational constants (in cm-1): 
          0.7857308330             0.7857308330
   Rotational constants (in MHz): 
      23555.6210745930         23555.6210745930
********************************************************************************
   The full molecular point group is CXv .
   The largest Abelian subgroup of the full molecular point group is C2v .
   The computational point group is C2v .
********************************************************************************
--------------------------------------------------------------------------------
   Analysis of internal coordinates specified by Z-matrix 
--------------------------------------------------------------------------------
   *The nuclear repulsion energy is   14.358957567251460 a.u.
   *There is   1 degree of freedom within the tot. symm. molecular subspace.
   *Z-matrix requests optimization of   0 coordinates.
   *The optimization is constrained.
   *The following   1 parameters can have non-zero 
    derivatives within the totally symmetric subspace:
             r    [ 1]
   *The following   0 parameters are to be optimized:

   *The following coordinates must be varied in an  unconstrained optimization.
             r    [ 1]
--------------------------------------------------------------------------------


 ----------------------------------------------------------------
         Coordinates used in calculation (QCOMP) 
 ----------------------------------------------------------------
 Z-matrix   Atomic            Coordinates (in bohr)
  Symbol    Number           X              Y              Z
 ----------------------------------------------------------------
     C         6        -0.00000000     0.00000000     1.90994607
     O         8         0.00000000     0.00000000    -1.43291498
 ----------------------------------------------------------------
 
   Interatomic distance matrix (Angstroms) 
 
                 C             O    
                [ 1]        [ 2]
  C    [ 1]     0.00000
  O    [ 2]     1.76897     0.00000
 rotcon2
   Rotational constants (in cm-1): 
          0.7857308330             0.0000000000
   Rotational constants (in MHz): 
      23555.6210745930             0.0000000000
  ECPDATA file not present.   Using default ECPDATA. 
  @GTFLGS-I, Hessian will be transformed to curvilinear coordinates.
  There are  218 basis functions.
 @CHECKOUT-I, Total execution time (CPU/WALL):        0.12/       0.15 seconds.
--executable xjoda finished with status     0 in        0.17 seconds (walltime).
 --invoking executable--
/nfs/workspaces/public/cfour_mpi/bin/xvmol
 SERIAL VERSION OF MOLECULE STARTED
********************************************************************************
                    INPUT FROM MOL FILE
********************************************************************************
INTGRL        1    0    1    0    0    0    0    0    0                         
         *** CFOUR Program System (Release V0.1) ***                            
Carbon Monoxide DBOC calculation                                                
    2    2 X  Y       0.10E-08              0    0                              
   9999.00      3.00                                                            
          6.00000000    1    5    1    1    1    1    1                         
C #1  -0.000000000000000   0.000000000000000   1.909946068941928                
   16    9                                                                      
   33980.0000000000       9.100000000000000E-005 -1.900000000000000E-005        
  0.000000000000000E+000  0.000000000000000E+000  0.000000000000000E+000        
  0.000000000000000E+000  0.000000000000000E+000  0.000000000000000E+000        
  0.000000000000000E+000                                                        
   5089.00000000000       7.040000000000000E-004 -1.510000000000000E-004        
  0.000000000000000E+000  0.000000000000000E+000  0.000000000000000E+000        
  0.000000000000000E+000  0.000000000000000E+000  0.000000000000000E+000        
  0.000000000000000E+000                                                        
   1157.00000000000       3.693000000000000E-003 -7.850000000000000E-004        
  0.000000000000000E+000  0.000000000000000E+000  0.000000000000000E+000        
  0.000000000000000E+000  0.000000000000000E+000  0.000000000000000E+000        
  0.000000000000000E+000                                                        
   326.600000000000       1.536000000000000E-002 -3.324000000000000E-003        
  0.000000000000000E+000  0.000000000000000E+000  0.000000000000000E+000        
  0.000000000000000E+000  0.000000000000000E+000  0.000000000000000E+000        
  0.000000000000000E+000                                                        
   106.100000000000       5.292900000000000E-002 -1.151200000000000E-002        
  0.000000000000000E+000  0.000000000000000E+000  0.000000000000000E+000        
  0.000000000000000E+000  0.000000000000000E+000  0.000000000000000E+000        
  0.000000000000000E+000                                                        
   38.1100000000000       0.147043000000000      -3.416000000000000E-002        
  0.000000000000000E+000  0.000000000000000E+000  0.000000000000000E+000        
  0.000000000000000E+000  0.000000000000000E+000  0.000000000000000E+000        
  0.000000000000000E+000                                                        
   14.7500000000000       0.305631000000000      -7.717300000000001E-002        
  0.000000000000000E+000  0.000000000000000E+000  0.000000000000000E+000        
  0.000000000000000E+000  0.000000000000000E+000  0.000000000000000E+000        
  0.000000000000000E+000                                                        
   6.03500000000000       0.399345000000000      -0.141493000000000             
  0.000000000000000E+000  0.000000000000000E+000  0.000000000000000E+000        
  0.000000000000000E+000  0.000000000000000E+000  0.000000000000000E+000        
  0.000000000000000E+000                                                        
   2.53000000000000       0.217051000000000      -0.118019000000000             
  0.000000000000000E+000  0.000000000000000E+000  0.000000000000000E+000        
  0.000000000000000E+000  0.000000000000000E+000  0.000000000000000E+000        
  0.000000000000000E+000                                                        
  0.735500000000000       1.589400000000000E-002  0.273806000000000             
   1.00000000000000       0.000000000000000E+000  0.000000000000000E+000        
  0.000000000000000E+000  0.000000000000000E+000  0.000000000000000E+000        
  0.000000000000000E+000                                                        
  0.290500000000000      -3.084000000000000E-003  0.586510000000000             
  0.000000000000000E+000   1.00000000000000       0.000000000000000E+000        
  0.000000000000000E+000  0.000000000000000E+000  0.000000000000000E+000        
  0.000000000000000E+000                                                        
  0.111100000000000       9.779999999999999E-004  0.285430000000000             
  0.000000000000000E+000  0.000000000000000E+000   1.00000000000000             
  0.000000000000000E+000  0.000000000000000E+000  0.000000000000000E+000        
  0.000000000000000E+000                                                        
   7.21600000000000       0.000000000000000E+000  0.000000000000000E+000        
  0.000000000000000E+000  0.000000000000000E+000  0.000000000000000E+000        
   1.00000000000000       0.000000000000000E+000  0.000000000000000E+000        
  0.000000000000000E+000                                                        
   19.5700000000000       0.000000000000000E+000  0.000000000000000E+000        
  0.000000000000000E+000  0.000000000000000E+000  0.000000000000000E+000        
  0.000000000000000E+000   1.00000000000000       0.000000000000000E+000        
  0.000000000000000E+000                                                        
   53.0730000000000       0.000000000000000E+000  0.000000000000000E+000        
  0.000000000000000E+000  0.000000000000000E+000  0.000000000000000E+000        
  0.000000000000000E+000  0.000000000000000E+000   1.00000000000000             
  0.000000000000000E+000                                                        
  4.145000000000000E-002  0.000000000000000E+000  0.000000000000000E+000        
  0.000000000000000E+000  0.000000000000000E+000  0.000000000000000E+000        
  0.000000000000000E+000  0.000000000000000E+000  0.000000000000000E+000        
   1.00000000000000                                                             
   10    8                                                                      
   34.5100000000000       5.378000000000000E-003  0.000000000000000E+000        
  0.000000000000000E+000  0.000000000000000E+000  0.000000000000000E+000        
  0.000000000000000E+000  0.000000000000000E+000  0.000000000000000E+000        
   7.91500000000000       3.613200000000000E-002  0.000000000000000E+000        
  0.000000000000000E+000  0.000000000000000E+000  0.000000000000000E+000        
  0.000000000000000E+000  0.000000000000000E+000  0.000000000000000E+000        
   2.36800000000000       0.142493000000000       0.000000000000000E+000        
  0.000000000000000E+000  0.000000000000000E+000  0.000000000000000E+000        
  0.000000000000000E+000  0.000000000000000E+000  0.000000000000000E+000        
  0.813200000000000       0.342150000000000        1.00000000000000             
  0.000000000000000E+000  0.000000000000000E+000  0.000000000000000E+000        
  0.000000000000000E+000  0.000000000000000E+000  0.000000000000000E+000        
  0.289000000000000       0.463864000000000       0.000000000000000E+000        
   1.00000000000000       0.000000000000000E+000  0.000000000000000E+000        
  0.000000000000000E+000  0.000000000000000E+000  0.000000000000000E+000        
  0.100700000000000       0.250028000000000       0.000000000000000E+000        
  0.000000000000000E+000   1.00000000000000       0.000000000000000E+000        
  0.000000000000000E+000  0.000000000000000E+000  0.000000000000000E+000        
   8.18200000000000       0.000000000000000E+000  0.000000000000000E+000        
  0.000000000000000E+000  0.000000000000000E+000   1.00000000000000             
  0.000000000000000E+000  0.000000000000000E+000  0.000000000000000E+000        
   24.1860000000000       0.000000000000000E+000  0.000000000000000E+000        
  0.000000000000000E+000  0.000000000000000E+000  0.000000000000000E+000        
   1.00000000000000       0.000000000000000E+000  0.000000000000000E+000        
   71.4940000000000       0.000000000000000E+000  0.000000000000000E+000        
  0.000000000000000E+000  0.000000000000000E+000  0.000000000000000E+000        
  0.000000000000000E+000   1.00000000000000       0.000000000000000E+000        
  3.218000000000000E-002  0.000000000000000E+000  0.000000000000000E+000        
  0.000000000000000E+000  0.000000000000000E+000  0.000000000000000E+000        
  0.000000000000000E+000  0.000000000000000E+000   1.00000000000000             
    6    6                                                                      
   1.84800000000000        1.00000000000000       0.000000000000000E+000        
  0.000000000000000E+000  0.000000000000000E+000  0.000000000000000E+000        
  0.000000000000000E+000                                                        
  0.649000000000000       0.000000000000000E+000   1.00000000000000             
  0.000000000000000E+000  0.000000000000000E+000  0.000000000000000E+000        
  0.000000000000000E+000                                                        
  0.228000000000000       0.000000000000000E+000  0.000000000000000E+000        
   1.00000000000000       0.000000000000000E+000  0.000000000000000E+000        
  0.000000000000000E+000                                                        
   8.65600000000000       0.000000000000000E+000  0.000000000000000E+000        
  0.000000000000000E+000   1.00000000000000       0.000000000000000E+000        
  0.000000000000000E+000                                                        
   33.2130000000000       0.000000000000000E+000  0.000000000000000E+000        
  0.000000000000000E+000  0.000000000000000E+000   1.00000000000000             
  0.000000000000000E+000                                                        
  7.660000000000000E-002  0.000000000000000E+000  0.000000000000000E+000        
  0.000000000000000E+000  0.000000000000000E+000  0.000000000000000E+000        
   1.00000000000000                                                             
    4    4                                                                      
   1.41900000000000        1.00000000000000       0.000000000000000E+000        
  0.000000000000000E+000  0.000000000000000E+000                                
  0.485000000000000       0.000000000000000E+000   1.00000000000000             
  0.000000000000000E+000  0.000000000000000E+000                                
   24.6940000000000       0.000000000000000E+000  0.000000000000000E+000        
   1.00000000000000       0.000000000000000E+000                                
  0.187000000000000       0.000000000000000E+000  0.000000000000000E+000        
  0.000000000000000E+000   1.00000000000000                                     
    2    2                                                                      
   1.01100000000000        1.00000000000000       0.000000000000000E+000        
  0.424000000000000       0.000000000000000E+000   1.00000000000000             
          8.00000000    1    5    1    1    1    1    1                         
O #2   0.000000000000000   0.000000000000000  -1.432914983135683                
   16    9                                                                      
   61420.0000000000       9.000000000000001E-005 -2.000000000000000E-005        
  0.000000000000000E+000  0.000000000000000E+000  0.000000000000000E+000        
  0.000000000000000E+000  0.000000000000000E+000  0.000000000000000E+000        
  0.000000000000000E+000                                                        
   9199.00000000000       6.980000000000001E-004 -1.590000000000000E-004        
  0.000000000000000E+000  0.000000000000000E+000  0.000000000000000E+000        
  0.000000000000000E+000  0.000000000000000E+000  0.000000000000000E+000        
  0.000000000000000E+000                                                        
   2091.00000000000       3.664000000000000E-003 -8.290000000000000E-004        
  0.000000000000000E+000  0.000000000000000E+000  0.000000000000000E+000        
  0.000000000000000E+000  0.000000000000000E+000  0.000000000000000E+000        
  0.000000000000000E+000                                                        
   590.900000000000       1.521800000000000E-002 -3.508000000000000E-003        
  0.000000000000000E+000  0.000000000000000E+000  0.000000000000000E+000        
  0.000000000000000E+000  0.000000000000000E+000  0.000000000000000E+000        
  0.000000000000000E+000                                                        
   192.300000000000       5.242300000000000E-002 -1.215600000000000E-002        
  0.000000000000000E+000  0.000000000000000E+000  0.000000000000000E+000        
  0.000000000000000E+000  0.000000000000000E+000  0.000000000000000E+000        
  0.000000000000000E+000                                                        
   69.3200000000000       0.145921000000000      -3.626100000000000E-002        
  0.000000000000000E+000  0.000000000000000E+000  0.000000000000000E+000        
  0.000000000000000E+000  0.000000000000000E+000  0.000000000000000E+000        
  0.000000000000000E+000                                                        
   26.9700000000000       0.305258000000000      -8.299200000000000E-002        
  0.000000000000000E+000  0.000000000000000E+000  0.000000000000000E+000        
  0.000000000000000E+000  0.000000000000000E+000  0.000000000000000E+000        
  0.000000000000000E+000                                                        
   11.1000000000000       0.398508000000000      -0.152090000000000             
  0.000000000000000E+000  0.000000000000000E+000  0.000000000000000E+000        
  0.000000000000000E+000  0.000000000000000E+000  0.000000000000000E+000        
  0.000000000000000E+000                                                        
   4.68200000000000       0.216980000000000      -0.115331000000000             
  0.000000000000000E+000  0.000000000000000E+000  0.000000000000000E+000        
  0.000000000000000E+000  0.000000000000000E+000  0.000000000000000E+000        
  0.000000000000000E+000                                                        
   1.42800000000000       1.759400000000000E-002  0.288979000000000             
   1.00000000000000       0.000000000000000E+000  0.000000000000000E+000        
  0.000000000000000E+000  0.000000000000000E+000  0.000000000000000E+000        
  0.000000000000000E+000                                                        
  0.554700000000000      -2.502000000000000E-003  0.586128000000000             
  0.000000000000000E+000   1.00000000000000       0.000000000000000E+000        
  0.000000000000000E+000  0.000000000000000E+000  0.000000000000000E+000        
  0.000000000000000E+000                                                        
  0.206700000000000       9.540000000000000E-004  0.277624000000000             
  0.000000000000000E+000  0.000000000000000E+000   1.00000000000000             
  0.000000000000000E+000  0.000000000000000E+000  0.000000000000000E+000        
  0.000000000000000E+000                                                        
   12.9740000000000       0.000000000000000E+000  0.000000000000000E+000        
  0.000000000000000E+000  0.000000000000000E+000  0.000000000000000E+000        
   1.00000000000000       0.000000000000000E+000  0.000000000000000E+000        
  0.000000000000000E+000                                                        
   34.9000000000000       0.000000000000000E+000  0.000000000000000E+000        
  0.000000000000000E+000  0.000000000000000E+000  0.000000000000000E+000        
  0.000000000000000E+000   1.00000000000000       0.000000000000000E+000        
  0.000000000000000E+000                                                        
   93.8810000000000       0.000000000000000E+000  0.000000000000000E+000        
  0.000000000000000E+000  0.000000000000000E+000  0.000000000000000E+000        
  0.000000000000000E+000  0.000000000000000E+000   1.00000000000000             
  0.000000000000000E+000                                                        
  6.959000000000000E-002  0.000000000000000E+000  0.000000000000000E+000        
  0.000000000000000E+000  0.000000000000000E+000  0.000000000000000E+000        
  0.000000000000000E+000  0.000000000000000E+000  0.000000000000000E+000        
   1.00000000000000                                                             
   10    8                                                                      
   63.4200000000000       6.044000000000000E-003  0.000000000000000E+000        
  0.000000000000000E+000  0.000000000000000E+000  0.000000000000000E+000        
  0.000000000000000E+000  0.000000000000000E+000  0.000000000000000E+000        
   14.6600000000000       4.179900000000000E-002  0.000000000000000E+000        
  0.000000000000000E+000  0.000000000000000E+000  0.000000000000000E+000        
  0.000000000000000E+000  0.000000000000000E+000  0.000000000000000E+000        
   4.45900000000000       0.161143000000000       0.000000000000000E+000        
  0.000000000000000E+000  0.000000000000000E+000  0.000000000000000E+000        
  0.000000000000000E+000  0.000000000000000E+000  0.000000000000000E+000        
   1.53100000000000       0.356731000000000        1.00000000000000             
  0.000000000000000E+000  0.000000000000000E+000  0.000000000000000E+000        
  0.000000000000000E+000  0.000000000000000E+000  0.000000000000000E+000        
  0.530200000000000       0.448309000000000       0.000000000000000E+000        
   1.00000000000000       0.000000000000000E+000  0.000000000000000E+000        
  0.000000000000000E+000  0.000000000000000E+000  0.000000000000000E+000        
  0.175000000000000       0.244940000000000       0.000000000000000E+000        
  0.000000000000000E+000   1.00000000000000       0.000000000000000E+000        
  0.000000000000000E+000  0.000000000000000E+000  0.000000000000000E+000        
   14.4750000000000       0.000000000000000E+000  0.000000000000000E+000        
  0.000000000000000E+000  0.000000000000000E+000   1.00000000000000             
  0.000000000000000E+000  0.000000000000000E+000  0.000000000000000E+000        
   42.7300000000000       0.000000000000000E+000  0.000000000000000E+000        
  0.000000000000000E+000  0.000000000000000E+000  0.000000000000000E+000        
   1.00000000000000       0.000000000000000E+000  0.000000000000000E+000        
   126.140000000000       0.000000000000000E+000  0.000000000000000E+000        
  0.000000000000000E+000  0.000000000000000E+000  0.000000000000000E+000        
  0.000000000000000E+000   1.00000000000000       0.000000000000000E+000        
  5.348000000000000E-002  0.000000000000000E+000  0.000000000000000E+000        
  0.000000000000000E+000  0.000000000000000E+000  0.000000000000000E+000        
  0.000000000000000E+000  0.000000000000000E+000   1.00000000000000             
    6    6                                                                      
   3.77500000000000        1.00000000000000       0.000000000000000E+000        
  0.000000000000000E+000  0.000000000000000E+000  0.000000000000000E+000        
  0.000000000000000E+000                                                        
   1.30000000000000       0.000000000000000E+000   1.00000000000000             
  0.000000000000000E+000  0.000000000000000E+000  0.000000000000000E+000        
  0.000000000000000E+000                                                        
  0.444000000000000       0.000000000000000E+000  0.000000000000000E+000        
   1.00000000000000       0.000000000000000E+000  0.000000000000000E+000        
  0.000000000000000E+000                                                        
   14.9270000000000       0.000000000000000E+000  0.000000000000000E+000        
  0.000000000000000E+000   1.00000000000000       0.000000000000000E+000        
  0.000000000000000E+000                                                        
   57.5440000000000       0.000000000000000E+000  0.000000000000000E+000        
  0.000000000000000E+000  0.000000000000000E+000   1.00000000000000             
  0.000000000000000E+000                                                        
  0.154000000000000       0.000000000000000E+000  0.000000000000000E+000        
  0.000000000000000E+000  0.000000000000000E+000  0.000000000000000E+000        
   1.00000000000000                                                             
    4    4                                                                      
   2.66600000000000        1.00000000000000       0.000000000000000E+000        
  0.000000000000000E+000  0.000000000000000E+000                                
  0.859000000000000       0.000000000000000E+000   1.00000000000000             
  0.000000000000000E+000  0.000000000000000E+000                                
   26.4830000000000       0.000000000000000E+000  0.000000000000000E+000        
   1.00000000000000       0.000000000000000E+000                                
  0.324000000000000       0.000000000000000E+000  0.000000000000000E+000        
  0.000000000000000E+000   1.00000000000000                                     
    2    2                                                                      
   1.84600000000000        1.00000000000000       0.000000000000000E+000        
  0.714000000000000       0.000000000000000E+000   1.00000000000000             
FINISH                                                                          
 
********************************************************************************
 ONE- AND TWO-ELECTRON INTEGRALS OVER SYMMETRY-ADAPTED AOS ARE CALCULATED.

  SPHERICAL HARMONICS ARE USED.
  
  INTEGRALS LESS THAN  0.10E-13 ARE NEGLECTED.

  NUCLEAR REPULSION ENERGY :   14.3589575673 A.U.
  @MOLECU-I, ONE ELECTRON INTEGRALS (CPU/WALL):        0.06/       0.06 SECONDS.
  @TWOEL-I,    4363857 INTEGRALS OF SYMMETRY TYPE  I I I I
  @TWOEL-I,   18829869 INTEGRALS OF SYMMETRY TYPE  I J I J
  @TWOEL-I,    9917521 INTEGRALS OF SYMMETRY TYPE  I I J J
  @TWOEL-I,   13891592 INTEGRALS OF SYMMETRY TYPE  I J K L
  @TWOEL-I, TOTAL NUMBER OF 2-E INTEGRALS   47002839.
  @MOLECU-I, TWO ELECTRON INTEGRALS (CPU/WALL):      152.37/      22.01 SECONDS.
 @CHECKOUT-I, Total execution time (CPU/WALL):      152.45/      22.10 seconds.

Running with 14 threads/proc

--executable xvmol finished with status     0 in       22.13 seconds (walltime).
 --invoking executable--
/nfs/workspaces/public/cfour_mpi/bin/xvmol2ja
 @GETMEM-I,  Allocated    3814 MB of main memory.
 @CHECKOUT-I, Total execution time (CPU/WALL):        0.13/       0.03 seconds.
--executable xvmol2ja finished with status     0 in        0.05 seconds (walltime).
 --invoking executable--
/nfs/workspaces/public/cfour_mpi/bin/xvprop
 @GETMEM-I,  Allocated    3814 MB of main memory.
   Property integrals will be calculated.
    --------------------------------------------------------------
                                   Property evaluated at 
    Property type                X             Y             Z
    --------------------------------------------------------------
    Dipole moment               ----          ----          ----  
    Quadrupole moment           ----          ----          ----  
    Octopole moment             ----          ----          ----  
    Relativisitic corr.         ----          ----          ----  
    Second moment            0.0000000     0.0000000     0.0000000
    Electron density         0.0000000     0.0000000     1.9099461
    Electron density         0.0000000     0.0000000    -1.4329150
    Field gradient           0.0000000     0.0000000     1.9099461
    Field gradient           0.0000000     0.0000000    -1.4329150
    Potential                0.0000000     0.0000000     1.9099461
    Potential                0.0000000     0.0000000    -1.4329150
    --------------------------------------------------------------
 @CHECKOUT-I, Total execution time (CPU/WALL):        1.31/       1.31 seconds.
--executable xvprop finished with status     0 in        1.33 seconds (walltime).
 --invoking executable--
/nfs/workspaces/public/cfour_mpi/bin/xvscf
  There are  218 functions in the AO basis.

  There are 4 irreducible representations.

       Irrep        # of functions
         1                 86
         2                 52
         3                 52
         4                 28


  Parameters for SCF calculation: 
        SCF reference function:  RHF  
  Maximum number of iterations:  150
     Full symmetry point group: CXv 
     Computational point group: C2v 
        Initial density matrix: MOREAD                 
     SCF convergence tolerance: 10**(-10)
  DIIS convergence acceleration:  ON
          Latest start for DIIS:   8
                     DIIS order:   6

  Memory information:    2523578 words required.
  Fock matrices are constructed from AO integral file.
 @GETMEM-I,  Allocated      19 MB of main memory.
  Initialization and symmetry analysis required      0.002 seconds.

  Adding electric field perturbation to one-electron Hamiltonian.
  Field direction     : Z
  Field strength      :  0.0002000 a.u.

  @INITGES-I, Occupancies from core Hamiltonian:

          Alpha population by irrep:   5    1    1    0
           Beta population by irrep:   5    1    1    0


 total no. of electrons in initial guess :  0.000000000000000E+000
  --------------------------------------------------------------------
  Iteration         Total Energy            Largest Density Difference
  --------------------------------------------------------------------
       0            14.358958295941747              0.0000000000D+00
   current occupation vector 
     5  1  1  0
     5  1  1  0
       1           -93.748679696596213              0.1756541003D+02
   current occupation vector 
     5  1  1  0
     5  1  1  0
       2           -97.576546852791381              0.1756540456D+02
   current occupation vector 
     5  1  1  0
     5  1  1  0
       3           -99.752991650401881              0.6998951451D+01
   current occupation vector 
     5  1  1  0
     5  1  1  0
       4           -94.152271432703287              0.6997474471D+01
   current occupation vector 
     5  1  1  0
     5  1  1  0
       5           -99.775563560350136              0.7075001266D+01
   current occupation vector 
     5  1  1  0
     5  1  1  0
       6           -94.061669989600446              0.7075012661D+01
   current occupation vector 
     5  1  1  0
     5  1  1  0
       7           -99.773498366250720              0.7078243528D+01
   current occupation vector 
     5  1  1  0
     5  1  1  0
       8           -94.059659408964777              0.7078244603D+01
   current occupation vector 
     5  1  1  0
     5  1  1  0
       9          -106.750860809489922              0.6127518669D+01
   current occupation vector 
     5  1  1  0
     5  1  1  0
      10          -110.508398625985507              0.1340402901D+01
   current occupation vector 
     5  1  1  0
     5  1  1  0
      11          -112.136455606604827              0.9542816001D+00
   current occupation vector 
     5  1  1  0
     5  1  1  0
      12          -112.305961132729720              0.7473793268D+00
   current occupation vector 
     5  1  1  0
     5  1  1  0
      13          -112.411820099838039              0.1637645289D+00
   current occupation vector 
     5  1  1  0
     5  1  1  0
      14          -112.438930999089763              0.1519083866D+00
   current occupation vector 
     5  1  1  0
     5  1  1  0
      15          -112.440938881309549              0.5603199274D-01
   current occupation vector 
     5  1  1  0
     5  1  1  0
      16          -112.443294712851952              0.9449087411D-01
   current occupation vector 
     5  1  1  0
     5  1  1  0
      17          -112.445016741047880              0.1064579972D+00
   current occupation vector 
     5  1  1  0
     5  1  1  0
      18          -112.445372348901358              0.6187633232D-01
   current occupation vector 
     5  1  1  0
     5  1  1  0
      19          -112.445374071634475              0.2353450381D-02
   current occupation vector 
     5  1  1  0
     5  1  1  0
      20          -112.445374416149662              0.2812446781D-02
   current occupation vector 
     5  1  1  0
     5  1  1  0
      21          -112.445374442025411              0.7894498957D-03
   current occupation vector 
     5  1  1  0
     5  1  1  0
      22          -112.445374445001306              0.1994480276D-03
   current occupation vector 
     5  1  1  0
     5  1  1  0
      23          -112.445374445016313              0.1512412426D-04
   current occupation vector 
     5  1  1  0
     5  1  1  0
      24          -112.445374445016881              0.1116305472D-05
   current occupation vector 
     5  1  1  0
     5  1  1  0
      25          -112.445374445019155              0.1091213429D-06
   current occupation vector 
     5  1  1  0
     5  1  1  0
      26          -112.445374445016185              0.3927211290D-07
   current occupation vector 
     5  1  1  0
     5  1  1  0
      27          -112.445374445016412              0.1067272837D-07
   current occupation vector 
     5  1  1  0
     5  1  1  0
      28          -112.445374445016810              0.1849699727D-07
   current occupation vector 
     5  1  1  0
     5  1  1  0
      29          -112.445374445016895              0.4412120447D-08
   current occupation vector 
     5  1  1  0
     5  1  1  0
      30          -112.445374445018544              0.1003074290D-08
   current occupation vector 
     5  1  1  0
     5  1  1  0

  SCF has converged.

 Density matrix saved to file den.dat
 total electron number:   14.0000000000000     
     E(SCF)=      -112.445374445017137              0.7425571269D-10

  Eigenvector printing suppressed.

 @PUTMOS-I, Writing converged MOs to NEWMOS. 
 @PUTMOS-I, Symmetry   1 Full Blocks 21 Partial Blocksize   2
 @PUTMOS-I, Symmetry   2 Full Blocks 13 Partial Blocksize   0
 @PUTMOS-I, Symmetry   3 Full Blocks 13 Partial Blocksize   0
 @PUTMOS-I, Symmetry   4 Full Blocks  7 Partial Blocksize   0
 @PUTFOCK-I, Writing converged Fock matrix to NEWFOCK. 
 @PUTFOCK-I, Symmetry   1 Full Blocks 21 Partial Blocksize   2
 @PUTFOCK-I, Symmetry   2 Full Blocks 13 Partial Blocksize   0
 @PUTFOCK-I, Symmetry   3 Full Blocks 13 Partial Blocksize   0
 @PUTFOCK-I, Symmetry   4 Full Blocks  7 Partial Blocksize   0


 
  ORBITAL EIGENVALUES (ALPHA)  (1H = 27.2113834 eV)

       MO #        E(hartree)               E(eV)           FULLSYM    COMPSYM
       ----   --------------------   --------------------   -------   ---------
    1     1         -20.6243102514        -561.2160136117     SG+        A1 (1)
    2     2         -11.5349528264        -313.8820238601     SG+        A1 (1)
    3     3          -1.2260789790         -33.3633051752     SG+        A1 (1)
    4     4          -0.8138065841         -22.1448029722     SG+        A1 (1)
    5     5          -0.4890537424         -13.3078288882     SG+        A1 (1)
    6   139          -0.4776873805         -12.9985344550      PI        B2 (3)
    7    87          -0.4776873805         -12.9985344550      PI        B1 (2)
  +++++++++++++++++++++++++++++++++++++++++++++++++++++++++++++++++++++++++++++
    8   140          -0.0269766475          -0.7340718991      PI        B2 (3)
    9    88          -0.0269766475          -0.7340718991      PI        B1 (2)
   10     6           0.0574784083           1.5640670049     SG+        A1 (1)
   11     7           0.0684776698           1.8633721281     SG+        A1 (1)
   12   141           0.0812853038           2.2118855669      PI        B2 (3)
   13    89           0.0812853038           2.2118855669      PI        B1 (2)
   14     8           0.1480053967           4.0274315940     SG+        A1 (1)
   15     9           0.1623525229           4.4178367454     SG+        A1 (1)
   16   142           0.1837365439           4.9997255412      PI        B2 (3)
   17    90           0.1837365439           4.9997255412      PI        B1 (2)
   18   191           0.2193179923           5.9679459738      DE        A2 (4)
   19    10           0.2193179923           5.9679459738      DE        A1 (1)
   20    91           0.2789676518           7.5910957300      PI        B1 (2)
   21   143           0.2789676518           7.5910957300      PI        B2 (3)
   22    11           0.2861193557           7.7857034852     SG+        A1 (1)
   23    12           0.3056095062           8.3160574451     SG+        A1 (1)
   24    13           0.4085277676          11.1166057137     SG+        A1 (1)
   25    92           0.4113732242          11.1940345245      PI        B1 (2)
   26   144           0.4113732242          11.1940345245      PI        B2 (3)
   27    14           0.5166763298          14.0594777041     SG+        A1 (1)
   28   192           0.5504702074          14.9790558643      DE        A2 (4)
   29    15           0.5504702074          14.9790558643      DE        A1 (1)
   30   145           0.6242927790          16.9878701619      PI        B2 (3)
   31    93           0.6242927790          16.9878701619      PI        B1 (2)
   32    16           0.6961653471          18.9436221690     SG+        A1 (1)
   33   146           0.7236790187          19.6923072365      PH        B2 (3)
   34    94           0.7236790187          19.6923072365      PH        B1 (2)
   35    17           0.7301850604          19.8693456312      DE        A1 (1)
   36   193           0.7301850604          19.8693456312      DE        A2 (4)
   37   147           0.7657924576          20.8382721674      PI        B2 (3)
   38    95           0.7657924576          20.8382721674      PI        B1 (2)
   39    18           0.8036445130          21.8682789595     SG+        A1 (1)
   40    19           0.8443415667          22.9757020927      DE        A1 (1)
   41   194           0.8443415667          22.9757020927      DE        A2 (4)
   42    96           0.8575196224          23.3342952172      PI        B1 (2)
   43   148           0.8575196224          23.3342952172      PI        B2 (3)
   44    20           0.9121766363          24.8215881783     SG+        A1 (1)
   45    97           1.0605998089          28.8603880341      PI        B1 (2)
   46   149           1.0605998089          28.8603880341      PI        B2 (3)
   47    21           1.1562710502          31.4637348608     SG+        A1 (1)
   48    22           1.3106851695          35.6655566650     SG+        A1 (1)
   49    98           1.4178061498          38.5804667293      PH        B1 (2)
   50   150           1.4178061498          38.5804667293      PH        B2 (3)
   51   151           1.4474800338          39.3879341624      PI        B2 (3)
   52    99           1.4474800338          39.3879341624      PI        B1 (2)
   53    23           1.5757446035          42.8781905452     SG+        A1 (1)
   54   195           1.5841878328          43.1079424972      DE        A2 (4)
   55    24           1.5841878328          43.1079424972      DE        A1 (1)
   56   152           1.6424818528          44.6942034239      PI        B2 (3)
   57   100           1.6424818528          44.6942034239      PI        B1 (2)
   58    25           1.6545135408          45.0216022994      DE        A1 (1)
   59   196           1.6545135408          45.0216022994      DE        A2 (4)
   60    26           1.8389969624          50.0416514145     SG+        A1 (1)
   61    27           1.9229578260          52.3263426642     SG+        A1 (1)
   62   153           2.0005778906          54.4384920025      PI        B2 (3)
   63   101           2.0005778906          54.4384920025      PI        B1 (2)
   64   197           2.0531005646          55.8677066217      PI        A2 (4)
   65    28           2.0531005646          55.8677066217      PI        A1 (1)
   66    29           2.1116034872          57.4596520792      DE        A1 (1)
   67   198           2.1116034872          57.4596520792      DE        A2 (4)
   68   154           2.1565017149          58.6813949677      PH        B2 (3)
   69   102           2.1565017149          58.6813949677      PH        B1 (2)
   70   155           2.1932112832          59.6803131031      PH        B2 (3)
   71   103           2.1932112832          59.6803131031      PH        B1 (2)
   72   156           2.1951857008          59.7340397395      PI        B2 (3)
   73   104           2.1951857008          59.7340397395      PI        B1 (2)
   74    30           2.2232794079          60.4985083733     SG+        A1 (1)
   75    31           2.2634031495          61.5903308885      DE        A1 (1)
   76   199           2.2634031495          61.5903308886      DE        A2 (4)
   77    32           2.3490500123          63.9209005118     SG+        A1 (1)
   78   157           2.4529997328          66.7495162085      PI        B2 (3)
   79   105           2.4529997328          66.7495162086      PI        B1 (2)
   80    33           2.5258855938          68.7328413161      DE        A1 (1)
   81   200           2.5258855938          68.7328413161      DE        A2 (4)
   82    34           2.6318194601          71.6154483674     SG+        A1 (1)
   83   158           2.6587535459          72.3483621036      PI        B2 (3)
   84   106           2.6587535459          72.3483621036      PI        B1 (2)
   85    35           2.7955446361          76.0706369053     SG+        A1 (1)
   86   159           3.2151392050          87.4883855924      PI        B2 (3)
   87   107           3.2151392050          87.4883855924      PI        B1 (2)
   88   201           3.7260425037         101.3907711318      PI        A2 (4)
   89    36           3.7260425037         101.3907711318      PI        A1 (1)
   90    37           3.7414523917         101.8100955023     SG+        A1 (1)
   91   108           3.8451105811         104.6307782374      PH        B1 (2)
   92   160           3.8451105811         104.6307782374      PH        B2 (3)
   93    38           4.0539299722         110.3130427515     SG+        A1 (1)
   94    39           4.1138133240         111.9425515947      DE        A1 (1)
   95   202           4.1138133240         111.9425515947      DE        A2 (4)
   96   161           4.1308342560         112.4057147026      PI        B2 (3)
   97   109           4.1308342560         112.4057147026      PI        B1 (2)
   98   162           4.1559834585         113.0900592929      PH        B2 (3)
   99   110           4.1559834585         113.0900592929      PH        B1 (2)
  100    40           4.2859988356         116.6279575677     SG+        A1 (1)
  101    41           4.3140549591         117.3914034996      DE        A1 (1)
  102   203           4.3140549591         117.3914034996      DE        A2 (4)
  103   111           4.4538694157         121.1959482841      PI        B1 (2)
  104   163           4.4538694157         121.1959482841      PI        B2 (3)
  105    42           4.5416285879         123.5839967650      DE        A1 (1)
  106   204           4.5416285879         123.5839967650      DE        A2 (4)
  107    43           4.8375475840         131.6363620239     SG+        A1 (1)
  108   164           4.9707267370         135.2603510162      PI        B2 (3)
  109   112           4.9707267370         135.2603510162      PI        B1 (2)
  110    44           5.0926400297         138.5777803662     SG+        A1 (1)
  111   113           5.3508590343         145.6042767015      PI        B1 (2)
  112   165           5.3508590343         145.6042767016      PI        B2 (3)
  113   205           5.8025379671         157.8950853149      PI        A2 (4)
  114    45           5.8025379671         157.8950853149      PI        A1 (1)
  115   166           5.8744198084         159.8510896578      PH        B2 (3)
  116   114           5.8744198084         159.8510896578      PH        B1 (2)
  117    46           5.8997228154         160.5396194841     SG+        A1 (1)
  118    47           6.0169677476         163.7300162856      DE        A1 (1)
  119   206           6.0169677476         163.7300162856      DE        A2 (4)
  120   115           6.0933064573         165.8072981841      PI        B1 (2)
  121   167           6.0933064573         165.8072981841      PI        B2 (3)
  122    48           6.1175082470         166.4658623617     SG+        A1 (1)
  123    49           6.2309389438         169.5524685415      DE        A1 (1)
  124   207           6.2309389438         169.5524685415      DE        A2 (4)
  125   168           6.3269643596         172.1654529463      PH        B2 (3)
  126   116           6.3269643596         172.1654529464      PH        B1 (2)
  127    50           6.4525741346         175.5834686931      DE        A1 (1)
  128   208           6.4525741346         175.5834686931      DE        A2 (4)
  129   169           6.6512981540         180.9910241774      PI        B2 (3)
  130   117           6.6512981540         180.9910241774      PI        B1 (2)
  131   118           6.9024852703         187.8261731027      PI        B1 (2)
  132   170           6.9024852703         187.8261731027      PI        B2 (3)
  133    51           7.0221865794         191.0834113176     SG+        A1 (1)
  134    52           7.3479221140         199.9471258384     SG+        A1 (1)
  135    53           9.2250756076         251.0270692528     SG+        A1 (1)
  136   119           9.5620501632         260.1966130814      PI        B1 (2)
  137   171           9.5620501632         260.1966130815      PI        B2 (3)
  138    54          10.6179176156         288.9282271474     SG+        A1 (1)
  139   209          10.6908376571         290.9124823558      PI        A2 (4)
  140    55          10.6908376571         290.9124823558      PI        A1 (1)
  141   172          10.7221616053         291.7648503183      PH        B2 (3)
  142   120          10.7221616053         291.7648503183      PH        B1 (2)
  143    56          10.9000498685         296.6054360496      DE        A1 (1)
  144   210          10.9000498685         296.6054360496      DE        A2 (4)
  145   173          11.0057383583         299.4813660679      PI        B2 (3)
  146   121          11.0057383583         299.4813660679      PI        B1 (2)
  147    57          11.0662247031         301.1272831855     SG+        A1 (1)
  148   174          11.9248615467         324.4919795389      PH        B2 (3)
  149   122          11.9248615467         324.4919795389      PH        B1 (2)
  150   211          11.9714262064         325.7590683484      DE        A2 (4)
  151    58          11.9714262065         325.7590683487      DE        A1 (1)
  152   123          12.1383063308         330.3001073932      PI        B1 (2)
  153   175          12.1383063308         330.3001073932      PI        B2 (3)
  154    59          12.4206796571         337.9838762377     SG+        A1 (1)
  155    60          12.7255488684         346.2797892332      DE        A1 (1)
  156   212          12.7255488684         346.2797892332      DE        A2 (4)
  157   124          13.0726105885         355.7238187620      PI        B1 (2)
  158   176          13.0726105885         355.7238187621      PI        B2 (3)
  159    61          13.2943712534         361.7582332389     SG+        A1 (1)
  160    62          17.1219851600         465.9129027582     SG+        A1 (1)
  161   125          18.6454037418         507.3672298671      PI        B1 (2)
  162   177          18.6454037418         507.3672298672      PI        B2 (3)
  163    63          19.3095407355         525.4393162311     SG+        A1 (1)
  164    64          26.2288449351         713.7231556671      DE        A1 (1)
  165   213          26.2288449351         713.7231556671      DE        A2 (4)
  166   178          26.4124277429         718.7186978360      PI        B2 (3)
  167   126          26.4124277429         718.7186978360      PI        B1 (2)
  168    65          26.8009353159         729.2905263585     SG+        A1 (1)
  169   127          33.3106216921         906.4280981560      PI        B1 (2)
  170   179          33.3106216921         906.4280981563      PI        B2 (3)
  171    66          34.0489987973         926.5203606595     SG+        A1 (1)
  172    67          35.4831418242         965.5453764142     SG+        A1 (1)
  173    68          47.0889733189        1281.3561068916      DE        A1 (1)
  174   214          47.0889733189        1281.3561068916      DE        A2 (4)
  175   128          47.2530560695        1285.8210255280      PI        B1 (2)
  176   180          47.2530560695        1285.8210255282      PI        B2 (3)
  177    69          47.3819909778        1289.3295227528     SG+        A1 (1)
  178    70          63.5889998469        1730.3446548560     SG+        A1 (1)
  179   129          66.2454070732        1802.6291703570      PI        B1 (2)
  180   181          66.2454070732        1802.6291703570      PI        B2 (3)
  181    71          66.7451952273        1816.2290974388     SG+        A1 (1)
  182   182          98.4909287596        2680.0744238985      PH        B2 (3)
  183   130          98.4909287596        2680.0744238985      PH        B1 (2)
  184   215          98.5072486307        2680.5185101700      DE        A2 (4)
  185    72          98.5072486307        2680.5185101700      DE        A1 (1)
  186   183          98.5221329324        2680.9235326089      PI        B2 (3)
  187   131          98.5221329324        2680.9235326089      PI        B1 (2)
  188    73          98.5282420669        2681.0897706098     SG+        A1 (1)
  189    74         103.3287279475        2811.7176324145      DE        A1 (1)
  190   216         103.3287279476        2811.7176324166      DE        A2 (4)
  191   132         103.3313476669        2811.7889186022      PI        B1 (2)
  192   184         103.3313476669        2811.7889186022      PI        B2 (3)
  193    75         103.3428147755        2812.1009544905     SG+        A1 (1)
  194   133         103.3441258286        2812.1366300601      PH        B1 (2)
  195   185         103.3441258286        2812.1366300601      PH        B2 (3)
  196   217         114.9400417434        3127.6775438917      DE        A2 (4)
  197    76         114.9400417434        3127.6775438917      DE        A1 (1)
  198   186         115.0301644432        3130.1299072280      PI        B2 (3)
  199   134         115.0301644432        3130.1299072280      PI        B1 (2)
  200    77         115.1932714852        3134.5682754830     SG+        A1 (1)
  201   135         116.6387340554        3173.9013116719      PI        B1 (2)
  202   187         116.6387340554        3173.9013116719      PI        B2 (3)
  203    78         117.2711653177        3191.1106412250     SG+        A1 (1)
  204    79         121.7407368818        3312.7338666900     SG+        A1 (1)
  205    80         198.5745512148        5403.4882465890      DE        A1 (1)
  206   218         198.5745512148        5403.4882465891      DE        A2 (4)
  207   136         198.6637147200        5405.9145089153      PI        B1 (2)
  208   188         198.6637147201        5405.9145089156      PI        B2 (3)
  209    81         198.7329889563        5407.7995567166     SG+        A1 (1)
  210    82         216.1296273385        5881.1861536082     SG+        A1 (1)
  211   137         224.7381877942        6115.4369926893      PI        B1 (2)
  212   189         224.7381877942        6115.4369926893      PI        B2 (3)
  213    83         225.1317111367        6126.1453072377     SG+        A1 (1)
  214   190         395.1976404918       10753.8745141976      PI        B2 (3)
  215   138         395.1976404918       10753.8745141979      PI        B1 (2)
  216    84         395.6832556844       10767.0887753873     SG+        A1 (1)
  217    85         508.5029764976       13837.0694535175     SG+        A1 (1)
  218    86         894.9407430533       24352.5756795047     SG+        A1 (1)


  VSCF finished.

 @CHECKOUT-I, Total execution time (CPU/WALL):       50.72/       8.63 seconds.
--executable xvscf finished with status     0 in        8.65 seconds (walltime).
 --invoking executable--
/nfs/workspaces/public/cfour_mpi/bin/xvtran
 @GETMEM-I,  Allocated    3814 MB of main memory.
  Full RHF integral transformation
  Transformation of IIII integrals :
  1 pass through the AO integral file was required.
     4363857 AO integrals were read.
     8551778 MO integrals were written to HF2.
  Transformation of IIJJ integrals :
  1 pass through the AO integral file was required.
     9917521 AO integrals were read.
    14269177 MO integrals were written to HF2.
  Transformation of IJIJ integrals :
  1 pass through the AO integral file was required.
    18829869 AO integrals were read.
    26468887 MO integrals were written to HF2.
  Transformation of IJKL integrals :
  1 pass through the AO integral file was required.
    13891592 AO integrals were read.
    17939549 MO integrals were written to HF2.
  Summary of active molecular orbitals: 
------------------------------------------------------------------------
 
  Index      Eigenvalue    Symmetry    Index      Eigenvalue    Symmetry
------------------------------------------------------------------------
     1       -20.6243103        1       110         4.1308343        2
     2       -11.5349528        1       111         4.1559835        2
     3        -1.2260790        1       112         4.4538694        2
     4        -0.8138066        1       113         4.9707267        2
     5        -0.4890537        1       114         5.3508590        2
     6        -0.4776874        2       115         5.8744198        2
     7        -0.4776874        3       116         6.0933065        2
     8         0.0574784        1       117         6.3269644        2
     9         0.0684777        1       118         6.6512982        2
    10         0.1480054        1       119         6.9024853        2
    11         0.1623525        1       120         9.5620502        2
    12         0.2193180        1       121        10.7221616        2
    13         0.2861194        1       122        11.0057384        2
    14         0.3056095        1       123        11.9248615        2
    15         0.4085278        1       124        12.1383063        2
    16         0.5166763        1       125        13.0726106        2
    17         0.5504702        1       126        18.6454037        2
    18         0.6961653        1       127        26.4124277        2
    19         0.7301851        1       128        33.3106217        2
    20         0.8036445        1       129        47.2530561        2
    21         0.8443416        1       130        66.2454071        2
    22         0.9121766        1       131        98.4909288        2
    23         1.1562711        1       132        98.5221329        2
    24         1.3106852        1       133       103.3313477        2
    25         1.5757446        1       134       103.3441258        2
    26         1.5841878        1       135       115.0301644        2
    27         1.6545135        1       136       116.6387341        2
    28         1.8389970        1       137       198.6637147        2
    29         1.9229578        1       138       224.7381878        2
    30         2.0531006        1       139       395.1976405        2
    31         2.1116035        1       140        -0.0269766        3
    32         2.2232794        1       141         0.0812853        3
    33         2.2634031        1       142         0.1837365        3
    34         2.3490500        1       143         0.2789677        3
    35         2.5258856        1       144         0.4113732        3
    36         2.6318195        1       145         0.6242928        3
    37         2.7955446        1       146         0.7236790        3
    38         3.7260425        1       147         0.7657925        3
    39         3.7414524        1       148         0.8575196        3
    40         4.0539300        1       149         1.0605998        3
    41         4.1138133        1       150         1.4178061        3
    42         4.2859988        1       151         1.4474800        3
    43         4.3140550        1       152         1.6424819        3
    44         4.5416286        1       153         2.0005779        3
    45         4.8375476        1       154         2.1565017        3
    46         5.0926400        1       155         2.1932113        3
    47         5.8025380        1       156         2.1951857        3
    48         5.8997228        1       157         2.4529997        3
    49         6.0169677        1       158         2.6587535        3
    50         6.1175082        1       159         3.2151392        3
    51         6.2309389        1       160         3.8451106        3
    52         6.4525741        1       161         4.1308343        3
    53         7.0221866        1       162         4.1559835        3
    54         7.3479221        1       163         4.4538694        3
    55         9.2250756        1       164         4.9707267        3
    56        10.6179176        1       165         5.3508590        3
    57        10.6908377        1       166         5.8744198        3
    58        10.9000499        1       167         6.0933065        3
    59        11.0662247        1       168         6.3269644        3
    60        11.9714262        1       169         6.6512982        3
    61        12.4206797        1       170         6.9024853        3
    62        12.7255489        1       171         9.5620502        3
    63        13.2943713        1       172        10.7221616        3
    64        17.1219852        1       173        11.0057384        3
    65        19.3095407        1       174        11.9248615        3
    66        26.2288449        1       175        12.1383063        3
    67        26.8009353        1       176        13.0726106        3
    68        34.0489988        1       177        18.6454037        3
    69        35.4831418        1       178        26.4124277        3
    70        47.0889733        1       179        33.3106217        3
    71        47.3819910        1       180        47.2530561        3
    72        63.5889998        1       181        66.2454071        3
    73        66.7451952        1       182        98.4909288        3
    74        98.5072486        1       183        98.5221329        3
    75        98.5282421        1       184       103.3313477        3
    76       103.3287279        1       185       103.3441258        3
    77       103.3428148        1       186       115.0301644        3
    78       114.9400417        1       187       116.6387341        3
    79       115.1932715        1       188       198.6637147        3
    80       117.2711653        1       189       224.7381878        3
    81       121.7407369        1       190       395.1976405        3
    82       198.5745512        1       191         0.2193180        4
    83       198.7329890        1       192         0.5504702        4
    84       216.1296273        1       193         0.7301851        4
    85       225.1317111        1       194         0.8443416        4
    86       395.6832557        1       195         1.5841878        4
    87       508.5029765        1       196         1.6545135        4
    88       894.9407431        1       197         2.0531006        4
    89        -0.0269766        2       198         2.1116035        4
    90         0.0812853        2       199         2.2634031        4
    91         0.1837365        2       200         2.5258856        4
    92         0.2789677        2       201         3.7260425        4
    93         0.4113732        2       202         4.1138133        4
    94         0.6242928        2       203         4.3140550        4
    95         0.7236790        2       204         4.5416286        4
    96         0.7657925        2       205         5.8025380        4
    97         0.8575196        2       206         6.0169677        4
    98         1.0605998        2       207         6.2309389        4
    99         1.4178061        2       208         6.4525741        4
   100         1.4474800        2       209        10.6908377        4
   101         1.6424819        2       210        10.9000499        4
   102         2.0005779        2       211        11.9714262        4
   103         2.1565017        2       212        12.7255489        4
   104         2.1932113        2       213        26.2288449        4
   105         2.1951857        2       214        47.0889733        4
   106         2.4529997        2       215        98.5072486        4
   107         2.6587535        2       216       103.3287279        4
   108         3.2151392        2       217       114.9400417        4
   109         3.8451106        2       218       198.5745512        4
------------------------------------------------------------------------
  -20.6243102514106       -11.5349528263990       -1.22607897896030     
 -0.813806584056826      -0.489053742419288      -0.477687380458035     
 -0.477687380458040       5.747840827732055E-002  6.847766982971061E-002
  0.148005396667649       0.162352522857172       0.219317992257525     
  0.286119355666114       0.305609506244335       0.408527767599937     
  0.516676329807084       0.550470207415384       0.696165347071332     
  0.730185060388646       0.803644512962405       0.844341566725660     
  0.912176636277457        1.15627105017966        1.31068516953659     
   1.57574460345972        1.58418783284565        1.65451354080696     
   1.83899696237186        1.92295782595791        2.05310056458471     
   2.11160348720772        2.22327940788653        2.26340314945355     
   2.34905001234882        2.52588559375118        2.63181946006385     
   2.79554463612175        3.72604250366003        3.74145239166023     
   4.05392997224485        4.11381332397464        4.28599883560735     
   4.31405495905637        4.54162858787264        4.83754758399931     
   5.09264002969392        5.80253796706651        5.89972281541862     
[...]
 Convergence information after    22 iterations: 
 Largest element of residual vector :  0.14288928E-06.
 Largest element of DIIS residual   :  0.88069794E-07.
 Perturbed amplitude equations converged in    22 iterations.
  Dominant contributions to perturbed wavefunction:
    7    0   46    0   0.3420735064 AA  
    7    0   22    0   0.2891068343 AA  
    7    0   32    0   0.2331372551 AA  
    7    0   36    0   0.2299237916 AA  
    7    7  140   46  -0.2267633043 ABAB
    7    7   46  140  -0.2267633043 ABAB
    7    0   28    0   0.2240770306 AA  
    7    7  140   22  -0.2234305130 ABAB
    7    7   22  140  -0.2234305130 ABAB
    7    0   54    0  -0.2080405115 AA  
    7    0   16    0  -0.2036354559 AA  
    7    0   25    0   0.1994416582 AA  
    7    0   56    0   0.1888558712 AA  
    7    7  140   32  -0.1887564717 ABAB
    7    7   32  140  -0.1887564717 ABAB
    7    0   24    0   0.1790696455 AA  
    7    0   37    0   0.1766185608 AA  
    7    0   39    0   0.1716047301 AA  
    7    0   63    0  -0.1600376145 AA  
    7    7  140   36  -0.1526715032 ABAB
  norm of converged amps    1.56807195718552     
 Starting iterative solution of the perturbed Lambda equations.
 The DIIS procedure is used to accelerate convergence.
 Convergence criterion is 10**(-7).
 Maximum number of iterations is 100.
 Convergence information after     1 iterations: 
 Largest element of residual vector :  0.75806958E-01.
 Largest element of DIIS residual   :  0.75806958E-01.
 Convergence information after     2 iterations: 
 Largest element of residual vector :  0.21035585E-01.
 Largest element of DIIS residual   :  0.14916876E-01.
 Convergence information after     3 iterations: 
 Largest element of residual vector :  0.68271597E-02.
 Largest element of DIIS residual   :  0.56238935E-02.
 Convergence information after     4 iterations: 
 Largest element of residual vector :  0.29340545E-02.
 Largest element of DIIS residual   :  0.28272613E-02.
 Convergence information after     5 iterations: 
 Largest element of residual vector :  0.29513867E-02.
 Largest element of DIIS residual   :  0.26234173E-02.
 Convergence information after     6 iterations: 
 Largest element of residual vector :  0.18148678E-02.
 Largest element of DIIS residual   :  0.96692085E-03.
 Convergence information after     7 iterations: 
 Largest element of residual vector :  0.10502605E-02.
 Largest element of DIIS residual   :  0.50879112E-03.
 Convergence information after     8 iterations: 
 Largest element of residual vector :  0.39582386E-03.
 Largest element of DIIS residual   :  0.19336171E-03.
 Convergence information after     9 iterations: 
 Largest element of residual vector :  0.16119495E-03.
 Largest element of DIIS residual   :  0.10034742E-03.
 Convergence information after    10 iterations: 
 Largest element of residual vector :  0.11797107E-03.
 Largest element of DIIS residual   :  0.82679474E-04.
 Convergence information after    11 iterations: 
 Largest element of residual vector : -0.41148118E-04.
 Largest element of DIIS residual   : -0.22125993E-04.
 Convergence information after    12 iterations: 
 Largest element of residual vector :  0.31313727E-04.
 Largest element of DIIS residual   :  0.15897685E-04.
 Convergence information after    13 iterations: 
 Largest element of residual vector :  0.91842318E-05.
 Largest element of DIIS residual   :  0.68042370E-05.
 Convergence information after    14 iterations: 
 Largest element of residual vector :  0.84191840E-05.
 Largest element of DIIS residual   :  0.40802977E-05.
 Convergence information after    15 iterations: 
 Largest element of residual vector :  0.47113443E-05.
 Largest element of DIIS residual   :  0.24618230E-05.
 Convergence information after    16 iterations: 
 Largest element of residual vector :  0.19177305E-05.
 Largest element of DIIS residual   :  0.56343347E-06.
 Convergence information after    17 iterations: 
 Largest element of residual vector :  0.11059087E-05.
 Largest element of DIIS residual   :  0.54688212E-06.
 Convergence information after    18 iterations: 
 Largest element of residual vector :  0.27305342E-06.
 Largest element of DIIS residual   : -0.17833078E-06.
 Convergence information after    19 iterations: 
 Largest element of residual vector :  0.24581446E-06.
 Largest element of DIIS residual   :  0.12317489E-06.
 Convergence information after    20 iterations: 
 Largest element of residual vector : -0.83107319E-07.
 Largest element of DIIS residual   :  0.63964439E-07.
 Perturbed Lambda equations converged in    20 iterations.
  Dominant contributions to perturbed wavefunction:
    7    7  140   22  -0.1476974123 ABAB
    7    7   22  140  -0.1476974123 ABAB
    7    7  140   46  -0.1455477324 ABAB
    7    7   46  140  -0.1455477324 ABAB
    7    7  140   32  -0.1256071925 ABAB
    7    7   32  140  -0.1256071925 ABAB
    7    0   46    0   0.0995573701 AA  
    7    7  140   36  -0.0985082236 ABAB
    7    7   36  140  -0.0985082236 ABAB
    7    6   22   89  -0.0937687136 ABAB
    6    7   89   22  -0.0937687136 ABAB
    7    6   46   89  -0.0935115493 ABAB
    6    7   89   46  -0.0935115493 ABAB
    7    7  140   16   0.0925287694 ABAB
    7    7   16  140   0.0925287694 ABAB
    7    7  140   56  -0.0920736880 ABAB
    7    7   56  140  -0.0920736880 ABAB
    7    7  140   28  -0.0903623586 ABAB
    7    7   28  140  -0.0903623586 ABAB
    7    7  140   39  -0.0858044814 ABAB
        The DBOC first-order density matrix is being calculated 
             (Symmetry block 3, perturbation   2)
 term   2.59859423240667     
 final tnorm  0.642627245896442     
  norm contr. I: |<0|L dT/dx|0>|^2   0.000000000000000E+000
  norm contr. II: <0|[nabla(1+L)e-T][nabla e^T]|0>   2.59859423240667     
  total norm contribution   2.59859423240667     
 oo  1.361776798164907E-002
 vv  -19.4065137800892     
 vo -2.932692040590470E-002
  Correlated perturbed 1-el contribution to DBOC  -19.4222229325134       cm**-1
  SUM_I |dc_I/dx|^2 contribution to DBOC   9.78295267251197       cm**-1
 
 
  The total diagonal Born-Oppenheimer correction (DBOC) is:      0.0041356923 a.u.
  The total diagonal Born-Oppenheimer correction (DBOC) is:        907.679538 cm-1
 
 Total CC energy including DBOC  -113.002042029604     
 First-order density matrix is being calculated  (Symmetry block 3, perturbation   2)
 Calculation of the contributions of <pq||rs> to dI(i,j)/dx required   1.3 seconds.
 Calculation of the contributions of <pq||rs> to dI(a,b)/dx required  12.9 seconds.
 Calculation of the contributions of <pq||rs> to dI(i,a)/dx required   8.7 seconds.
 First-order Z-vector equations are solved for 1 perturbation.
 Convergence reached after  20 iterations.
        U*G(pq,rs) contribution is being calculated
             (Symmetry block 3, perturbation   2)

 CCSD contribution to force constants 

        0.0000000000        0.0000000000        0.0000000000
        0.0000000000        0.0000000000        0.0000000000
        0.0000000000        0.0000000000        0.0000000000
        0.0000000000        0.0000000000        0.0000000000
        0.0000000000        0.0000000000        0.0000000000
        0.0000000000        0.0000000000        0.0000000000
        0.0000000000        0.0000000000        0.0000000000
        0.0000000000        0.0000000000        0.0000000000
        0.0000000000        0.0000000000        0.0000000000
        0.0000000000        0.0000000000        0.0000000000
        0.0000000000        0.0000000000        0.0000000000
        0.0000000000      -11.1697649443       11.1697649443

 CCSD contribution to dipole derivatives 

        0.0000000000        0.0000000000        0.0000000000
        0.0000000000        0.0000000000        0.0000000000
        0.0000000000        0.0000000000        0.0000000000
        0.0000000000        0.0000000000       -0.0549579678
        0.0000000000        0.0000000000        0.0000000000
        0.0000000000        0.0000000000        0.0000000000
 @CHECKOUT-I, Total execution time (CPU/WALL):     1113.29/     218.90 seconds.
--executable xsdcc finished with status     0 in      218.94 seconds (walltime).
 --invoking executable--
/nfs/workspaces/public/cfour_mpi/bin/xanti
 @GETMEM-I,  Allocated    3814 MB of main memory.
 CCSD MO derivative gammas will be sorted to Mulliken order.
 @CHECKOUT-I, Total execution time (CPU/WALL):        9.45/      23.10 seconds.
--executable xanti finished with status     0 in       23.13 seconds (walltime).
 --invoking executable--
/nfs/workspaces/public/cfour_mpi/bin/xbcktrn
 @GETMEM-I,  Allocated    3814 MB of main memory.
 CCSD MO derivative gammas will be transformed to the AO basis.
 @CHECKOUT-I, Total execution time (CPU/WALL):       17.62/       4.17 seconds.
--executable xbcktrn finished with status     0 in        4.20 seconds (walltime).
 --invoking executable--
/nfs/workspaces/public/cfour_mpi/bin/xvdint
 @GETMEM-I,  Allocated    3814 MB of main memory.
 One- and two-electron integral derivatives are calculated
 for RHF-CC/MBPT hessians and dipole derivatives.
 Spherical gaussians are used.
  magnet F F
                    8722  records have been written to the Sort file.
  Total length of Sort file :             178609116  words.
 Evaluation of 2el integral derivatives

                      Two-electron integral gradient
                      ------------------------------

                         C #1 z     0.0000000000
                         O #2 z     0.0000000000


 C #1       0.0000000000            0.0612728708            0.0000000000
 O #2       0.0000000000           -0.0612728708            0.0000000000


 Evaluation of 2e integral derivatives required  257.83 seconds.
  contribution to Hessian
        0.0000000000        0.0000000000        0.0000000000
        0.0000000000        0.0612728708       -0.0612728708
 @CHECKOUT-I, Total execution time (CPU/WALL):      257.82/      59.65 seconds.
--executable xvdint finished with status     0 in       59.68 seconds (walltime).
 --invoking executable--
/nfs/workspaces/public/cfour_mpi/bin/xanti
 @GETMEM-I,  Allocated    3814 MB of main memory.
 CCSD MO gammas will be sorted to Mulliken order.
 @CHECKOUT-I, Total execution time (CPU/WALL):       10.28/       8.90 seconds.
--executable xanti finished with status     0 in        8.93 seconds (walltime).
 --invoking executable--
/nfs/workspaces/public/cfour_mpi/bin/xbcktrn
 @GETMEM-I,  Allocated    3814 MB of main memory.
 CCSD MO gammas will be transformed to the AO basis.
 @CHECKOUT-I, Total execution time (CPU/WALL):       24.53/       4.41 seconds.
--executable xbcktrn finished with status     0 in        4.43 seconds (walltime).
 --invoking executable--
/nfs/workspaces/public/cfour_mpi/bin/xvdint
 @GETMEM-I,  Allocated    3814 MB of main memory.
 One- and two-electron integral derivatives are calculated
 for RHF-CC/MBPT hessians and dipole derivatives.
 Spherical gaussians are used.
  magnet F F

                     Kinetic energy integral gradient
                     --------------------------------

                         C #1 z    -0.3696701564
                         O #2 z     0.3696701564


 C #1       0.0000000000            0.0000000000           -0.3696701564
 O #2       0.0000000000            0.0000000000            0.3696701564



                   Nuclear attraction integral gradient
                   ------------------------------------

                         C #1 z    11.4271032389
                         O #2 z   -11.4271032389


 C #1       0.0000000000            0.0000000000           11.4271032389
 O #2       0.0000000000            0.0000000000          -11.4271032389



                      Reorthonormalization gradient
                      -----------------------------

                         C #1 z     0.0000000000
                         O #2 z     0.0000000000


 C #1       0.0000000000            0.0000000000            0.0000000000
 O #2       0.0000000000            0.0000000000            0.0000000000



                     Kinetic energy integral Hessian
                     -------------------------------


           Symmetry 1

           C #1 z      O #2 z

 C #1 z    0.394034
 O #2 z   -0.394034    0.394034


           Symmetry 2

           C #1 x      O #2 x

 C #1 x   -0.239194
 O #2 x    0.239194   -0.239194


           Symmetry 3

           C #1 y      O #2 y

 C #1 y   -0.239194
 O #2 y    0.239194   -0.239194




           C #1 x      C #1 y      C #1 z      O #2 x      O #2 y      O #2 z

 C #1 x   -0.239194
 C #1 y    0.000000   -0.239194
 C #1 z    0.000000    0.000000    0.394034

 O #2 x    0.239194    0.000000    0.000000   -0.239194
 O #2 y    0.000000    0.239194    0.000000    0.000000   -0.239194
 O #2 z    0.000000    0.000000   -0.394034    0.000000    0.000000    0.394034




                   Nuclear attraction integral Hessian
                   -----------------------------------


           Symmetry 1

           C #1 z      O #2 z

 C #1 z   -6.723199
 O #2 z    6.723199   -6.723199


           Symmetry 2

           C #1 x      O #2 x

 C #1 x    5.245972
 O #2 x   -5.245972    5.245972


           Symmetry 3

           C #1 y      O #2 y

 C #1 y    5.245972
 O #2 y   -5.245972    5.245972




           C #1 x      C #1 y      C #1 z      O #2 x      O #2 y      O #2 z

 C #1 x    5.245972
 C #1 y    0.000000    5.245972
 C #1 z    0.000000    0.000000   -6.723199

 O #2 x   -5.245972    0.000000    0.000000    5.245972
 O #2 y    0.000000   -5.245972    0.000000    0.000000    5.245972
 O #2 z    0.000000    0.000000    6.723199    0.000000    0.000000   -6.723199




                Highest order reorthonormalization Hessian
                ------------------------------------------


           Symmetry 1

           C #1 z      O #2 z

 C #1 z    0.000000
 O #2 z    0.000000    0.000000


           Symmetry 2

           C #1 x      O #2 x

 C #1 x    0.000000
 O #2 x    0.000000    0.000000


           Symmetry 3

           C #1 y      O #2 y

 C #1 y    0.000000
 O #2 y    0.000000    0.000000




           C #1 x      C #1 y      C #1 z      O #2 x      O #2 y      O #2 z




                Electronic contributions to dipole moment
                -----------------------------------------

                               au             Debye

                    z      0.60581519      1.53982888

  Conversion factor used: 1 a.u. =   2.54174691 Debye 



   Electronic contributions to static part of dipole moment derivatives
   --------------------------------------------------------------------


                     Total dipole moment derivatives
                     -------------------------------


           Symmetry 1
                              Ez

               C #1 z    -5.68224181
               O #2 z    -8.31775819

           Symmetry 2
                              Ex

               C #1 x    -5.69577795
               O #2 x    -8.30422205

           Symmetry 3
                              Ey

               C #1 y    -5.69577795
               O #2 y    -8.30422205



                       Ex          Ey          Ez

      C #1    x   -5.695778    0.000000    0.000000
      C #1    y    0.000000   -5.695778    0.000000
      C #1    z    0.000000    0.000000   -5.682242

      O #2    x   -8.304222    0.000000    0.000000
      O #2    y    0.000000   -8.304222    0.000000
      O #2    z    0.000000    0.000000   -8.317758

 Evaluation of 1e integral derivatives required    1.64 seconds.
                    8815  records have been written to the Sort file.
  Total length of Sort file :             180513570  words.
 Evaluation of 2el integral derivatives

                      Two-electron integral gradient
                      ------------------------------

                         C #1 z    -6.2702386574
                         O #2 z     6.2702386574


 C #1       0.0000000000            0.0000000000           -6.2702386574
 O #2       0.0000000000            0.0000000000            6.2702386574


 Evaluation of 2e integral derivatives required  568.33 seconds.

                            Molecular gradient
                            ------------------

                         C #1 z     0.4917847913
                         O #2 z    -0.4917847913


 C #1       0.0000000000            0.0000000000            0.4917847913
 O #2       0.0000000000            0.0000000000           -0.4917847913


  Molecular gradient norm 0.695E+00

                            Molecular hessian
                            -----------------


           Symmetry 1

           C #1 z      O #2 z

 C #1 z    6.718332
 O #2 z   -6.718332    6.718332


           Symmetry 2

           C #1 x      O #2 x

 C #1 x   11.329995
 O #2 x  -11.329995   11.329995


           Symmetry 3

           C #1 y      O #2 y

 C #1 y   11.329995
 O #2 y  -11.329995   11.329995




           C #1 x      C #1 y      C #1 z      O #2 x      O #2 y      O #2 z

 C #1 x   11.329995
 C #1 y    0.000000   11.329995
 C #1 z    0.000000    0.000000    6.718332

 O #2 x  -11.329995    0.000000    0.000000   11.329995
 O #2 y    0.000000  -11.329995    0.000000    0.000000   11.329995
 O #2 z    0.000000    0.000000   -6.718332    0.000000    0.000000    6.718332




                           Total dipole moment
                           -------------------

                               au             Debye

                    z      0.60217173      1.53056815

  Conversion factor used: 1 a.u. =   2.54174691 Debye 



                     Total dipole moment derivatives
                     -------------------------------


           Symmetry 1
                              Ez

               C #1 z     0.37358667
               O #2 z    -0.37358667

           Symmetry 2
                              Ex

               C #1 x     0.19478766
               O #2 x    -0.19478766

           Symmetry 3
                              Ey

               C #1 y     0.19478766
               O #2 y    -0.19478766



                       Ex          Ey          Ez

      C #1    x    0.194788    0.000000    0.000000
      C #1    y    0.000000    0.194788    0.000000
      C #1    z    0.000000    0.000000    0.373587

      O #2    x   -0.194788    0.000000    0.000000
      O #2    y    0.000000   -0.194788    0.000000
      O #2    z    0.000000    0.000000   -0.373587

 @CHECKOUT-I, Total execution time (CPU/WALL):      569.95/      98.60 seconds.
--executable xvdint finished with status     0 in       98.64 seconds (walltime).
 --invoking executable--
/nfs/workspaces/public/cfour_mpi/bin/xjoda
  @GTFLGS-I, Hessian will be transformed to curvilinear coordinates.
  @GTFLGS-I, Hessian will be transformed to curvilinear coordinates.
  igrd and ihes are                      0                     1
  gradient from JOBARC 
   0.000000000000000   0.000000000000000   0.491784791332155
   0.000000000000000   0.000000000000000  -0.491784791332155
 
  @PROJFCM-I, Projecting force constant matrix onto totally symmetric subspace.
  Largest difference between matrix elements of symmetrized
  and unsymmetrized FCM :    -0.4600764214E-12.
  read isotopes from ZMAT file 
 
  Summary of diagonal Born-Oppenheimer correction at the correlated level
  The total diagonal Born-Oppenheimer correction (DBOC) is:      0.0041356923 a.u.
  The total diagonal Born-Oppenheimer correction (DBOC) is:        907.679538 cm-1
  The total diagonal Born-Oppenheimer correction (DBOC) is:            10.858 kJ/mole
  hellooooooo 
  readis is  F
 
 @CHECKOUT-I, Total execution time (CPU/WALL):        0.01/       0.01 seconds.
--executable xjoda finished with status     0 in        0.04 seconds (walltime).
  The final electronic energy is      -113.002042029603658 a.u. 
  This computation required                         2311.80 seconds (walltime).
