 --invoking executable--
/nfs/workspaces/public/cfour_mpi/bin/xjoda


   *************************************************************************
         <<<     CCCCCC     CCCCCC   |||     CCCCCC     CCCCCC   >>>
       <<<      CCC        CCC       |||    CCC        CCC         >>>
      <<<      CCC        CCC        |||   CCC        CCC            >>>
    <<<        CCC        CCC        |||   CCC        CCC              >>>
      <<<      CCC        CCC        |||   CCC        CCC            >>>
       <<<      CCC        CCC       |||    CCC        CCC         >>>
         <<<     CCCCCC     CCCCCC   |||     CCCCCC     CCCCCC   >>>
   *************************************************************************

     ****************************************************************
     * CFOUR Coupled-Cluster techniques for Computational Chemistry *
     ****************************************************************
 

   Department of Chemistry                Institut fuer Physikalische Chemie
   University of Florida                  Universitaet Mainz
   Gainesville, FL 32611, USA             D-55099 Mainz, Germany

   Department of Chemistry                Fakultaet fuer Chemie und Biowiss.
   Johns Hopkins University               Karlsruher Institut fuer Technologie
   Baltimore, MD 21218, USA               D-76131 Karlsruhe, Germany

   Department of Chemistry                Department of Physical Chemistry
   Southern Methodist University          Eotvos Lorand University
   Dallas, TX 75275, USA                  H-1053 Budapest, Hungary

 
                       Version 2.1
 
                     vincent.theory.phys.ucl.ac.uk                     
                     Wed 26 Feb 05:36:51 GMT 2025                      
                     integer*8 version is running
 
********************************************************************************
*                          Input from ZMAT file                                *
********************************************************************************
Carbon Monoxide DBOC calculation                                                
C                                                                               
O 1 r                                                                           
                                                                                
r=1.706896551724138                                                             
                                                                                
                                                                                
*CFOUR(CALC=CCSD,BASIS=AUG-PCVQZ,SCF_CONV=10                                    
CC_CONV=14,DBOC=ON,MEMORY=500000000                                             
ZFIELD=200)                                                                     
                                                                                
%isotopes                                                                       
12                                                                              
16                                                                              
********************************************************************************
  @GTFLGS-I, Hessian will be transformed to curvilinear coordinates.
    -------------------------------------------------------------------
                    CFOUR Control Parameters 
    -------------------------------------------------------------------
        External           Internal           Value            Units
          Name               Name
    -------------------------------------------------------------------
       ABCDTYPE             IABCDT         STANDARD    [  0]    ***   
       ANHARMONIC           IANHAR         OFF         [  0]    ***   
       ANH_ALGORIT          IANALG         STANDARD    [  0]    ***   
       ANH_DERIVAT          IANDER         SECOND      [  1]    ***   
       ANH_MODE             ANHMOD         VIBRATION   [  0]    ***   
       ANH_STEPSIZ          ICUBST             50000          x 10-6  
       ANH_SYMMETR          IANHSM         ABELIAN     [  0]    ***   
       AO_LADDERS           IAOLAD         SINGLEPASS  [  1]    ***   
       AV_SCF               IAVSCF         OFF         [  0]    ***   
       BASIS                IBASIS         AUG-PCVQZ   [ 52]    ***   
       BOTHVECTORS          BOTHVC         OFF         [  0]    ***   
       BOX_POTENT           IPIAB          OFF         [  0]    ***   
       BREIT                IBREIT         OFF         [  0]    ***   
       BRUCK_CONV           IBRTOL          10D-  4             ***   
       BRUECKNER            IBRKNR         OFF         [  0]    ***   
       BUFFERSIZE           IBUFFS              4096            ***   
       CACHE_RECS           ICHREC             10               ***   
       CALCLEVEL            ICLLVL         CCSD        [ 10]    ***   
       CCORBOPT             ICCORB         OFF         [  0]  x 0.01  
       CC_CONV              ICCCNV          10D- 14             ***   
       CC_EXPORDER          ICCEOR              5               ***   
       CC_EXTRAPOL          ICCEXT         DIIS        [  1]    ***   
       CC_GUESS             ICCGES         MP2         [  0]    ***   
       CC_MAXCYC            ICCCYC            100              cycles 
       CC_PROGRAM           ICCPRO         VCC         [  0]    ***   
       CHARGE               ICHRGE              0               ***   
       CHOLESKY             ICHOLE         OFF         [  0]    ***   
       CIS_CONV             ICISTL              5               ***   
       COMM_SIZE            IPSIZE            ***               ***   
       CONSTANT             ICONST         OLD         [  1]    ***   
       CONTINUUM            ICONTU         NONE        [  0]    ***   
       CONTRACTION          ICNTYP         GENERAL     [  1]    ***   
       COORDINATES          ICOORD         INTERNAL    [  0]    ***   
       CPHF_CONVER          ICPHFT          10D- 16             ***   
       CPHF_MAXCYC          ICPHFC             64              cycles 
       CUBIC                ICUBIC         OFF         [  0]    ***   
       CURVILINEAR          ICURVY         ON          [  1]    ***   
       DBOC                 IDBOC          ON          [  1]    ***   
       DCT                  IDCT           OFF         [  0]    ***   
       DERIV_LEV            IDRLVL         SECOND      [  2]    ***   
       DEVMEM_SIZE          IDVMEM          50000000           MByte  
       DIAG_MRCC            IEOMST          10D-  0             ***   
       DIFF_TYPE            IDIFTY         RELAXED     [  0]    ***   
       DIRECT               IDIRCT         OFF         [  0]    ***   
       DROPMO               IDRPMO      NONE         
       ECP                  IECP           OFF         [  0]    ***   
       EIGENVECTOR          IVEC                1               ***   
       EL_ANHARM            IELANH         OFF         [  0]    ***   
       EOMFOLLOW            IEOMSR         ENERGY      [  0]    ***   
       EOMIP                IEOMIP         OFF         [  0]    ***   
       EOMLEVEL             HBARFM         SAME        [  0]    ***   
       EOM_MRCC             IMRCCE         NEW         [  1]    ***   
       EOM_NONIT            EOMNON         OFF         [  0]    ***   
       EOM_NSING            IEOMSI          10D-  0             ***   
       EOM_NSTATES          IMRCCD         DAVIDSON    [  0]    ***   
       EOM_NTRIP            IEOMTR          10D-  0             ***   
       EOM_ORDER            IEXORD         ENERGY      [  0]    ***   
       EOM_PROPSTA          IEOMST              0               ***   
       ESTATE_CONV          IEXTOL          10D-  5             ***   
       ESTATE_DIAG          IEXDIG         ITERATIVE   [  0]    ***   
       ESTATE_LOCK          IESLOC         ON          [  1]    ***   
       ESTATE_MAXC          IEXMXC             40               ***   
       ESTATE_PROP          IEXPRP         OFF         [  0]    ***   
       EVAL_HESS            IRECAL              0            # of cyc.
       EXCITATION           IEXCIT              0               ***   
       EXCITE               IEXCIT         NONE        [  0]    ***   
       EXTERN_POT           IEXPOT         OFF         [  0]    ***   
       FCGRADNEW            IFCGNW         OFF         [  0]    ***   
       FC_FIELD             IFINFC              0             x 10-6  
       FD_CALTYPE           IFDCAL         GRADONLY    [  0]    ***   
       FD_PROJECT           IFDPRJ         OFF         [  1]    ***   
       FD_STEPSIZE          IDISFD              0            10-4 bohr
       FD_USEGROUP          IFDGRP         FULL        [  0]    ***   
       FILE_RECSIZ          IFLREC              4096           words  
       FINITE_PERT          IFIPER              0             x 10-6  
       FIXGEOM              IFIXGM         OFF         [  0]    ***   
       FOCK                 IFOCK          AO          [  1]    ***   
       FREQ_ALGORI          IVIALG         STANDARD    [  0]    ***   
       FROZEN_CORE          IFROCO         OFF         [  0]    ***   
       GAMMA_ABCD           IGABCD         STORE       [  0]    ***   
       GAMMA_ABCI           IGABCI         STORE       [  0]    ***   
       GENBAS_1             IGNBS1              0               ***   
       GENBAS_2             IGNBS2              0               ***   
       GENBAS_3             IGNBS3              0               ***   
       GENBAS_4             IGNBS4              0               ***   
       GEO_CONV             ICONTL              5              H/bohr 
       GEO_MAXCYC           IOPTCY             50               ***   
       GEO_MAXSTEP          IMXSTP            300            millibohr
       GEO_METHOD           INR            SINGLE_POINT[  5]    ***   
       GIAO                 IGIAO          OFF         [  1]    ***   
       GIMIC                IGIMIC         OFF         [  0]    ***   
       GRID                 IGRID          OFF         [  0]    ***   
       GRID_ALGO            IGALGO         SERIAL      [  0]    ***   
       GUESS                IGUESS         MOREAD      [  0]    ***   
       HBAR                 IHBAR          OFF         [  0]    ***   
       HESS_TYPE            IHESTP         SCF         [  0]    ***   
       HF2_FILE             IHF2Fl         USE         [  1]    ***   
       HFSTABILITY          ISTABL         OFF         [  0]    ***   
       INCORE               INCORE         OFF         [  0]    ***   
       INPUT_MRCC           IMRCC          ON          [  1]    ***   
       INTEGRALS            INTTYP         VMOL        [  1]    ***   
       JODA_PRINT           IJPRNT              0               ***   
       KEYWORD_OUT          IDMPKW         NO          [  0]    ***   
       LINDEP_TOL           ILINDP              8               ***   
       LINEQ_CONV           IZTACN          10D-  7           cycles  
       LINEQ_EXPOR          ILMAXD              5               ***   
       LINEQ_MAXCY          ILMAXC            100               ***   
       LINEQ_TYPE           ILTYPE         DIIS        [  1]    ***   
       LOCK_ORBOCC          ILOCOC         OFF         [  0]    ***   
       MEMORY_SIZE          IMEMSZ         500000000           words  
       MEM_UNIT             IMEMU          INTEGERWORDS[  0]    ***   
       MRCC                 IMRCCC         OFF         [  0]    ***   
       MULTIPLICTY          IMULTP              1               ***   
       NACOUPLING           IVCOUP         OFF         [  0]    ***   
       NEGEVAL              IDIE           ABORT       [  0]    ***   
       NEWNORM              INEWNO         OFF         [  0]    ***   
       NON-HF               INONHF         OFF         [  0]    ***   
       NTOP_TAMP            ITOPT2             15               ***   
       NUC_MODEL            INUCMO         POINT       [  0]    ***   
       OCCUPATION           IOCCU   ESTIMATED BY SCF 
       OPEN-SHELL           IOPEN          SPIN-ORBITAL[  0]    ***   
       OPTVIB               IOPTVB         OFF         [  0]    ***   
       ORBITALS             IORBTP         STANDARD    [  0]    ***   
       PARALLEL             IPARAL         ON          [  1]    ***   
       PARA_INT             IPINTS         ON          [  1]    ***   
       PARA_PRINT           IPPRIN              0               ***   
       PERT_ORB             IPTORB         STANDARD    [  0]    ***   
       POINTS               IGRDFD              0               ***   
       PRINT                IPRNT               0               ***   
       PROPS                IPROPS         OFF         [  0]    ***   
       PROP_INTEGR          IINTYP         INTERNAL    [  0]    ***   
       PSI                  IPSI           OFF         [  0]    ***   
       QC_ALG               IQCALG         FLM         [  0]    ***   
       QC_LINALG            IQCLIN         TRIDIAG     [  2]    ***   
       QC_MAXCYC            IQCMAX          10D-100           cycles  
       QC_MAXSCFCY          IQCMSC          10D- 15           cycles  
       QC_RTRUST            IQCRTR          10D-  0           x 10-3  
       QC_SKIPSCF           IQCSKI         OFF         [  0]    ***   
       QC_START             IQCSTA          10D-  1             ***   
       QRHFGUESS            IQGUES         OFF         [  0]    ***   
       QUARTIC              IQUART         OFF         [  0]    ***   
       RAMAN_INT            IRAMIN         OFF         [  0]    ***   
       RAMAN_ORB            IRAMRE         UNRELAXED   [  0]    ***   
       RDO                  IRDOFM         ON          [  1]    ***   
       REDUCE_REPR          REDREP         Ir          [  0]    ***   
       REFERENCE            IREFNC         RHF         [  0]    ***   
       RELATIVIST           IRELAT         OFF         [  0]    ***   
       RELAX_DENS           IRDENS         ON          [  1]    ***   
       RESET_FLAGS          IRESET         OFF         [  0]    ***   
       RESTART_CC           ICCRES         OFF         [  0]    ***   
       ROT_EVEC             ROTVEC              0               ***   
       SAVE_INTS            ISVINT         OFF         [  0]    ***   
       SCALE_ON             ISTCRT              0               ***   
       SCF_CONV             ISCFCV          10D- 10             ***   
       SCF_DAMPING          IDAMP               0             x 10-3  
       SCF_EXPORDE          IRPPOR              6               ***   
       SCF_EXPSTAR          IRPPLS              8               ***   
       SCF_EXTRAPO          IRPP           ON          [  1]    ***   
       SCF_MAXCYC           ISCFCY            150              cycles 
       SCF_NOSTOP           ISCFST         OFF         [  0]    ***   
       SCF_PRINT            ISCFPR              0               ***   
       SCF_PROG             ISCFPR         SCF         [  0]    ***   
       SD_FIELD             IFINSD              0             x 10-6  
       SOPERT               IPERSO         OFF         [  0]    ***   
       SPHERICAL            IDFGHI         ON          [  1]    ***   
       SPINORBIT            ISOCAL         OFF         [  0]    ***   
       SPINROTATIO          ISRCON         OFF         [  0]    ***   
       SPIN_FLIP            ISPFLP         OFF         [  0]    ***   
       SPIN_ORBIT           ISPORB         OFF         [  0]    ***   
       SPIN_SCAL            ISCSMP         OFF         [  0]    ***   
       STEEPSCALE           ISTPSC              1000          x 10-3  
       SUBGROUP             ISUBGP         DEFAULT     [  0]    ***   
       SUBGRPAXIS           ISBXYZ         X           [  0]    ***   
       SYMMETRY             ISYM           ON          [  0]    ***   
       SYM_CHECK            ISYMCK         OVERRIDE    [  1]    ***   
       T3_EXTRAPOL          IT3EXT         OFF         [  0]    ***   
       T4_EXTRAPOL          IT4EXP         OFF         [  0]    ***   
       TAMP_SUM             IEVERY              5               ***   
       TESTSUITE            ITESTS         OFF         [  0]    ***   
       THERMOCH             ITHERM         OFF         [  0]    ***   
       TOL_CHOLESK          ITOLCH          10D-  4             ***   
       TRANGRAD             IRESRM         OFF         [  0]    ***   
       TRANS_INV            ITRAIN         IGNORE      [  1]    ***   
       TREAT_PERT           ITREAT         SIMULTANEOUS[  0]    ***   
       TRIP_ALGORI          ITRALG         NORMAL      [  0]    ***   
       UIJ_THRESHO          IUIJTH              1               ***   
       UNITS                IUNITS         ANGSTROM    [  0]    ***   
       UNOS                 IUNOS          OFF         [  0]    ***   
       UPDATE_HESS          IHUPDT         ON          [  1]    ***   
       VIBPHASE             ISETPH         STANDARD    [  0]    ***   
       VIBRATION            IVIB           ANALYTIC    [  1]    ***   
       VIB_ALGORIT          IGEALG         STANDARD    [  0]    ***   
       VNATORB              IVNORB         OFF         [  0]    ***   
       VTRAN                IVTRAN         FULL/PARTIAL[  0]    ***   
       XFIELD               IXEFLD              0             x 10-6  
       XFORM_TOL            IXFTOL          10D- 11             ***   
       YFIELD               IYEFLD              0             x 10-6  
       ZFIELD               IZEFLD            200             x 10-6  
       ZSCALE_EXP           IZEXPS         OFF         [  0]    ***   
    -------------------------------------------------------------------
   2 entries found in Z-matrix 
   Job Title : Carbon Monoxide DBOC calculation                                                
   There are  1 unique internal coordinates.
   Of these,  0 will be optimized.
   User supplied Z-matrix: 
--------------------------------------------------------------------------------
       SYMBOL    BOND      LENGTH    ANGLE     ANGLE     DIHED     ANGLE
                  TO      (ANGST)    WRT      (DEG)      WRT      (DEG)
--------------------------------------------------------------------------------
        C    
        O          1         r    
                  *Initial values for internal coordinates* 
                      Name             Value
                        r               1.7068965517
--------------------------------------------------------------------------------
  read isotopes from ZMAT file 
   Rotational constants (in cm-1): 
          0.8439138765             0.8439138765
   Rotational constants (in MHz): 
      25299.9050814389         25299.9050814389
********************************************************************************
   The full molecular point group is CXv .
   The largest Abelian subgroup of the full molecular point group is C2v .
   The computational point group is C2v .
********************************************************************************
--------------------------------------------------------------------------------
   Analysis of internal coordinates specified by Z-matrix 
--------------------------------------------------------------------------------
   *The nuclear repulsion energy is   14.881101478787878 a.u.
   *There is   1 degree of freedom within the tot. symm. molecular subspace.
   *Z-matrix requests optimization of   0 coordinates.
   *The optimization is constrained.
   *The following   1 parameters can have non-zero 
    derivatives within the totally symmetric subspace:
             r    [ 1]
   *The following   0 parameters are to be optimized:

   *The following coordinates must be varied in an  unconstrained optimization.
             r    [ 1]
--------------------------------------------------------------------------------


 ----------------------------------------------------------------
         Coordinates used in calculation (QCOMP) 
 ----------------------------------------------------------------
 Z-matrix   Atomic            Coordinates (in bohr)
  Symbol    Number           X              Y              Z
 ----------------------------------------------------------------
     C         6        -0.00000000     0.00000000     1.84293042
     O         8         0.00000000     0.00000000    -1.38263726
 ----------------------------------------------------------------
 
   Interatomic distance matrix (Angstroms) 
 
                 C             O    
                [ 1]        [ 2]
  C    [ 1]     0.00000
  O    [ 2]     1.70690     0.00000
 rotcon2
   Rotational constants (in cm-1): 
          0.8439138765             0.0000000000
   Rotational constants (in MHz): 
      25299.9050814389             0.0000000000
  ECPDATA file not present.   Using default ECPDATA. 
  @GTFLGS-I, Hessian will be transformed to curvilinear coordinates.
  There are  218 basis functions.
 @CHECKOUT-I, Total execution time (CPU/WALL):        0.11/       0.14 seconds.
--executable xjoda finished with status     0 in        0.17 seconds (walltime).
 --invoking executable--
/nfs/workspaces/public/cfour_mpi/bin/xvmol
 SERIAL VERSION OF MOLECULE STARTED
********************************************************************************
                    INPUT FROM MOL FILE
********************************************************************************
INTGRL        1    0    1    0    0    0    0    0    0                         
         *** CFOUR Program System (Release V0.1) ***                            
Carbon Monoxide DBOC calculation                                                
    2    2 X  Y       0.10E-08              0    0                              
   9999.00      3.00                                                            
          6.00000000    1    5    1    1    1    1    1                         
C #1  -0.000000000000000   0.000000000000000   1.842930417400106                
   16    9                                                                      
   33980.0000000000       9.100000000000000E-005 -1.900000000000000E-005        
  0.000000000000000E+000  0.000000000000000E+000  0.000000000000000E+000        
  0.000000000000000E+000  0.000000000000000E+000  0.000000000000000E+000        
  0.000000000000000E+000                                                        
   5089.00000000000       7.040000000000000E-004 -1.510000000000000E-004        
  0.000000000000000E+000  0.000000000000000E+000  0.000000000000000E+000        
  0.000000000000000E+000  0.000000000000000E+000  0.000000000000000E+000        
  0.000000000000000E+000                                                        
   1157.00000000000       3.693000000000000E-003 -7.850000000000000E-004        
  0.000000000000000E+000  0.000000000000000E+000  0.000000000000000E+000        
  0.000000000000000E+000  0.000000000000000E+000  0.000000000000000E+000        
  0.000000000000000E+000                                                        
   326.600000000000       1.536000000000000E-002 -3.324000000000000E-003        
  0.000000000000000E+000  0.000000000000000E+000  0.000000000000000E+000        
  0.000000000000000E+000  0.000000000000000E+000  0.000000000000000E+000        
  0.000000000000000E+000                                                        
   106.100000000000       5.292900000000000E-002 -1.151200000000000E-002        
  0.000000000000000E+000  0.000000000000000E+000  0.000000000000000E+000        
  0.000000000000000E+000  0.000000000000000E+000  0.000000000000000E+000        
  0.000000000000000E+000                                                        
   38.1100000000000       0.147043000000000      -3.416000000000000E-002        
  0.000000000000000E+000  0.000000000000000E+000  0.000000000000000E+000        
  0.000000000000000E+000  0.000000000000000E+000  0.000000000000000E+000        
  0.000000000000000E+000                                                        
   14.7500000000000       0.305631000000000      -7.717300000000001E-002        
  0.000000000000000E+000  0.000000000000000E+000  0.000000000000000E+000        
  0.000000000000000E+000  0.000000000000000E+000  0.000000000000000E+000        
  0.000000000000000E+000                                                        
   6.03500000000000       0.399345000000000      -0.141493000000000             
  0.000000000000000E+000  0.000000000000000E+000  0.000000000000000E+000        
  0.000000000000000E+000  0.000000000000000E+000  0.000000000000000E+000        
  0.000000000000000E+000                                                        
   2.53000000000000       0.217051000000000      -0.118019000000000             
  0.000000000000000E+000  0.000000000000000E+000  0.000000000000000E+000        
  0.000000000000000E+000  0.000000000000000E+000  0.000000000000000E+000        
  0.000000000000000E+000                                                        
  0.735500000000000       1.589400000000000E-002  0.273806000000000             
   1.00000000000000       0.000000000000000E+000  0.000000000000000E+000        
  0.000000000000000E+000  0.000000000000000E+000  0.000000000000000E+000        
  0.000000000000000E+000                                                        
  0.290500000000000      -3.084000000000000E-003  0.586510000000000             
  0.000000000000000E+000   1.00000000000000       0.000000000000000E+000        
  0.000000000000000E+000  0.000000000000000E+000  0.000000000000000E+000        
  0.000000000000000E+000                                                        
  0.111100000000000       9.779999999999999E-004  0.285430000000000             
  0.000000000000000E+000  0.000000000000000E+000   1.00000000000000             
  0.000000000000000E+000  0.000000000000000E+000  0.000000000000000E+000        
  0.000000000000000E+000                                                        
   7.21600000000000       0.000000000000000E+000  0.000000000000000E+000        
  0.000000000000000E+000  0.000000000000000E+000  0.000000000000000E+000        
   1.00000000000000       0.000000000000000E+000  0.000000000000000E+000        
  0.000000000000000E+000                                                        
   19.5700000000000       0.000000000000000E+000  0.000000000000000E+000        
  0.000000000000000E+000  0.000000000000000E+000  0.000000000000000E+000        
  0.000000000000000E+000   1.00000000000000       0.000000000000000E+000        
  0.000000000000000E+000                                                        
   53.0730000000000       0.000000000000000E+000  0.000000000000000E+000        
  0.000000000000000E+000  0.000000000000000E+000  0.000000000000000E+000        
  0.000000000000000E+000  0.000000000000000E+000   1.00000000000000             
  0.000000000000000E+000                                                        
  4.145000000000000E-002  0.000000000000000E+000  0.000000000000000E+000        
  0.000000000000000E+000  0.000000000000000E+000  0.000000000000000E+000        
  0.000000000000000E+000  0.000000000000000E+000  0.000000000000000E+000        
   1.00000000000000                                                             
   10    8                                                                      
   34.5100000000000       5.378000000000000E-003  0.000000000000000E+000        
  0.000000000000000E+000  0.000000000000000E+000  0.000000000000000E+000        
  0.000000000000000E+000  0.000000000000000E+000  0.000000000000000E+000        
   7.91500000000000       3.613200000000000E-002  0.000000000000000E+000        
  0.000000000000000E+000  0.000000000000000E+000  0.000000000000000E+000        
  0.000000000000000E+000  0.000000000000000E+000  0.000000000000000E+000        
   2.36800000000000       0.142493000000000       0.000000000000000E+000        
  0.000000000000000E+000  0.000000000000000E+000  0.000000000000000E+000        
  0.000000000000000E+000  0.000000000000000E+000  0.000000000000000E+000        
  0.813200000000000       0.342150000000000        1.00000000000000             
  0.000000000000000E+000  0.000000000000000E+000  0.000000000000000E+000        
  0.000000000000000E+000  0.000000000000000E+000  0.000000000000000E+000        
  0.289000000000000       0.463864000000000       0.000000000000000E+000        
   1.00000000000000       0.000000000000000E+000  0.000000000000000E+000        
  0.000000000000000E+000  0.000000000000000E+000  0.000000000000000E+000        
  0.100700000000000       0.250028000000000       0.000000000000000E+000        
  0.000000000000000E+000   1.00000000000000       0.000000000000000E+000        
  0.000000000000000E+000  0.000000000000000E+000  0.000000000000000E+000        
   8.18200000000000       0.000000000000000E+000  0.000000000000000E+000        
  0.000000000000000E+000  0.000000000000000E+000   1.00000000000000             
  0.000000000000000E+000  0.000000000000000E+000  0.000000000000000E+000        
   24.1860000000000       0.000000000000000E+000  0.000000000000000E+000        
  0.000000000000000E+000  0.000000000000000E+000  0.000000000000000E+000        
   1.00000000000000       0.000000000000000E+000  0.000000000000000E+000        
   71.4940000000000       0.000000000000000E+000  0.000000000000000E+000        
  0.000000000000000E+000  0.000000000000000E+000  0.000000000000000E+000        
  0.000000000000000E+000   1.00000000000000       0.000000000000000E+000        
  3.218000000000000E-002  0.000000000000000E+000  0.000000000000000E+000        
  0.000000000000000E+000  0.000000000000000E+000  0.000000000000000E+000        
  0.000000000000000E+000  0.000000000000000E+000   1.00000000000000             
    6    6                                                                      
   1.84800000000000        1.00000000000000       0.000000000000000E+000        
  0.000000000000000E+000  0.000000000000000E+000  0.000000000000000E+000        
  0.000000000000000E+000                                                        
  0.649000000000000       0.000000000000000E+000   1.00000000000000             
  0.000000000000000E+000  0.000000000000000E+000  0.000000000000000E+000        
  0.000000000000000E+000                                                        
  0.228000000000000       0.000000000000000E+000  0.000000000000000E+000        
   1.00000000000000       0.000000000000000E+000  0.000000000000000E+000        
  0.000000000000000E+000                                                        
   8.65600000000000       0.000000000000000E+000  0.000000000000000E+000        
  0.000000000000000E+000   1.00000000000000       0.000000000000000E+000        
  0.000000000000000E+000                                                        
   33.2130000000000       0.000000000000000E+000  0.000000000000000E+000        
  0.000000000000000E+000  0.000000000000000E+000   1.00000000000000             
  0.000000000000000E+000                                                        
  7.660000000000000E-002  0.000000000000000E+000  0.000000000000000E+000        
  0.000000000000000E+000  0.000000000000000E+000  0.000000000000000E+000        
   1.00000000000000                                                             
    4    4                                                                      
   1.41900000000000        1.00000000000000       0.000000000000000E+000        
  0.000000000000000E+000  0.000000000000000E+000                                
  0.485000000000000       0.000000000000000E+000   1.00000000000000             
  0.000000000000000E+000  0.000000000000000E+000                                
   24.6940000000000       0.000000000000000E+000  0.000000000000000E+000        
   1.00000000000000       0.000000000000000E+000                                
  0.187000000000000       0.000000000000000E+000  0.000000000000000E+000        
  0.000000000000000E+000   1.00000000000000                                     
    2    2                                                                      
   1.01100000000000        1.00000000000000       0.000000000000000E+000        
  0.424000000000000       0.000000000000000E+000   1.00000000000000             
          8.00000000    1    5    1    1    1    1    1                         
O #2   0.000000000000000   0.000000000000000  -1.382637264429168                
   16    9                                                                      
   61420.0000000000       9.000000000000001E-005 -2.000000000000000E-005        
  0.000000000000000E+000  0.000000000000000E+000  0.000000000000000E+000        
  0.000000000000000E+000  0.000000000000000E+000  0.000000000000000E+000        
  0.000000000000000E+000                                                        
   9199.00000000000       6.980000000000001E-004 -1.590000000000000E-004        
  0.000000000000000E+000  0.000000000000000E+000  0.000000000000000E+000        
  0.000000000000000E+000  0.000000000000000E+000  0.000000000000000E+000        
  0.000000000000000E+000                                                        
   2091.00000000000       3.664000000000000E-003 -8.290000000000000E-004        
  0.000000000000000E+000  0.000000000000000E+000  0.000000000000000E+000        
  0.000000000000000E+000  0.000000000000000E+000  0.000000000000000E+000        
  0.000000000000000E+000                                                        
   590.900000000000       1.521800000000000E-002 -3.508000000000000E-003        
  0.000000000000000E+000  0.000000000000000E+000  0.000000000000000E+000        
  0.000000000000000E+000  0.000000000000000E+000  0.000000000000000E+000        
  0.000000000000000E+000                                                        
   192.300000000000       5.242300000000000E-002 -1.215600000000000E-002        
  0.000000000000000E+000  0.000000000000000E+000  0.000000000000000E+000        
  0.000000000000000E+000  0.000000000000000E+000  0.000000000000000E+000        
  0.000000000000000E+000                                                        
   69.3200000000000       0.145921000000000      -3.626100000000000E-002        
  0.000000000000000E+000  0.000000000000000E+000  0.000000000000000E+000        
  0.000000000000000E+000  0.000000000000000E+000  0.000000000000000E+000        
  0.000000000000000E+000                                                        
   26.9700000000000       0.305258000000000      -8.299200000000000E-002        
  0.000000000000000E+000  0.000000000000000E+000  0.000000000000000E+000        
  0.000000000000000E+000  0.000000000000000E+000  0.000000000000000E+000        
  0.000000000000000E+000                                                        
   11.1000000000000       0.398508000000000      -0.152090000000000             
  0.000000000000000E+000  0.000000000000000E+000  0.000000000000000E+000        
  0.000000000000000E+000  0.000000000000000E+000  0.000000000000000E+000        
  0.000000000000000E+000                                                        
   4.68200000000000       0.216980000000000      -0.115331000000000             
  0.000000000000000E+000  0.000000000000000E+000  0.000000000000000E+000        
  0.000000000000000E+000  0.000000000000000E+000  0.000000000000000E+000        
  0.000000000000000E+000                                                        
   1.42800000000000       1.759400000000000E-002  0.288979000000000             
   1.00000000000000       0.000000000000000E+000  0.000000000000000E+000        
  0.000000000000000E+000  0.000000000000000E+000  0.000000000000000E+000        
  0.000000000000000E+000                                                        
  0.554700000000000      -2.502000000000000E-003  0.586128000000000             
  0.000000000000000E+000   1.00000000000000       0.000000000000000E+000        
  0.000000000000000E+000  0.000000000000000E+000  0.000000000000000E+000        
  0.000000000000000E+000                                                        
  0.206700000000000       9.540000000000000E-004  0.277624000000000             
  0.000000000000000E+000  0.000000000000000E+000   1.00000000000000             
  0.000000000000000E+000  0.000000000000000E+000  0.000000000000000E+000        
  0.000000000000000E+000                                                        
   12.9740000000000       0.000000000000000E+000  0.000000000000000E+000        
  0.000000000000000E+000  0.000000000000000E+000  0.000000000000000E+000        
   1.00000000000000       0.000000000000000E+000  0.000000000000000E+000        
  0.000000000000000E+000                                                        
   34.9000000000000       0.000000000000000E+000  0.000000000000000E+000        
  0.000000000000000E+000  0.000000000000000E+000  0.000000000000000E+000        
  0.000000000000000E+000   1.00000000000000       0.000000000000000E+000        
  0.000000000000000E+000                                                        
   93.8810000000000       0.000000000000000E+000  0.000000000000000E+000        
  0.000000000000000E+000  0.000000000000000E+000  0.000000000000000E+000        
  0.000000000000000E+000  0.000000000000000E+000   1.00000000000000             
  0.000000000000000E+000                                                        
  6.959000000000000E-002  0.000000000000000E+000  0.000000000000000E+000        
  0.000000000000000E+000  0.000000000000000E+000  0.000000000000000E+000        
  0.000000000000000E+000  0.000000000000000E+000  0.000000000000000E+000        
   1.00000000000000                                                             
   10    8                                                                      
   63.4200000000000       6.044000000000000E-003  0.000000000000000E+000        
  0.000000000000000E+000  0.000000000000000E+000  0.000000000000000E+000        
  0.000000000000000E+000  0.000000000000000E+000  0.000000000000000E+000        
   14.6600000000000       4.179900000000000E-002  0.000000000000000E+000        
  0.000000000000000E+000  0.000000000000000E+000  0.000000000000000E+000        
  0.000000000000000E+000  0.000000000000000E+000  0.000000000000000E+000        
   4.45900000000000       0.161143000000000       0.000000000000000E+000        
  0.000000000000000E+000  0.000000000000000E+000  0.000000000000000E+000        
  0.000000000000000E+000  0.000000000000000E+000  0.000000000000000E+000        
   1.53100000000000       0.356731000000000        1.00000000000000             
  0.000000000000000E+000  0.000000000000000E+000  0.000000000000000E+000        
  0.000000000000000E+000  0.000000000000000E+000  0.000000000000000E+000        
  0.530200000000000       0.448309000000000       0.000000000000000E+000        
   1.00000000000000       0.000000000000000E+000  0.000000000000000E+000        
  0.000000000000000E+000  0.000000000000000E+000  0.000000000000000E+000        
  0.175000000000000       0.244940000000000       0.000000000000000E+000        
  0.000000000000000E+000   1.00000000000000       0.000000000000000E+000        
  0.000000000000000E+000  0.000000000000000E+000  0.000000000000000E+000        
   14.4750000000000       0.000000000000000E+000  0.000000000000000E+000        
  0.000000000000000E+000  0.000000000000000E+000   1.00000000000000             
  0.000000000000000E+000  0.000000000000000E+000  0.000000000000000E+000        
   42.7300000000000       0.000000000000000E+000  0.000000000000000E+000        
  0.000000000000000E+000  0.000000000000000E+000  0.000000000000000E+000        
   1.00000000000000       0.000000000000000E+000  0.000000000000000E+000        
   126.140000000000       0.000000000000000E+000  0.000000000000000E+000        
  0.000000000000000E+000  0.000000000000000E+000  0.000000000000000E+000        
  0.000000000000000E+000   1.00000000000000       0.000000000000000E+000        
  5.348000000000000E-002  0.000000000000000E+000  0.000000000000000E+000        
  0.000000000000000E+000  0.000000000000000E+000  0.000000000000000E+000        
  0.000000000000000E+000  0.000000000000000E+000   1.00000000000000             
    6    6                                                                      
   3.77500000000000        1.00000000000000       0.000000000000000E+000        
  0.000000000000000E+000  0.000000000000000E+000  0.000000000000000E+000        
  0.000000000000000E+000                                                        
   1.30000000000000       0.000000000000000E+000   1.00000000000000             
  0.000000000000000E+000  0.000000000000000E+000  0.000000000000000E+000        
  0.000000000000000E+000                                                        
  0.444000000000000       0.000000000000000E+000  0.000000000000000E+000        
   1.00000000000000       0.000000000000000E+000  0.000000000000000E+000        
  0.000000000000000E+000                                                        
   14.9270000000000       0.000000000000000E+000  0.000000000000000E+000        
  0.000000000000000E+000   1.00000000000000       0.000000000000000E+000        
  0.000000000000000E+000                                                        
   57.5440000000000       0.000000000000000E+000  0.000000000000000E+000        
  0.000000000000000E+000  0.000000000000000E+000   1.00000000000000             
  0.000000000000000E+000                                                        
  0.154000000000000       0.000000000000000E+000  0.000000000000000E+000        
  0.000000000000000E+000  0.000000000000000E+000  0.000000000000000E+000        
   1.00000000000000                                                             
    4    4                                                                      
   2.66600000000000        1.00000000000000       0.000000000000000E+000        
  0.000000000000000E+000  0.000000000000000E+000                                
  0.859000000000000       0.000000000000000E+000   1.00000000000000             
  0.000000000000000E+000  0.000000000000000E+000                                
   26.4830000000000       0.000000000000000E+000  0.000000000000000E+000        
   1.00000000000000       0.000000000000000E+000                                
  0.324000000000000       0.000000000000000E+000  0.000000000000000E+000        
  0.000000000000000E+000   1.00000000000000                                     
    2    2                                                                      
   1.84600000000000        1.00000000000000       0.000000000000000E+000        
  0.714000000000000       0.000000000000000E+000   1.00000000000000             
FINISH                                                                          
 
********************************************************************************
 ONE- AND TWO-ELECTRON INTEGRALS OVER SYMMETRY-ADAPTED AOS ARE CALCULATED.

  SPHERICAL HARMONICS ARE USED.
  
  INTEGRALS LESS THAN  0.10E-13 ARE NEGLECTED.

  NUCLEAR REPULSION ENERGY :   14.8811014788 A.U.
  @MOLECU-I, ONE ELECTRON INTEGRALS (CPU/WALL):        0.07/       0.07 SECONDS.
  @TWOEL-I,    4389576 INTEGRALS OF SYMMETRY TYPE  I I I I
  @TWOEL-I,   18944941 INTEGRALS OF SYMMETRY TYPE  I J I J
  @TWOEL-I,    9975629 INTEGRALS OF SYMMETRY TYPE  I I J J
  @TWOEL-I,   13988652 INTEGRALS OF SYMMETRY TYPE  I J K L
  @TWOEL-I, TOTAL NUMBER OF 2-E INTEGRALS   47298798.
  @MOLECU-I, TWO ELECTRON INTEGRALS (CPU/WALL):      152.60/      22.01 SECONDS.
 @CHECKOUT-I, Total execution time (CPU/WALL):      152.68/      22.10 seconds.

Running with 14 threads/proc

--executable xvmol finished with status     0 in       22.13 seconds (walltime).
 --invoking executable--
/nfs/workspaces/public/cfour_mpi/bin/xvmol2ja
 @GETMEM-I,  Allocated    3814 MB of main memory.
 @CHECKOUT-I, Total execution time (CPU/WALL):        0.15/       0.03 seconds.
--executable xvmol2ja finished with status     0 in        0.04 seconds (walltime).
 --invoking executable--
/nfs/workspaces/public/cfour_mpi/bin/xvprop
 @GETMEM-I,  Allocated    3814 MB of main memory.
   Property integrals will be calculated.
    --------------------------------------------------------------
                                   Property evaluated at 
    Property type                X             Y             Z
    --------------------------------------------------------------
    Dipole moment               ----          ----          ----  
    Quadrupole moment           ----          ----          ----  
    Octopole moment             ----          ----          ----  
    Relativisitic corr.         ----          ----          ----  
    Second moment            0.0000000     0.0000000     0.0000000
    Electron density         0.0000000     0.0000000     1.8429304
    Electron density         0.0000000     0.0000000    -1.3826373
    Field gradient           0.0000000     0.0000000     1.8429304
    Field gradient           0.0000000     0.0000000    -1.3826373
    Potential                0.0000000     0.0000000     1.8429304
    Potential                0.0000000     0.0000000    -1.3826373
    --------------------------------------------------------------
 @CHECKOUT-I, Total execution time (CPU/WALL):        1.30/       1.30 seconds.
--executable xvprop finished with status     0 in        1.32 seconds (walltime).
 --invoking executable--
/nfs/workspaces/public/cfour_mpi/bin/xvscf
  There are  218 functions in the AO basis.

  There are 4 irreducible representations.

       Irrep        # of functions
         1                 86
         2                 52
         3                 52
         4                 28


  Parameters for SCF calculation: 
        SCF reference function:  RHF  
  Maximum number of iterations:  150
     Full symmetry point group: CXv 
     Computational point group: C2v 
        Initial density matrix: MOREAD                 
     SCF convergence tolerance: 10**(-10)
  DIIS convergence acceleration:  ON
          Latest start for DIIS:   8
                     DIIS order:   6

  Memory information:    2523578 words required.
  Fock matrices are constructed from AO integral file.
 @GETMEM-I,  Allocated      19 MB of main memory.
  Initialization and symmetry analysis required      0.002 seconds.

  Adding electric field perturbation to one-electron Hamiltonian.
  Field direction     : Z
  Field strength      :  0.0002000 a.u.

  @INITGES-I, Occupancies from core Hamiltonian:

          Alpha population by irrep:   5    1    1    0
           Beta population by irrep:   5    1    1    0


 total no. of electrons in initial guess :  0.000000000000000E+000
  --------------------------------------------------------------------
  Iteration         Total Energy            Largest Density Difference
  --------------------------------------------------------------------
       0            14.881102181910084              0.0000000000D+00
   current occupation vector 
     5  1  1  0
     5  1  1  0
       1           -93.708649985577438              0.1756180197D+02
   current occupation vector 
     5  1  1  0
     5  1  1  0
       2           -97.729625682552552              0.1756179366D+02
   current occupation vector 
     5  1  1  0
     5  1  1  0
       3           -99.937426635838079              0.6933748549D+01
   current occupation vector 
     5  1  1  0
     5  1  1  0
       4           -94.507124798563126              0.6931655478D+01
   current occupation vector 
     5  1  1  0
     5  1  1  0
       5           -99.939412117056861              0.7051887392D+01
   current occupation vector 
     5  1  1  0
     5  1  1  0
       6           -94.395371032101067              0.7051995094D+01
   current occupation vector 
     5  1  1  0
     5  1  1  0
       7           -99.935805349601424              0.7057501181D+01
   current occupation vector 
     5  1  1  0
     5  1  1  0
       8           -94.392553578822145              0.7057506483D+01
   current occupation vector 
     5  1  1  0
     5  1  1  0
       9          -107.146348120449005              0.6045524613D+01
   current occupation vector 
     5  1  1  0
     5  1  1  0
      10          -110.573533475498223              0.1314877049D+01
   current occupation vector 
     5  1  1  0
     5  1  1  0
      11          -112.285530668052559              0.1014557444D+01
   current occupation vector 
     5  1  1  0
     5  1  1  0
      12          -112.417803561607428              0.5923157720D+00
   current occupation vector 
     5  1  1  0
     5  1  1  0
      13          -112.460301415302283              0.1399177865D+00
   current occupation vector 
     5  1  1  0
     5  1  1  0
      14          -112.472291959257731              0.1076982041D+00
   current occupation vector 
     5  1  1  0
     5  1  1  0
      15          -112.473317492065533              0.3950304709D-01
   current occupation vector 
     5  1  1  0
     5  1  1  0
      16          -112.474400278017171              0.6451329599D-01
   current occupation vector 
     5  1  1  0
     5  1  1  0
      17          -112.474999709750122              0.5766518220D-01
   current occupation vector 
     5  1  1  0
     5  1  1  0
      18          -112.475134425649685              0.3633609139D-01
   current occupation vector 
     5  1  1  0
     5  1  1  0
      19          -112.475135722931128              0.2586065034D-02
   current occupation vector 
     5  1  1  0
     5  1  1  0
      20          -112.475135756566942              0.6492595271D-03
   current occupation vector 
     5  1  1  0
     5  1  1  0
      21          -112.475135757490094              0.1261515409D-03
   current occupation vector 
     5  1  1  0
     5  1  1  0
      22          -112.475135757738997              0.5895033990D-04
   current occupation vector 
     5  1  1  0
     5  1  1  0
      23          -112.475135757738968              0.8858604669D-06
   current occupation vector 
     5  1  1  0
     5  1  1  0
      24          -112.475135757738741              0.4286504142D-06
   current occupation vector 
     5  1  1  0
     5  1  1  0
      25          -112.475135757738371              0.4582119062D-07
   current occupation vector 
     5  1  1  0
     5  1  1  0
      26          -112.475135757739281              0.3995512898D-07
   current occupation vector 
     5  1  1  0
     5  1  1  0
      27          -112.475135757738784              0.2017543865D-07
   current occupation vector 
     5  1  1  0
     5  1  1  0
      28          -112.475135757738869              0.9537329149D-08
   current occupation vector 
     5  1  1  0
     5  1  1  0
      29          -112.475135757738826              0.2047951808D-09
   current occupation vector 
     5  1  1  0
     5  1  1  0
      30          -112.475135757737789              0.2290483359D-09
   current occupation vector 
     5  1  1  0
     5  1  1  0

  SCF has converged.

 Density matrix saved to file den.dat
 total electron number:   14.0000000000001     
     E(SCF)=      -112.475135757738556              0.5422595706D-10

  Eigenvector printing suppressed.

 @PUTMOS-I, Writing converged MOs to NEWMOS. 
 @PUTMOS-I, Symmetry   1 Full Blocks 21 Partial Blocksize   2
 @PUTMOS-I, Symmetry   2 Full Blocks 13 Partial Blocksize   0
 @PUTMOS-I, Symmetry   3 Full Blocks 13 Partial Blocksize   0
 @PUTMOS-I, Symmetry   4 Full Blocks  7 Partial Blocksize   0
 @PUTFOCK-I, Writing converged Fock matrix to NEWFOCK. 
 @PUTFOCK-I, Symmetry   1 Full Blocks 21 Partial Blocksize   2
 @PUTFOCK-I, Symmetry   2 Full Blocks 13 Partial Blocksize   0
 @PUTFOCK-I, Symmetry   3 Full Blocks 13 Partial Blocksize   0
 @PUTFOCK-I, Symmetry   4 Full Blocks  7 Partial Blocksize   0


 
  ORBITAL EIGENVALUES (ALPHA)  (1H = 27.2113834 eV)

       MO #        E(hartree)               E(eV)           FULLSYM    COMPSYM
       ----   --------------------   --------------------   -------   ---------
    1     1         -20.6324380142        -561.4371812811     SG+        A1 (1)
    2     2         -11.5356161026        -313.9000725232     SG+        A1 (1)
    3     3          -1.2428075028         -33.8185114511     SG+        A1 (1)
    4     4          -0.8120794809         -22.0978061052     SG+        A1 (1)
    5     5          -0.5048477124         -13.7376046620     SG+        A1 (1)
    6    87          -0.4821915505         -13.1210991516      PI        B1 (2)
    7   139          -0.4821915505         -13.1210991516      PI        B2 (3)
  +++++++++++++++++++++++++++++++++++++++++++++++++++++++++++++++++++++++++++++
    8   140          -0.0219922205          -0.5984387425      PI        B2 (3)
    9    88          -0.0219922205          -0.5984387425      PI        B1 (2)
   10     6           0.0583003289           1.5864326017     SG+        A1 (1)
   11     7           0.0686743602           1.8687243446     SG+        A1 (1)
   12   141           0.0811841952           2.2091342629      PI        B2 (3)
   13    89           0.0811841952           2.2091342629      PI        B1 (2)
   14     8           0.1548925078           4.2148394149     SG+        A1 (1)
   15     9           0.1709254350           4.6511175457     SG+        A1 (1)
   16   142           0.1825317162           4.9669405135      PI        B2 (3)
   17    90           0.1825317162           4.9669405135      PI        B1 (2)
   18   191           0.2202410887           5.9930647058      DE        A2 (4)
   19    10           0.2202410887           5.9930647058      DE        A1 (1)
   20    91           0.2808511759           7.6423490246      PI        B1 (2)
   21   143           0.2808511759           7.6423490246      PI        B2 (3)
   22    11           0.2911617598           7.9229142771     SG+        A1 (1)
   23    12           0.3044238977           8.2837953957     SG+        A1 (1)
   24    92           0.4088751555          11.1260586180      PI        B1 (2)
   25   144           0.4088751555          11.1260586180      PI        B2 (3)
   26    13           0.4104490060          11.1688852694     SG+        A1 (1)
   27    14           0.5152768041          14.0213946745     SG+        A1 (1)
   28    15           0.5506245830          14.9832566388      DE        A1 (1)
   29   192           0.5506245830          14.9832566388      DE        A2 (4)
   30    93           0.6234498939          16.9649340939      PI        B1 (2)
   31   145           0.6234498939          16.9649340939      PI        B2 (3)
   32    16           0.6983028441          19.0017864214     SG+        A1 (1)
   33   146           0.7263525315          19.7650572186      PH        B2 (3)
   34    94           0.7263525315          19.7650572186      PH        B1 (2)
   35    17           0.7324326231          19.9305049227      DE        A1 (1)
   36   193           0.7324326231          19.9305049227      DE        A2 (4)
   37    95           0.7691448118          20.9294943642      PI        B1 (2)
   38   147           0.7691448118          20.9294943642      PI        B2 (3)
   39    18           0.8092543679          22.0209308731     SG+        A1 (1)
   40    19           0.8496288856          23.1195773543      DE        A1 (1)
   41   194           0.8496288856          23.1195773543      DE        A2 (4)
   42    96           0.8674267843          23.6038828003      PI        B1 (2)
   43   148           0.8674267843          23.6038828003      PI        B2 (3)
   44    20           0.9024985439          24.5582338960     SG+        A1 (1)
   45    97           1.0532708150          28.6609559710      PI        B1 (2)
   46   149           1.0532708150          28.6609559710      PI        B2 (3)
   47    21           1.1470985152          31.2141374953     SG+        A1 (1)
   48    22           1.3304836420          36.2043004889     SG+        A1 (1)
   49    98           1.4186942150          38.6046322109      PH        B1 (2)
   50   150           1.4186942150          38.6046322109      PH        B2 (3)
   51   151           1.4579385828          39.6725257513      PI        B2 (3)
   52    99           1.4579385828          39.6725257513      PI        B1 (2)
   53    23           1.5774058681          42.9233958552     SG+        A1 (1)
   54   195           1.5877353551          43.2044754854      DE        A2 (4)
   55    24           1.5877353551          43.2044754854      DE        A1 (1)
   56   100           1.6411587154          44.6581990244      PI        B1 (2)
   57   152           1.6411587154          44.6581990244      PI        B2 (3)
   58    25           1.6603501370          45.1804241556      DE        A1 (1)
   59   196           1.6603501370          45.1804241556      DE        A2 (4)
   60    26           1.8833667271          51.2490140933     SG+        A1 (1)
   61    27           1.9219546518          52.2990449086     SG+        A1 (1)
   62   101           2.0282770024          55.1922231544      PI        B1 (2)
   63   153           2.0282770024          55.1922231544      PI        B2 (3)
   64   197           2.0578318595          55.9964517008      PI        A2 (4)
   65    28           2.0578318595          55.9964517008      PI        A1 (1)
   66    29           2.1149396025          57.5504323922      DE        A1 (1)
   67   198           2.1149396025          57.5504323922      DE        A2 (4)
   68   102           2.1720525326          59.1045542291      PH        B1 (2)
   69   154           2.1720525326          59.1045542291      PH        B2 (3)
   70   155           2.1976768088          59.8018262335      PH        B2 (3)
   71   103           2.1976768088          59.8018262335      PH        B1 (2)
   72   156           2.2031374269          59.9504172063      PI        B2 (3)
   73   104           2.2031374269          59.9504172063      PI        B1 (2)
   74    30           2.2180307595          60.3556853911     SG+        A1 (1)
   75    31           2.2690901763          61.7450827561      DE        A1 (1)
   76   199           2.2690901763          61.7450827561      DE        A2 (4)
   77    32           2.3596259500          64.2086864072     SG+        A1 (1)
   78   105           2.4722600076          67.2736149301      PI        B1 (2)
   79   157           2.4722600076          67.2736149301      PI        B2 (3)
   80    33           2.5635183368          69.7568803161      DE        A1 (1)
   81   200           2.5635183368          69.7568803161      DE        A2 (4)
   82   106           2.6317627590          71.6139054524      PI        B1 (2)
   83   158           2.6317627590          71.6139054524      PI        B2 (3)
   84    34           2.6578308450          72.3232541367     SG+        A1 (1)
   85    35           2.8040409948          76.3018345802     SG+        A1 (1)
   86   159           3.2744741590          89.1029717753      PI        B2 (3)
   87   107           3.2744741591          89.1029717753      PI        B1 (2)
   88   201           3.7198219129         101.2215002514      PI        A2 (4)
   89    36           3.7198219129         101.2215002514      PI        A1 (1)
   90    37           3.8130219253         103.7576015232     SG+        A1 (1)
   91   160           3.8668028176         105.2210540018      PH        B2 (3)
   92   108           3.8668028176         105.2210540018      PH        B1 (2)
   93    38           4.0611843716         110.5104449943     SG+        A1 (1)
   94    39           4.1389730989         112.6271838755      DE        A1 (1)
   95   202           4.1389730989         112.6271838755      DE        A2 (4)
   96   161           4.1428883990         112.7337246082      PI        B2 (3)
   97   109           4.1428883990         112.7337246082      PI        B1 (2)
   98   110           4.1501965373         112.9325891630      PH        B1 (2)
   99   162           4.1501965373         112.9325891630      PH        B2 (3)
  100    40           4.3102563642         117.2880384792      DE        A1 (1)
  101   203           4.3102563642         117.2880384792      DE        A2 (4)
  102    41           4.3213324858         117.5894350710     SG+        A1 (1)
  103   111           4.4736384673         121.7338915263      PI        B1 (2)
  104   163           4.4736384673         121.7338915263      PI        B2 (3)
  105   204           4.5798341024         124.6236216696      DE        A2 (4)
  106    42           4.5798341024         124.6236216696      DE        A1 (1)
  107    43           4.8782128380         132.7429198406     SG+        A1 (1)
  108   112           5.0312039419         136.9060194279      PI        B1 (2)
  109   164           5.0312039419         136.9060194279      PI        B2 (3)
  110    44           5.0711146377         137.9920446708     SG+        A1 (1)
  111   165           5.3557925208         145.7385236934      PI        B2 (3)
  112   113           5.3557925208         145.7385236935      PI        B1 (2)
  113   205           5.8093891876         158.0815165026      PI        A2 (4)
  114    45           5.8093891876         158.0815165026      PI        A1 (1)
  115   114           5.8802062279         160.0085461394      PH        B1 (2)
  116   166           5.8802062279         160.0085461394      PH        B2 (3)
  117    46           5.9516317851         161.9521343602     SG+        A1 (1)
  118    47           6.0385807092         164.3181348700      DE        A1 (1)
  119   206           6.0385807092         164.3181348700      DE        A2 (4)
  120   115           6.1003669943         165.9994251637      PI        B1 (2)
  121   167           6.1003669943         165.9994251637      PI        B2 (3)
  122    48           6.1398050075         167.0725880595     SG+        A1 (1)
  123    49           6.2463444427         169.9716734789      DE        A1 (1)
  124   207           6.2463444427         169.9716734789      DE        A2 (4)
  125   168           6.3335464156         172.3445597968      PH        B2 (3)
  126   116           6.3335464156         172.3445597968      PH        B1 (2)
  127    50           6.4630697596         175.8690691683      DE        A1 (1)
  128   208           6.4630697596         175.8690691683      DE        A2 (4)
  129   169           6.6954885084         182.1935048537      PI        B2 (3)
  130   117           6.6954885084         182.1935048537      PI        B1 (2)
  131   170           7.0027287755         190.5539375570      PI        B2 (3)
  132   118           7.0027287755         190.5539375570      PI        B1 (2)
  133    51           7.0529638184         191.9209025685     SG+        A1 (1)
  134    52           7.4665759481         203.1758608098     SG+        A1 (1)
  135    53           9.3288224688         253.8501648703     SG+        A1 (1)
  136   171           9.6060116413         261.3928657173      PI        B2 (3)
  137   119           9.6060116413         261.3928657174      PI        B1 (2)
  138    54          10.6584030874         290.0298928429     SG+        A1 (1)
  139   209          10.6782166672         290.5690477594      PI        A2 (4)
  140    55          10.6782166672         290.5690477594      PI        A1 (1)
  141   172          10.7261347907         291.8729661886      PH        B2 (3)
  142   120          10.7261347907         291.8729661886      PH        B1 (2)
  143    56          10.9241314484         297.2607291548      DE        A1 (1)
  144   210          10.9241314484         297.2607291548      DE        A2 (4)
  145   173          10.9957380247         299.2092431560      PI        B2 (3)
  146   121          10.9957380247         299.2092431560      PI        B1 (2)
  147    57          11.1130923880         302.4026177297     SG+        A1 (1)
  148   174          11.9131394182         324.1730042064      PH        B2 (3)
  149   122          11.9131394182         324.1730042064      PH        B1 (2)
  150   211          11.9749172087         325.8540633503      DE        A2 (4)
  151    58          11.9749172088         325.8540633509      DE        A1 (1)
  152   175          12.1979344931         331.9226721797      PI        B2 (3)
  153   123          12.1979344931         331.9226721797      PI        B1 (2)
  154    59          12.4794300837         339.5825566218     SG+        A1 (1)
  155   212          12.7239555856         346.2364338044      DE        A2 (4)
  156    60          12.7239555856         346.2364338045      DE        A1 (1)
  157   176          13.0962363416         356.3667081872      PI        B2 (3)
  158   124          13.0962363416         356.3667081872      PI        B1 (2)
  159    61          13.3287444576         362.6935756764     SG+        A1 (1)
  160    62          17.1978819764         467.9781601280     SG+        A1 (1)
  161   177          18.6629894188         507.8457604657      PI        B2 (3)
  162   125          18.6629894188         507.8457604658      PI        B1 (2)
  163    63          19.3958781226         527.7886759737     SG+        A1 (1)
  164    64          26.2326888444         713.8277537587      DE        A1 (1)
  165   213          26.2326888444         713.8277537587      DE        A2 (4)
  166   178          26.4504528020         719.7534122976      PI        B2 (3)
  167   126          26.4504528020         719.7534122976      PI        B1 (2)
  168    65          26.8671471569         731.0922421504     SG+        A1 (1)
  169   179          33.3392665512         907.2075643993      PI        B2 (3)
  170   127          33.3392665512         907.2075643999      PI        B1 (2)
  171    66          34.1682232183         929.7646220910     SG+        A1 (1)
  172    67          35.4977265988         965.9422483093     SG+        A1 (1)
  173   214          47.0817333762        1281.1590980370      DE        A2 (4)
  174    68          47.0817333762        1281.1590980371      DE        A1 (1)
  175   180          47.2614919793        1286.0505783057      PI        B2 (3)
  176   128          47.2614919793        1286.0505783057      PI        B1 (2)
  177    69          47.4016114319        1289.8634224520     SG+        A1 (1)
  178    70          63.6442764673        1731.8488081673     SG+        A1 (1)
  179   181          66.2582302096        1802.9781056389      PI        B2 (3)
  180   129          66.2582302096        1802.9781056391      PI        B1 (2)
  181    71          66.8067307982        1817.9035654499     SG+        A1 (1)
  182   182          98.4915850991        2680.0922838056      PH        B2 (3)
  183   130          98.4915850991        2680.0922838056      PH        B1 (2)
  184   215          98.5066533205        2680.5023109545      DE        A2 (4)
  185    72          98.5066533205        2680.5023109545      DE        A1 (1)
  186   183          98.5204794662        2680.8785395060      PI        B2 (3)
  187   131          98.5204794662        2680.8785395061      PI        B1 (2)
  188    73          98.5274465301        2681.0681229547     SG+        A1 (1)
  189    74         103.3216695930        2811.5255648241      DE        A1 (1)
  190   216         103.3216695931        2811.5255648264      DE        A2 (4)
  191   184         103.3314646592        2811.7921021251      PH        B2 (3)
  192   132         103.3314646592        2811.7921021251      PH        B1 (2)
  193   185         103.3319283016        2811.8047184758      PI        B2 (3)
  194   133         103.3319283016        2811.8047184758      PI        B1 (2)
  195    75         103.3436736602        2812.1243259335     SG+        A1 (1)
  196   217         114.9409252092        3127.7015842187      DE        A2 (4)
  197    76         114.9409252092        3127.7015842188      DE        A1 (1)
  198   186         115.0475580130        3130.6032103267      PI        B2 (3)
  199   134         115.0475580130        3130.6032103267      PI        B1 (2)
  200    77         115.2226767493        3135.3684333984     SG+        A1 (1)
  201   187         116.6600930563        3174.4825196336      PI        B2 (3)
  202   135         116.6600930563        3174.4825196341      PI        B1 (2)
  203    78         117.3563565246        3193.4288118175     SG+        A1 (1)
  204    79         121.7663053285        3313.4296194941     SG+        A1 (1)
  205   218         198.5664260530        5403.2671496970      DE        A2 (4)
  206    80         198.5664260530        5403.2671496971      DE        A1 (1)
  207   136         198.6642547699        5405.9292044184      PI        B1 (2)
  208   188         198.6642547699        5405.9292044184      PI        B2 (3)
  209    81         198.7382238909        5407.9420065298     SG+        A1 (1)
  210    82         216.1771410146        5882.4790664629     SG+        A1 (1)
  211   189         224.7475027846        6115.6904664646      PI        B2 (3)
  212   137         224.7475027846        6115.6904664647      PI        B1 (2)
  213    83         225.1808078506        6127.4812967455     SG+        A1 (1)
  214   190         395.2115487729       10754.2529777665      PI        B2 (3)
  215   138         395.2115487729       10754.2529777670      PI        B1 (2)
  216    84         395.7423538686       10768.6969187363     SG+        A1 (1)
  217    85         508.5218324520       13837.5825501219     SG+        A1 (1)
  218    86         894.9879082306       24353.8591092265     SG+        A1 (1)


  VSCF finished.

 @CHECKOUT-I, Total execution time (CPU/WALL):       50.84/       8.66 seconds.
--executable xvscf finished with status     0 in        8.69 seconds (walltime).
 --invoking executable--
/nfs/workspaces/public/cfour_mpi/bin/xvtran
 @GETMEM-I,  Allocated    3814 MB of main memory.
  Full RHF integral transformation
  Transformation of IIII integrals :
  1 pass through the AO integral file was required.
     4389576 AO integrals were read.
     8554830 MO integrals were written to HF2.
  Transformation of IIJJ integrals :
  1 pass through the AO integral file was required.
     9975629 AO integrals were read.
    14340539 MO integrals were written to HF2.
  Transformation of IJIJ integrals :
  1 pass through the AO integral file was required.
    18944941 AO integrals were read.
    26655639 MO integrals were written to HF2.
  Transformation of IJKL integrals :
  1 pass through the AO integral file was required.
    13988652 AO integrals were read.
    18069073 MO integrals were written to HF2.
  Summary of active molecular orbitals: 
------------------------------------------------------------------------
 
  Index      Eigenvalue    Symmetry    Index      Eigenvalue    Symmetry
------------------------------------------------------------------------
     1       -20.6324380        1       110         4.1428884        2
     2       -11.5356161        1       111         4.1501965        2
     3        -1.2428075        1       112         4.4736385        2
     4        -0.8120795        1       113         5.0312039        2
     5        -0.5048477        1       114         5.3557925        2
     6        -0.4821916        2       115         5.8802062        2
     7        -0.4821916        3       116         6.1003670        2
     8         0.0583003        1       117         6.3335464        2
     9         0.0686744        1       118         6.6954885        2
    10         0.1548925        1       119         7.0027288        2
    11         0.1709254        1       120         9.6060116        2
    12         0.2202411        1       121        10.7261348        2
    13         0.2911618        1       122        10.9957380        2
    14         0.3044239        1       123        11.9131394        2
    15         0.4104490        1       124        12.1979345        2
    16         0.5152768        1       125        13.0962363        2
    17         0.5506246        1       126        18.6629894        2
    18         0.6983028        1       127        26.4504528        2
    19         0.7324326        1       128        33.3392666        2
    20         0.8092544        1       129        47.2614920        2
    21         0.8496289        1       130        66.2582302        2
    22         0.9024985        1       131        98.4915851        2
    23         1.1470985        1       132        98.5204795        2
    24         1.3304836        1       133       103.3314647        2
    25         1.5774059        1       134       103.3319283        2
    26         1.5877354        1       135       115.0475580        2
    27         1.6603501        1       136       116.6600931        2
    28         1.8833667        1       137       198.6642548        2
    29         1.9219547        1       138       224.7475028        2
    30         2.0578319        1       139       395.2115488        2
    31         2.1149396        1       140        -0.0219922        3
    32         2.2180308        1       141         0.0811842        3
    33         2.2690902        1       142         0.1825317        3
    34         2.3596260        1       143         0.2808512        3
    35         2.5635183        1       144         0.4088752        3
    36         2.6578308        1       145         0.6234499        3
    37         2.8040410        1       146         0.7263525        3
    38         3.7198219        1       147         0.7691448        3
    39         3.8130219        1       148         0.8674268        3
    40         4.0611844        1       149         1.0532708        3
    41         4.1389731        1       150         1.4186942        3
    42         4.3102564        1       151         1.4579386        3
    43         4.3213325        1       152         1.6411587        3
    44         4.5798341        1       153         2.0282770        3
    45         4.8782128        1       154         2.1720525        3
    46         5.0711146        1       155         2.1976768        3
    47         5.8093892        1       156         2.2031374        3
    48         5.9516318        1       157         2.4722600        3
    49         6.0385807        1       158         2.6317628        3
    50         6.1398050        1       159         3.2744742        3
    51         6.2463444        1       160         3.8668028        3
    52         6.4630698        1       161         4.1428884        3
    53         7.0529638        1       162         4.1501965        3
    54         7.4665759        1       163         4.4736385        3
    55         9.3288225        1       164         5.0312039        3
    56        10.6584031        1       165         5.3557925        3
    57        10.6782167        1       166         5.8802062        3
    58        10.9241314        1       167         6.1003670        3
    59        11.1130924        1       168         6.3335464        3
    60        11.9749172        1       169         6.6954885        3
    61        12.4794301        1       170         7.0027288        3
    62        12.7239556        1       171         9.6060116        3
    63        13.3287445        1       172        10.7261348        3
    64        17.1978820        1       173        10.9957380        3
    65        19.3958781        1       174        11.9131394        3
    66        26.2326888        1       175        12.1979345        3
    67        26.8671472        1       176        13.0962363        3
    68        34.1682232        1       177        18.6629894        3
    69        35.4977266        1       178        26.4504528        3
    70        47.0817334        1       179        33.3392666        3
    71        47.4016114        1       180        47.2614920        3
    72        63.6442765        1       181        66.2582302        3
    73        66.8067308        1       182        98.4915851        3
    74        98.5066533        1       183        98.5204795        3
    75        98.5274465        1       184       103.3314647        3
    76       103.3216696        1       185       103.3319283        3
    77       103.3436737        1       186       115.0475580        3
    78       114.9409252        1       187       116.6600931        3
    79       115.2226767        1       188       198.6642548        3
    80       117.3563565        1       189       224.7475028        3
    81       121.7663053        1       190       395.2115488        3
    82       198.5664261        1       191         0.2202411        4
    83       198.7382239        1       192         0.5506246        4
    84       216.1771410        1       193         0.7324326        4
    85       225.1808079        1       194         0.8496289        4
    86       395.7423539        1       195         1.5877354        4
    87       508.5218325        1       196         1.6603501        4
    88       894.9879082        1       197         2.0578319        4
    89        -0.0219922        2       198         2.1149396        4
    90         0.0811842        2       199         2.2690902        4
    91         0.1825317        2       200         2.5635183        4
    92         0.2808512        2       201         3.7198219        4
    93         0.4088752        2       202         4.1389731        4
    94         0.6234499        2       203         4.3102564        4
    95         0.7263525        2       204         4.5798341        4
    96         0.7691448        2       205         5.8093892        4
    97         0.8674268        2       206         6.0385807        4
    98         1.0532708        2       207         6.2463444        4
    99         1.4186942        2       208         6.4630698        4
   100         1.4579386        2       209        10.6782167        4
   101         1.6411587        2       210        10.9241314        4
   102         2.0282770        2       211        11.9749172        4
   103         2.1720525        2       212        12.7239556        4
   104         2.1976768        2       213        26.2326888        4
   105         2.2031374        2       214        47.0817334        4
   106         2.4722600        2       215        98.5066533        4
   107         2.6317628        2       216       103.3216696        4
   108         3.2744742        2       217       114.9409252        4
   109         3.8668028        2       218       198.5664261        4
------------------------------------------------------------------------
  -20.6324380141992       -11.5356161026067       -1.24280750280219     
 -0.812079480870321      -0.504847712445801      -0.482191550452765     
 -0.482191550452750       5.830032888734696E-002  6.867436018023886E-002
  0.154892507777506       0.170925435042293       0.220241088726009     
  0.291161759790030       0.304423897673657       0.410449006037710     
  0.515276804135333       0.550624583048496       0.698302844147663     
  0.732432623132824       0.809254367903614       0.849628885618981     
  0.902498543900214        1.14709851522357        1.33048364196282     
   1.57740586813531        1.58773535510022        1.66035013698017     
   1.88336672707786        1.92195465183743        2.05783185947010     
   2.11493960252685        2.21803075954937        2.26909017628707     
   2.35962595004396        2.56351833681858        2.65783084503792     
   2.80404099484920        3.71982191289086        3.81302192534478     
   4.06118437162265        4.13897309886554        4.31025636422535     
   4.32133248583617        4.57983410242957        4.87821283796386     
   5.07111463766215        5.80938918756361        5.95163178510640     
[...]
 Convergence information after    18 iterations: 
 Largest element of residual vector : -0.23791669E-06.
 Largest element of DIIS residual   : -0.23683256E-06.
 Convergence information after    19 iterations: 
 Largest element of residual vector :  0.23084311E-06.
 Largest element of DIIS residual   : -0.10691318E-06.
 Convergence information after    20 iterations: 
 Largest element of residual vector : -0.98068811E-07.
 Largest element of DIIS residual   : -0.54781909E-07.
 Perturbed amplitude equations converged in    20 iterations.
  Dominant contributions to perturbed wavefunction:
    7    0   46    0   0.2273316841 AA  
    7    7  140   22  -0.2220642258 ABAB
    7    7   22  140  -0.2220642258 ABAB
    7    0   22    0   0.2205164010 AA  
    7    0   36    0   0.2173286096 AA  
    7    0   28    0   0.1941255914 AA  
    7    7  140   32  -0.1840150251 ABAB
    7    7   32  140  -0.1840150251 ABAB
    7    7  140   45  -0.1812917906 ABAB
    7    7   45  140  -0.1812917906 ABAB
    7    0   32    0   0.1718699890 AA  
    7    0   25    0  -0.1686189149 AA  
    7    7  140   46  -0.1673867275 ABAB
    7    7   46  140  -0.1673867275 ABAB
    7    0   39    0   0.1654137522 AA  
    7    7  140   28  -0.1591088212 ABAB
    7    7   28  140  -0.1591088212 ABAB
    7    0   56    0   0.1582929857 AA  
    7    0   16    0  -0.1576003457 AA  
    7    0   54    0  -0.1575127954 AA  
  norm of converged amps    1.57848922015662     
 Starting iterative solution of the perturbed Lambda equations.
 The DIIS procedure is used to accelerate convergence.
 Convergence criterion is 10**(-7).
 Maximum number of iterations is 100.
 Convergence information after     1 iterations: 
 Largest element of residual vector :  0.77468423E-01.
 Largest element of DIIS residual   :  0.77468423E-01.
 Convergence information after     2 iterations: 
 Largest element of residual vector : -0.17690779E-01.
 Largest element of DIIS residual   :  0.14524966E-01.
 Convergence information after     3 iterations: 
 Largest element of residual vector :  0.63074301E-02.
 Largest element of DIIS residual   :  0.59140790E-02.
 Convergence information after     4 iterations: 
 Largest element of residual vector :  0.32657958E-02.
 Largest element of DIIS residual   :  0.30795005E-02.
 Convergence information after     5 iterations: 
 Largest element of residual vector :  0.31742698E-02.
 Largest element of DIIS residual   :  0.27707391E-02.
 Convergence information after     6 iterations: 
 Largest element of residual vector :  0.18651409E-02.
 Largest element of DIIS residual   :  0.88599676E-03.
 Convergence information after     7 iterations: 
 Largest element of residual vector :  0.96915453E-03.
 Largest element of DIIS residual   :  0.48185377E-03.
 Convergence information after     8 iterations: 
 Largest element of residual vector :  0.36724339E-03.
 Largest element of DIIS residual   : -0.19789189E-03.
 Convergence information after     9 iterations: 
 Largest element of residual vector :  0.16092642E-03.
 Largest element of DIIS residual   : -0.10323809E-03.
 Convergence information after    10 iterations: 
 Largest element of residual vector :  0.10148737E-03.
 Largest element of DIIS residual   : -0.69757732E-04.
 Convergence information after    11 iterations: 
 Largest element of residual vector : -0.38384221E-04.
 Largest element of DIIS residual   : -0.13486689E-04.
 Convergence information after    12 iterations: 
 Largest element of residual vector :  0.18459664E-04.
 Largest element of DIIS residual   :  0.98838891E-05.
 Convergence information after    13 iterations: 
 Largest element of residual vector :  0.48741639E-05.
 Largest element of DIIS residual   :  0.41463134E-05.
 Convergence information after    14 iterations: 
 Largest element of residual vector :  0.51749293E-05.
 Largest element of DIIS residual   :  0.27423891E-05.
 Convergence information after    15 iterations: 
 Largest element of residual vector :  0.28571715E-05.
 Largest element of DIIS residual   :  0.13699599E-05.
 Convergence information after    16 iterations: 
 Largest element of residual vector :  0.11848458E-05.
 Largest element of DIIS residual   :  0.33332012E-06.
 Convergence information after    17 iterations: 
 Largest element of residual vector :  0.59851800E-06.
 Largest element of DIIS residual   :  0.27336881E-06.
 Convergence information after    18 iterations: 
 Largest element of residual vector :  0.11704699E-06.
 Largest element of DIIS residual   : -0.98230807E-07.
 Perturbed Lambda equations converged in    18 iterations.
  Dominant contributions to perturbed wavefunction:
    7    7  140   22  -0.1629262369 ABAB
    7    7   22  140  -0.1629262369 ABAB
    7    7  140   45  -0.1360192561 ABAB
    7    7   45  140  -0.1360192561 ABAB
    7    7  140   32  -0.1358705310 ABAB
    7    7   32  140  -0.1358705310 ABAB
    7    7  140   46  -0.1171179952 ABAB
    7    7   46  140  -0.1171179952 ABAB
    7    7  140   39  -0.1136685266 ABAB
    7    7   39  140  -0.1136685266 ABAB
    7    7  140   28  -0.1136682744 ABAB
    7    7   28  140  -0.1136682744 ABAB
    7    7  140   56  -0.1091344736 ABAB
    7    7   56  140  -0.1091344736 ABAB
    7    7  140   36  -0.1074312907 ABAB
    7    7   36  140  -0.1074312907 ABAB
    7    6   22   89  -0.1014998498 ABAB
    6    7   89   22  -0.1014998498 ABAB
    7    7  140   16   0.1007734847 ABAB
    7    7   16  140   0.1007734847 ABAB
        The DBOC first-order density matrix is being calculated 
             (Symmetry block 3, perturbation   2)
 term   2.58638303319650     
 final tnorm  0.718657290886596     
  norm contr. I: |<0|L dT/dx|0>|^2   0.000000000000000E+000
  norm contr. II: <0|[nabla(1+L)e-T][nabla e^T]|0>   2.58638303319650     
  total norm contribution   2.58638303319650     
 oo  1.175363146689224E-002
 vv  -19.3260995143599     
 vo  1.950920647928536E-002
  Correlated perturbed 1-el contribution to DBOC  -19.2948366764138       cm**-1
  SUM_I |dc_I/dx|^2 contribution to DBOC   9.73698105352740       cm**-1
 
 
  The total diagonal Born-Oppenheimer correction (DBOC) is:      0.0041398235 a.u.
  The total diagonal Born-Oppenheimer correction (DBOC) is:        908.586227 cm-1
 
 Total CC energy including DBOC  -113.027756428394     
 First-order density matrix is being calculated  (Symmetry block 3, perturbation   2)
 Calculation of the contributions of <pq||rs> to dI(i,j)/dx required   1.4 seconds.
 Calculation of the contributions of <pq||rs> to dI(a,b)/dx required  14.8 seconds.
 Calculation of the contributions of <pq||rs> to dI(i,a)/dx required   9.1 seconds.
 First-order Z-vector equations are solved for 1 perturbation.
 Convergence reached after  20 iterations.
        U*G(pq,rs) contribution is being calculated
             (Symmetry block 3, perturbation   2)

 CCSD contribution to force constants 

        0.0000000000        0.0000000000        0.0000000000
        0.0000000000        0.0000000000        0.0000000000
        0.0000000000        0.0000000000        0.0000000000
        0.0000000000        0.0000000000        0.0000000000
        0.0000000000        0.0000000000        0.0000000000
        0.0000000000        0.0000000000        0.0000000000
        0.0000000000        0.0000000000        0.0000000000
        0.0000000000        0.0000000000        0.0000000000
        0.0000000000        0.0000000000        0.0000000000
        0.0000000000        0.0000000000        0.0000000000
        0.0000000000        0.0000000000        0.0000000000
        0.0000000000       -8.5136147007        8.5136147007

 CCSD contribution to dipole derivatives 

        0.0000000000        0.0000000000        0.0000000000
        0.0000000000        0.0000000000        0.0000000000
        0.0000000000        0.0000000000        0.0000000000
        0.0000000000        0.0000000000       -0.0566329343
        0.0000000000        0.0000000000        0.0000000000
        0.0000000000        0.0000000000        0.0000000000
 @CHECKOUT-I, Total execution time (CPU/WALL):     1059.81/     212.34 seconds.
--executable xsdcc finished with status     0 in      212.38 seconds (walltime).
 --invoking executable--
/nfs/workspaces/public/cfour_mpi/bin/xanti
 @GETMEM-I,  Allocated    3814 MB of main memory.
 CCSD MO derivative gammas will be sorted to Mulliken order.
 @CHECKOUT-I, Total execution time (CPU/WALL):        9.71/      26.28 seconds.
--executable xanti finished with status     0 in       26.31 seconds (walltime).
 --invoking executable--
/nfs/workspaces/public/cfour_mpi/bin/xbcktrn
 @GETMEM-I,  Allocated    3814 MB of main memory.
 CCSD MO derivative gammas will be transformed to the AO basis.
 @CHECKOUT-I, Total execution time (CPU/WALL):       16.33/       4.92 seconds.
--executable xbcktrn finished with status     0 in        4.95 seconds (walltime).
 --invoking executable--
/nfs/workspaces/public/cfour_mpi/bin/xvdint
 @GETMEM-I,  Allocated    3814 MB of main memory.
 One- and two-electron integral derivatives are calculated
 for RHF-CC/MBPT hessians and dipole derivatives.
 Spherical gaussians are used.
  magnet F F
                    8722  records have been written to the Sort file.
  Total length of Sort file :             178609116  words.
 Evaluation of 2el integral derivatives

                      Two-electron integral gradient
                      ------------------------------

                         C #1 z     0.0000000000
                         O #2 z     0.0000000000


 C #1       0.0000000000            0.0778253721            0.0000000000
 O #2       0.0000000000           -0.0778253721            0.0000000000


 Evaluation of 2e integral derivatives required  255.29 seconds.
  contribution to Hessian
        0.0000000000        0.0000000000        0.0000000000
        0.0000000000        0.0778253721       -0.0778253721
 @CHECKOUT-I, Total execution time (CPU/WALL):      255.28/      63.21 seconds.
--executable xvdint finished with status     0 in       63.24 seconds (walltime).
 --invoking executable--
/nfs/workspaces/public/cfour_mpi/bin/xanti
 @GETMEM-I,  Allocated    3814 MB of main memory.
 CCSD MO gammas will be sorted to Mulliken order.
 @CHECKOUT-I, Total execution time (CPU/WALL):       10.28/       8.89 seconds.
--executable xanti finished with status     0 in        8.91 seconds (walltime).
 --invoking executable--
/nfs/workspaces/public/cfour_mpi/bin/xbcktrn
 @GETMEM-I,  Allocated    3814 MB of main memory.
 CCSD MO gammas will be transformed to the AO basis.
 @CHECKOUT-I, Total execution time (CPU/WALL):       23.57/       5.58 seconds.
--executable xbcktrn finished with status     0 in        5.61 seconds (walltime).
 --invoking executable--
/nfs/workspaces/public/cfour_mpi/bin/xvdint
 @GETMEM-I,  Allocated    3814 MB of main memory.
 One- and two-electron integral derivatives are calculated
 for RHF-CC/MBPT hessians and dipole derivatives.
 Spherical gaussians are used.
  magnet F F

                     Kinetic energy integral gradient
                     --------------------------------

                         C #1 z    -0.4212992876
                         O #2 z     0.4212992876


 C #1       0.0000000000            0.0000000000           -0.4212992876
 O #2       0.0000000000            0.0000000000            0.4212992876



                   Nuclear attraction integral gradient
                   ------------------------------------

                         C #1 z    12.1861869208
                         O #2 z   -12.1861869208


 C #1       0.0000000000            0.0000000000           12.1861869208
 O #2       0.0000000000            0.0000000000          -12.1861869208



                      Reorthonormalization gradient
                      -----------------------------

                         C #1 z     0.0000000000
                         O #2 z     0.0000000000


 C #1       0.0000000000            0.0000000000            0.0000000000
 O #2       0.0000000000            0.0000000000            0.0000000000



                     Kinetic energy integral Hessian
                     -------------------------------


           Symmetry 1

           C #1 z      O #2 z

 C #1 z    0.446373
 O #2 z   -0.446373    0.446373


           Symmetry 2

           C #1 x      O #2 x

 C #1 x   -0.289097
 O #2 x    0.289097   -0.289097


           Symmetry 3

           C #1 y      O #2 y

 C #1 y   -0.289097
 O #2 y    0.289097   -0.289097




           C #1 x      C #1 y      C #1 z      O #2 x      O #2 y      O #2 z

 C #1 x   -0.289097
 C #1 y    0.000000   -0.289097
 C #1 z    0.000000    0.000000    0.446373

 O #2 x    0.289097    0.000000    0.000000   -0.289097
 O #2 y    0.000000    0.289097    0.000000    0.000000   -0.289097
 O #2 z    0.000000    0.000000   -0.446373    0.000000    0.000000    0.446373




                   Nuclear attraction integral Hessian
                   -----------------------------------


           Symmetry 1

           C #1 z      O #2 z

 C #1 z   -7.250726
 O #2 z    7.250726   -7.250726


           Symmetry 2

           C #1 x      O #2 x

 C #1 x    5.903973
 O #2 x   -5.903973    5.903973


           Symmetry 3

           C #1 y      O #2 y

 C #1 y    5.903973
 O #2 y   -5.903973    5.903973




           C #1 x      C #1 y      C #1 z      O #2 x      O #2 y      O #2 z

 C #1 x    5.903973
 C #1 y    0.000000    5.903973
 C #1 z    0.000000    0.000000   -7.250726

 O #2 x   -5.903973    0.000000    0.000000    5.903973
 O #2 y    0.000000   -5.903973    0.000000    0.000000    5.903973
 O #2 z    0.000000    0.000000    7.250726    0.000000    0.000000   -7.250726




                Highest order reorthonormalization Hessian
                ------------------------------------------


           Symmetry 1

           C #1 z      O #2 z

 C #1 z    0.000000
 O #2 z    0.000000    0.000000


           Symmetry 2

           C #1 x      O #2 x

 C #1 x    0.000000
 O #2 x    0.000000    0.000000


           Symmetry 3

           C #1 y      O #2 y

 C #1 y    0.000000
 O #2 y    0.000000    0.000000




           C #1 x      C #1 y      C #1 z      O #2 x      O #2 y      O #2 z




                Electronic contributions to dipole moment
                -----------------------------------------

                               au             Debye

                    z      0.57420963      1.45949554

  Conversion factor used: 1 a.u. =   2.54174691 Debye 



   Electronic contributions to static part of dipole moment derivatives
   --------------------------------------------------------------------


                     Total dipole moment derivatives
                     -------------------------------


           Symmetry 1
                              Ez

               C #1 z    -5.67068022
               O #2 z    -8.32931978

           Symmetry 2
                              Ex

               C #1 x    -5.68480647
               O #2 x    -8.31519353

           Symmetry 3
                              Ey

               C #1 y    -5.68480647
               O #2 y    -8.31519353



                       Ex          Ey          Ez

      C #1    x   -5.684806    0.000000    0.000000
      C #1    y    0.000000   -5.684806    0.000000
      C #1    z    0.000000    0.000000   -5.670680

      O #2    x   -8.315194    0.000000    0.000000
      O #2    y    0.000000   -8.315194    0.000000
      O #2    z    0.000000    0.000000   -8.329320

 Evaluation of 1e integral derivatives required    1.65 seconds.
                    8815  records have been written to the Sort file.
  Total length of Sort file :             180513570  words.
 Evaluation of 2el integral derivatives

                      Two-electron integral gradient
                      ------------------------------

                         C #1 z    -6.6256260292
                         O #2 z     6.6256260292


 C #1       0.0000000000            0.0000000000           -6.6256260292
 O #2       0.0000000000            0.0000000000            6.6256260292


 Evaluation of 2e integral derivatives required  538.23 seconds.

                            Molecular gradient
                            ------------------

                         C #1 z     0.5257786619
                         O #2 z    -0.5257786619


 C #1       0.0000000000            0.0000000000            0.5257786619
 O #2       0.0000000000            0.0000000000           -0.5257786619


  Molecular gradient norm 0.744E+00

                            Molecular hessian
                            -----------------


           Symmetry 1

           C #1 z      O #2 z

 C #1 z    9.543542
 O #2 z   -9.543542    9.543542


           Symmetry 2

           C #1 x      O #2 x

 C #1 x    8.667666
 O #2 x   -8.667666    8.667666


           Symmetry 3

           C #1 y      O #2 y

 C #1 y    8.667666
 O #2 y   -8.667666    8.667666




           C #1 x      C #1 y      C #1 z      O #2 x      O #2 y      O #2 z

 C #1 x    8.667666
 C #1 y    0.000000    8.667666
 C #1 z    0.000000    0.000000    9.543542

 O #2 x   -8.667666    0.000000    0.000000    8.667666
 O #2 y    0.000000   -8.667666    0.000000    0.000000    8.667666
 O #2 z    0.000000    0.000000   -9.543542    0.000000    0.000000    9.543542




                           Total dipole moment
                           -------------------

                               au             Debye

                    z      0.57069401      1.45055975

  Conversion factor used: 1 a.u. =   2.54174691 Debye 



                     Total dipole moment derivatives
                     -------------------------------


           Symmetry 1
                              Ez

               C #1 z     0.49302955
               O #2 z    -0.49302955

           Symmetry 2
                              Ex

               C #1 x     0.18816234
               O #2 x    -0.18816234

           Symmetry 3
                              Ey

               C #1 y     0.18816234
               O #2 y    -0.18816234



                       Ex          Ey          Ez

      C #1    x    0.188162    0.000000    0.000000
      C #1    y    0.000000    0.188162    0.000000
      C #1    z    0.000000    0.000000    0.493030

      O #2    x   -0.188162    0.000000    0.000000
      O #2    y    0.000000   -0.188162    0.000000
      O #2    z    0.000000    0.000000   -0.493030

 @CHECKOUT-I, Total execution time (CPU/WALL):      539.87/      97.57 seconds.
--executable xvdint finished with status     0 in       97.60 seconds (walltime).
 --invoking executable--
/nfs/workspaces/public/cfour_mpi/bin/xjoda
  @GTFLGS-I, Hessian will be transformed to curvilinear coordinates.
  @GTFLGS-I, Hessian will be transformed to curvilinear coordinates.
  igrd and ihes are                      0                     1
  gradient from JOBARC 
   0.000000000000000   0.000000000000000   0.525778661917519
   0.000000000000000   0.000000000000000  -0.525778661917519
 
  @PROJFCM-I, Projecting force constant matrix onto totally symmetric subspace.
  Largest difference between matrix elements of symmetrized
  and unsymmetrized FCM :    -0.4707345624E-12.
  read isotopes from ZMAT file 
 
  Summary of diagonal Born-Oppenheimer correction at the correlated level
  The total diagonal Born-Oppenheimer correction (DBOC) is:      0.0041398235 a.u.
  The total diagonal Born-Oppenheimer correction (DBOC) is:        908.586227 cm-1
  The total diagonal Born-Oppenheimer correction (DBOC) is:            10.869 kJ/mole
  hellooooooo 
  readis is  F
 
 @CHECKOUT-I, Total execution time (CPU/WALL):        0.01/       0.01 seconds.
--executable xjoda finished with status     0 in        0.04 seconds (walltime).
  The final electronic energy is      -113.027756428393957 a.u. 
  This computation required                         2262.08 seconds (walltime).
