 --invoking executable--
/nfs/workspaces/public/cfour_mpi/bin/xjoda


   *************************************************************************
         <<<     CCCCCC     CCCCCC   |||     CCCCCC     CCCCCC   >>>
       <<<      CCC        CCC       |||    CCC        CCC         >>>
      <<<      CCC        CCC        |||   CCC        CCC            >>>
    <<<        CCC        CCC        |||   CCC        CCC              >>>
      <<<      CCC        CCC        |||   CCC        CCC            >>>
       <<<      CCC        CCC       |||    CCC        CCC         >>>
         <<<     CCCCCC     CCCCCC   |||     CCCCCC     CCCCCC   >>>
   *************************************************************************

     ****************************************************************
     * CFOUR Coupled-Cluster techniques for Computational Chemistry *
     ****************************************************************
 

   Department of Chemistry                Institut fuer Physikalische Chemie
   University of Florida                  Universitaet Mainz
   Gainesville, FL 32611, USA             D-55099 Mainz, Germany

   Department of Chemistry                Fakultaet fuer Chemie und Biowiss.
   Johns Hopkins University               Karlsruher Institut fuer Technologie
   Baltimore, MD 21218, USA               D-76131 Karlsruhe, Germany

   Department of Chemistry                Department of Physical Chemistry
   Southern Methodist University          Eotvos Lorand University
   Dallas, TX 75275, USA                  H-1053 Budapest, Hungary

 
                       Version 2.1
 
                     vincent.theory.phys.ucl.ac.uk                     
                     Tue 25 Feb 00:11:54 GMT 2025                      
                     integer*8 version is running
 
********************************************************************************
*                          Input from ZMAT file                                *
********************************************************************************
Carbon Monoxide DBOC calculation                                                
C                                                                               
O 1 r                                                                           
                                                                                
r=1.12825                                                                       
                                                                                
                                                                                
*CFOUR(CALC=CCSD,BASIS=AUG-PCVQZ,SCF_CONV=10                                    
CC_CONV=14,DBOC=ON,MEMORY=500000000                                             
ZFIELD=-200)                                                                    
                                                                                
%isotopes                                                                       
12                                                                              
16                                                                              
********************************************************************************
  @GTFLGS-I, Hessian will be transformed to curvilinear coordinates.
    -------------------------------------------------------------------
                    CFOUR Control Parameters 
    -------------------------------------------------------------------
        External           Internal           Value            Units
          Name               Name
    -------------------------------------------------------------------
       ABCDTYPE             IABCDT         STANDARD    [  0]    ***   
       ANHARMONIC           IANHAR         OFF         [  0]    ***   
       ANH_ALGORIT          IANALG         STANDARD    [  0]    ***   
       ANH_DERIVAT          IANDER         SECOND      [  1]    ***   
       ANH_MODE             ANHMOD         VIBRATION   [  0]    ***   
       ANH_STEPSIZ          ICUBST             50000          x 10-6  
       ANH_SYMMETR          IANHSM         ABELIAN     [  0]    ***   
       AO_LADDERS           IAOLAD         SINGLEPASS  [  1]    ***   
       AV_SCF               IAVSCF         OFF         [  0]    ***   
       BASIS                IBASIS         AUG-PCVQZ   [ 52]    ***   
       BOTHVECTORS          BOTHVC         OFF         [  0]    ***   
       BOX_POTENT           IPIAB          OFF         [  0]    ***   
       BREIT                IBREIT         OFF         [  0]    ***   
       BRUCK_CONV           IBRTOL          10D-  4             ***   
       BRUECKNER            IBRKNR         OFF         [  0]    ***   
       BUFFERSIZE           IBUFFS              4096            ***   
       CACHE_RECS           ICHREC             10               ***   
       CALCLEVEL            ICLLVL         CCSD        [ 10]    ***   
       CCORBOPT             ICCORB         OFF         [  0]  x 0.01  
       CC_CONV              ICCCNV          10D- 14             ***   
       CC_EXPORDER          ICCEOR              5               ***   
       CC_EXTRAPOL          ICCEXT         DIIS        [  1]    ***   
       CC_GUESS             ICCGES         MP2         [  0]    ***   
       CC_MAXCYC            ICCCYC            100              cycles 
       CC_PROGRAM           ICCPRO         VCC         [  0]    ***   
       CHARGE               ICHRGE              0               ***   
       CHOLESKY             ICHOLE         OFF         [  0]    ***   
       CIS_CONV             ICISTL              5               ***   
       COMM_SIZE            IPSIZE            ***               ***   
       CONSTANT             ICONST         OLD         [  1]    ***   
       CONTINUUM            ICONTU         NONE        [  0]    ***   
       CONTRACTION          ICNTYP         GENERAL     [  1]    ***   
       COORDINATES          ICOORD         INTERNAL    [  0]    ***   
       CPHF_CONVER          ICPHFT          10D- 16             ***   
       CPHF_MAXCYC          ICPHFC             64              cycles 
       CUBIC                ICUBIC         OFF         [  0]    ***   
       CURVILINEAR          ICURVY         ON          [  1]    ***   
       DBOC                 IDBOC          ON          [  1]    ***   
       DCT                  IDCT           OFF         [  0]    ***   
       DERIV_LEV            IDRLVL         SECOND      [  2]    ***   
       DEVMEM_SIZE          IDVMEM          50000000           MByte  
       DIAG_MRCC            IEOMST          10D-  0             ***   
       DIFF_TYPE            IDIFTY         RELAXED     [  0]    ***   
       DIRECT               IDIRCT         OFF         [  0]    ***   
       DROPMO               IDRPMO      NONE         
       ECP                  IECP           OFF         [  0]    ***   
       EIGENVECTOR          IVEC                1               ***   
       EL_ANHARM            IELANH         OFF         [  0]    ***   
       EOMFOLLOW            IEOMSR         ENERGY      [  0]    ***   
       EOMIP                IEOMIP         OFF         [  0]    ***   
       EOMLEVEL             HBARFM         SAME        [  0]    ***   
       EOM_MRCC             IMRCCE         NEW         [  1]    ***   
       EOM_NONIT            EOMNON         OFF         [  0]    ***   
       EOM_NSING            IEOMSI          10D-  0             ***   
       EOM_NSTATES          IMRCCD         DAVIDSON    [  0]    ***   
       EOM_NTRIP            IEOMTR          10D-  0             ***   
       EOM_ORDER            IEXORD         ENERGY      [  0]    ***   
       EOM_PROPSTA          IEOMST              0               ***   
       ESTATE_CONV          IEXTOL          10D-  5             ***   
       ESTATE_DIAG          IEXDIG         ITERATIVE   [  0]    ***   
       ESTATE_LOCK          IESLOC         ON          [  1]    ***   
       ESTATE_MAXC          IEXMXC             40               ***   
       ESTATE_PROP          IEXPRP         OFF         [  0]    ***   
       EVAL_HESS            IRECAL              0            # of cyc.
       EXCITATION           IEXCIT              0               ***   
       EXCITE               IEXCIT         NONE        [  0]    ***   
       EXTERN_POT           IEXPOT         OFF         [  0]    ***   
       FCGRADNEW            IFCGNW         OFF         [  0]    ***   
       FC_FIELD             IFINFC              0             x 10-6  
       FD_CALTYPE           IFDCAL         GRADONLY    [  0]    ***   
       FD_PROJECT           IFDPRJ         OFF         [  1]    ***   
       FD_STEPSIZE          IDISFD              0            10-4 bohr
       FD_USEGROUP          IFDGRP         FULL        [  0]    ***   
       FILE_RECSIZ          IFLREC              4096           words  
       FINITE_PERT          IFIPER              0             x 10-6  
       FIXGEOM              IFIXGM         OFF         [  0]    ***   
       FOCK                 IFOCK          AO          [  1]    ***   
       FREQ_ALGORI          IVIALG         STANDARD    [  0]    ***   
       FROZEN_CORE          IFROCO         OFF         [  0]    ***   
       GAMMA_ABCD           IGABCD         STORE       [  0]    ***   
       GAMMA_ABCI           IGABCI         STORE       [  0]    ***   
       GENBAS_1             IGNBS1              0               ***   
       GENBAS_2             IGNBS2              0               ***   
       GENBAS_3             IGNBS3              0               ***   
       GENBAS_4             IGNBS4              0               ***   
       GEO_CONV             ICONTL              5              H/bohr 
       GEO_MAXCYC           IOPTCY             50               ***   
       GEO_MAXSTEP          IMXSTP            300            millibohr
       GEO_METHOD           INR            SINGLE_POINT[  5]    ***   
       GIAO                 IGIAO          OFF         [  1]    ***   
       GIMIC                IGIMIC         OFF         [  0]    ***   
       GRID                 IGRID          OFF         [  0]    ***   
       GRID_ALGO            IGALGO         SERIAL      [  0]    ***   
       GUESS                IGUESS         MOREAD      [  0]    ***   
       HBAR                 IHBAR          OFF         [  0]    ***   
       HESS_TYPE            IHESTP         SCF         [  0]    ***   
       HF2_FILE             IHF2Fl         USE         [  1]    ***   
       HFSTABILITY          ISTABL         OFF         [  0]    ***   
       INCORE               INCORE         OFF         [  0]    ***   
       INPUT_MRCC           IMRCC          ON          [  1]    ***   
       INTEGRALS            INTTYP         VMOL        [  1]    ***   
       JODA_PRINT           IJPRNT              0               ***   
       KEYWORD_OUT          IDMPKW         NO          [  0]    ***   
       LINDEP_TOL           ILINDP              8               ***   
       LINEQ_CONV           IZTACN          10D-  7           cycles  
       LINEQ_EXPOR          ILMAXD              5               ***   
       LINEQ_MAXCY          ILMAXC            100               ***   
       LINEQ_TYPE           ILTYPE         DIIS        [  1]    ***   
       LOCK_ORBOCC          ILOCOC         OFF         [  0]    ***   
       MEMORY_SIZE          IMEMSZ         500000000           words  
       MEM_UNIT             IMEMU          INTEGERWORDS[  0]    ***   
       MRCC                 IMRCCC         OFF         [  0]    ***   
       MULTIPLICTY          IMULTP              1               ***   
       NACOUPLING           IVCOUP         OFF         [  0]    ***   
       NEGEVAL              IDIE           ABORT       [  0]    ***   
       NEWNORM              INEWNO         OFF         [  0]    ***   
       NON-HF               INONHF         OFF         [  0]    ***   
       NTOP_TAMP            ITOPT2             15               ***   
       NUC_MODEL            INUCMO         POINT       [  0]    ***   
       OCCUPATION           IOCCU   ESTIMATED BY SCF 
       OPEN-SHELL           IOPEN          SPIN-ORBITAL[  0]    ***   
       OPTVIB               IOPTVB         OFF         [  0]    ***   
       ORBITALS             IORBTP         STANDARD    [  0]    ***   
       PARALLEL             IPARAL         ON          [  1]    ***   
       PARA_INT             IPINTS         ON          [  1]    ***   
       PARA_PRINT           IPPRIN              0               ***   
       PERT_ORB             IPTORB         STANDARD    [  0]    ***   
       POINTS               IGRDFD              0               ***   
       PRINT                IPRNT               0               ***   
       PROPS                IPROPS         OFF         [  0]    ***   
       PROP_INTEGR          IINTYP         INTERNAL    [  0]    ***   
       PSI                  IPSI           OFF         [  0]    ***   
       QC_ALG               IQCALG         FLM         [  0]    ***   
       QC_LINALG            IQCLIN         TRIDIAG     [  2]    ***   
       QC_MAXCYC            IQCMAX          10D-100           cycles  
       QC_MAXSCFCY          IQCMSC          10D- 15           cycles  
       QC_RTRUST            IQCRTR          10D-  0           x 10-3  
       QC_SKIPSCF           IQCSKI         OFF         [  0]    ***   
       QC_START             IQCSTA          10D-  1             ***   
       QRHFGUESS            IQGUES         OFF         [  0]    ***   
       QUARTIC              IQUART         OFF         [  0]    ***   
       RAMAN_INT            IRAMIN         OFF         [  0]    ***   
       RAMAN_ORB            IRAMRE         UNRELAXED   [  0]    ***   
       RDO                  IRDOFM         ON          [  1]    ***   
       REDUCE_REPR          REDREP         Ir          [  0]    ***   
       REFERENCE            IREFNC         RHF         [  0]    ***   
       RELATIVIST           IRELAT         OFF         [  0]    ***   
       RELAX_DENS           IRDENS         ON          [  1]    ***   
       RESET_FLAGS          IRESET         OFF         [  0]    ***   
       RESTART_CC           ICCRES         OFF         [  0]    ***   
       ROT_EVEC             ROTVEC              0               ***   
       SAVE_INTS            ISVINT         OFF         [  0]    ***   
       SCALE_ON             ISTCRT              0               ***   
       SCF_CONV             ISCFCV          10D- 10             ***   
       SCF_DAMPING          IDAMP               0             x 10-3  
       SCF_EXPORDE          IRPPOR              6               ***   
       SCF_EXPSTAR          IRPPLS              8               ***   
       SCF_EXTRAPO          IRPP           ON          [  1]    ***   
       SCF_MAXCYC           ISCFCY            150              cycles 
       SCF_NOSTOP           ISCFST         OFF         [  0]    ***   
       SCF_PRINT            ISCFPR              0               ***   
       SCF_PROG             ISCFPR         SCF         [  0]    ***   
       SD_FIELD             IFINSD              0             x 10-6  
       SOPERT               IPERSO         OFF         [  0]    ***   
       SPHERICAL            IDFGHI         ON          [  1]    ***   
       SPINORBIT            ISOCAL         OFF         [  0]    ***   
       SPINROTATIO          ISRCON         OFF         [  0]    ***   
       SPIN_FLIP            ISPFLP         OFF         [  0]    ***   
       SPIN_ORBIT           ISPORB         OFF         [  0]    ***   
       SPIN_SCAL            ISCSMP         OFF         [  0]    ***   
       STEEPSCALE           ISTPSC              1000          x 10-3  
       SUBGROUP             ISUBGP         DEFAULT     [  0]    ***   
       SUBGRPAXIS           ISBXYZ         X           [  0]    ***   
       SYMMETRY             ISYM           ON          [  0]    ***   
       SYM_CHECK            ISYMCK         OVERRIDE    [  1]    ***   
       T3_EXTRAPOL          IT3EXT         OFF         [  0]    ***   
       T4_EXTRAPOL          IT4EXP         OFF         [  0]    ***   
       TAMP_SUM             IEVERY              5               ***   
       TESTSUITE            ITESTS         OFF         [  0]    ***   
       THERMOCH             ITHERM         OFF         [  0]    ***   
       TOL_CHOLESK          ITOLCH          10D-  4             ***   
       TRANGRAD             IRESRM         OFF         [  0]    ***   
       TRANS_INV            ITRAIN         IGNORE      [  1]    ***   
       TREAT_PERT           ITREAT         SIMULTANEOUS[  0]    ***   
       TRIP_ALGORI          ITRALG         NORMAL      [  0]    ***   
       UIJ_THRESHO          IUIJTH              1               ***   
       UNITS                IUNITS         ANGSTROM    [  0]    ***   
       UNOS                 IUNOS          OFF         [  0]    ***   
       UPDATE_HESS          IHUPDT         ON          [  1]    ***   
       VIBPHASE             ISETPH         STANDARD    [  0]    ***   
       VIBRATION            IVIB           ANALYTIC    [  1]    ***   
       VIB_ALGORIT          IGEALG         STANDARD    [  0]    ***   
       VNATORB              IVNORB         OFF         [  0]    ***   
       VTRAN                IVTRAN         FULL/PARTIAL[  0]    ***   
       XFIELD               IXEFLD              0             x 10-6  
       XFORM_TOL            IXFTOL          10D- 11             ***   
       YFIELD               IYEFLD              0             x 10-6  
       ZFIELD               IZEFLD            ***             x 10-6  
       ZSCALE_EXP           IZEXPS         OFF         [  0]    ***   
    -------------------------------------------------------------------
   2 entries found in Z-matrix 
   Job Title : Carbon Monoxide DBOC calculation                                                
   There are  1 unique internal coordinates.
   Of these,  0 will be optimized.
   User supplied Z-matrix: 
--------------------------------------------------------------------------------
       SYMBOL    BOND      LENGTH    ANGLE     ANGLE     DIHED     ANGLE
                  TO      (ANGST)    WRT      (DEG)      WRT      (DEG)
--------------------------------------------------------------------------------
        C    
        O          1         r    
                  *Initial values for internal coordinates* 
                      Name             Value
                        r               1.1282500000
--------------------------------------------------------------------------------
  read isotopes from ZMAT file 
   Rotational constants (in cm-1): 
          1.9315317250             1.9315317250
   Rotational constants (in MHz): 
      57905.8724666917         57905.8724666917
********************************************************************************
   The full molecular point group is CXv .
   The largest Abelian subgroup of the full molecular point group is C2v .
   The computational point group is C2v .
********************************************************************************
--------------------------------------------------------------------------------
   Analysis of internal coordinates specified by Z-matrix 
--------------------------------------------------------------------------------
   *The nuclear repulsion energy is   22.513184843784618 a.u.
   *There is   1 degree of freedom within the tot. symm. molecular subspace.
   *Z-matrix requests optimization of   0 coordinates.
   *The optimization is constrained.
   *The following   1 parameters can have non-zero 
    derivatives within the totally symmetric subspace:
             r    [ 1]
   *The following   0 parameters are to be optimized:

   *The following coordinates must be varied in an  unconstrained optimization.
             r    [ 1]
--------------------------------------------------------------------------------


 ----------------------------------------------------------------
         Coordinates used in calculation (QCOMP) 
 ----------------------------------------------------------------
 Z-matrix   Atomic            Coordinates (in bohr)
  Symbol    Number           X              Y              Z
 ----------------------------------------------------------------
     C         6        -0.00000000     0.00000000     1.21816770
     O         8         0.00000000     0.00000000    -0.91391625
 ----------------------------------------------------------------
 
   Interatomic distance matrix (Angstroms) 
 
                 C             O    
                [ 1]        [ 2]
  C    [ 1]     0.00000
  O    [ 2]     1.12825     0.00000
 rotcon2
   Rotational constants (in cm-1): 
          1.9315317250             0.0000000000
   Rotational constants (in MHz): 
      57905.8724666917             0.0000000000
  ECPDATA file not present.   Using default ECPDATA. 
  @GTFLGS-I, Hessian will be transformed to curvilinear coordinates.
  There are  218 basis functions.
 @CHECKOUT-I, Total execution time (CPU/WALL):        0.11/       0.14 seconds.
--executable xjoda finished with status     0 in        0.16 seconds (walltime).
 --invoking executable--
/nfs/workspaces/public/cfour_mpi/bin/xvmol
 SERIAL VERSION OF MOLECULE STARTED
********************************************************************************
                    INPUT FROM MOL FILE
********************************************************************************
INTGRL        1    0    1    0    0    0    0    0    0                         
         *** CFOUR Program System (Release V0.1) ***                            
Carbon Monoxide DBOC calculation                                                
    2    2 X  Y       0.10E-08              0    0                              
   9999.00      3.00                                                            
          6.00000000    1    5    1    1    1    1    1                         
C #1  -0.000000000000000   0.000000000000000   1.218167698172089                
   16    9                                                                      
   33980.0000000000       9.100000000000000E-005 -1.900000000000000E-005        
  0.000000000000000E+000  0.000000000000000E+000  0.000000000000000E+000        
  0.000000000000000E+000  0.000000000000000E+000  0.000000000000000E+000        
  0.000000000000000E+000                                                        
   5089.00000000000       7.040000000000000E-004 -1.510000000000000E-004        
  0.000000000000000E+000  0.000000000000000E+000  0.000000000000000E+000        
  0.000000000000000E+000  0.000000000000000E+000  0.000000000000000E+000        
  0.000000000000000E+000                                                        
   1157.00000000000       3.693000000000000E-003 -7.850000000000000E-004        
  0.000000000000000E+000  0.000000000000000E+000  0.000000000000000E+000        
  0.000000000000000E+000  0.000000000000000E+000  0.000000000000000E+000        
  0.000000000000000E+000                                                        
   326.600000000000       1.536000000000000E-002 -3.324000000000000E-003        
  0.000000000000000E+000  0.000000000000000E+000  0.000000000000000E+000        
  0.000000000000000E+000  0.000000000000000E+000  0.000000000000000E+000        
  0.000000000000000E+000                                                        
   106.100000000000       5.292900000000000E-002 -1.151200000000000E-002        
  0.000000000000000E+000  0.000000000000000E+000  0.000000000000000E+000        
  0.000000000000000E+000  0.000000000000000E+000  0.000000000000000E+000        
  0.000000000000000E+000                                                        
   38.1100000000000       0.147043000000000      -3.416000000000000E-002        
  0.000000000000000E+000  0.000000000000000E+000  0.000000000000000E+000        
  0.000000000000000E+000  0.000000000000000E+000  0.000000000000000E+000        
  0.000000000000000E+000                                                        
   14.7500000000000       0.305631000000000      -7.717300000000001E-002        
  0.000000000000000E+000  0.000000000000000E+000  0.000000000000000E+000        
  0.000000000000000E+000  0.000000000000000E+000  0.000000000000000E+000        
  0.000000000000000E+000                                                        
   6.03500000000000       0.399345000000000      -0.141493000000000             
  0.000000000000000E+000  0.000000000000000E+000  0.000000000000000E+000        
  0.000000000000000E+000  0.000000000000000E+000  0.000000000000000E+000        
  0.000000000000000E+000                                                        
   2.53000000000000       0.217051000000000      -0.118019000000000             
  0.000000000000000E+000  0.000000000000000E+000  0.000000000000000E+000        
  0.000000000000000E+000  0.000000000000000E+000  0.000000000000000E+000        
  0.000000000000000E+000                                                        
  0.735500000000000       1.589400000000000E-002  0.273806000000000             
   1.00000000000000       0.000000000000000E+000  0.000000000000000E+000        
  0.000000000000000E+000  0.000000000000000E+000  0.000000000000000E+000        
  0.000000000000000E+000                                                        
  0.290500000000000      -3.084000000000000E-003  0.586510000000000             
  0.000000000000000E+000   1.00000000000000       0.000000000000000E+000        
  0.000000000000000E+000  0.000000000000000E+000  0.000000000000000E+000        
  0.000000000000000E+000                                                        
  0.111100000000000       9.779999999999999E-004  0.285430000000000             
  0.000000000000000E+000  0.000000000000000E+000   1.00000000000000             
  0.000000000000000E+000  0.000000000000000E+000  0.000000000000000E+000        
  0.000000000000000E+000                                                        
   7.21600000000000       0.000000000000000E+000  0.000000000000000E+000        
  0.000000000000000E+000  0.000000000000000E+000  0.000000000000000E+000        
   1.00000000000000       0.000000000000000E+000  0.000000000000000E+000        
  0.000000000000000E+000                                                        
   19.5700000000000       0.000000000000000E+000  0.000000000000000E+000        
  0.000000000000000E+000  0.000000000000000E+000  0.000000000000000E+000        
  0.000000000000000E+000   1.00000000000000       0.000000000000000E+000        
  0.000000000000000E+000                                                        
   53.0730000000000       0.000000000000000E+000  0.000000000000000E+000        
  0.000000000000000E+000  0.000000000000000E+000  0.000000000000000E+000        
  0.000000000000000E+000  0.000000000000000E+000   1.00000000000000             
  0.000000000000000E+000                                                        
  4.145000000000000E-002  0.000000000000000E+000  0.000000000000000E+000        
  0.000000000000000E+000  0.000000000000000E+000  0.000000000000000E+000        
  0.000000000000000E+000  0.000000000000000E+000  0.000000000000000E+000        
   1.00000000000000                                                             
   10    8                                                                      
   34.5100000000000       5.378000000000000E-003  0.000000000000000E+000        
  0.000000000000000E+000  0.000000000000000E+000  0.000000000000000E+000        
  0.000000000000000E+000  0.000000000000000E+000  0.000000000000000E+000        
   7.91500000000000       3.613200000000000E-002  0.000000000000000E+000        
  0.000000000000000E+000  0.000000000000000E+000  0.000000000000000E+000        
  0.000000000000000E+000  0.000000000000000E+000  0.000000000000000E+000        
   2.36800000000000       0.142493000000000       0.000000000000000E+000        
  0.000000000000000E+000  0.000000000000000E+000  0.000000000000000E+000        
  0.000000000000000E+000  0.000000000000000E+000  0.000000000000000E+000        
  0.813200000000000       0.342150000000000        1.00000000000000             
  0.000000000000000E+000  0.000000000000000E+000  0.000000000000000E+000        
  0.000000000000000E+000  0.000000000000000E+000  0.000000000000000E+000        
  0.289000000000000       0.463864000000000       0.000000000000000E+000        
   1.00000000000000       0.000000000000000E+000  0.000000000000000E+000        
  0.000000000000000E+000  0.000000000000000E+000  0.000000000000000E+000        
  0.100700000000000       0.250028000000000       0.000000000000000E+000        
  0.000000000000000E+000   1.00000000000000       0.000000000000000E+000        
  0.000000000000000E+000  0.000000000000000E+000  0.000000000000000E+000        
   8.18200000000000       0.000000000000000E+000  0.000000000000000E+000        
  0.000000000000000E+000  0.000000000000000E+000   1.00000000000000             
  0.000000000000000E+000  0.000000000000000E+000  0.000000000000000E+000        
   24.1860000000000       0.000000000000000E+000  0.000000000000000E+000        
  0.000000000000000E+000  0.000000000000000E+000  0.000000000000000E+000        
   1.00000000000000       0.000000000000000E+000  0.000000000000000E+000        
   71.4940000000000       0.000000000000000E+000  0.000000000000000E+000        
  0.000000000000000E+000  0.000000000000000E+000  0.000000000000000E+000        
  0.000000000000000E+000   1.00000000000000       0.000000000000000E+000        
  3.218000000000000E-002  0.000000000000000E+000  0.000000000000000E+000        
  0.000000000000000E+000  0.000000000000000E+000  0.000000000000000E+000        
  0.000000000000000E+000  0.000000000000000E+000   1.00000000000000             
    6    6                                                                      
   1.84800000000000        1.00000000000000       0.000000000000000E+000        
  0.000000000000000E+000  0.000000000000000E+000  0.000000000000000E+000        
  0.000000000000000E+000                                                        
  0.649000000000000       0.000000000000000E+000   1.00000000000000             
  0.000000000000000E+000  0.000000000000000E+000  0.000000000000000E+000        
  0.000000000000000E+000                                                        
  0.228000000000000       0.000000000000000E+000  0.000000000000000E+000        
   1.00000000000000       0.000000000000000E+000  0.000000000000000E+000        
  0.000000000000000E+000                                                        
   8.65600000000000       0.000000000000000E+000  0.000000000000000E+000        
  0.000000000000000E+000   1.00000000000000       0.000000000000000E+000        
  0.000000000000000E+000                                                        
   33.2130000000000       0.000000000000000E+000  0.000000000000000E+000        
  0.000000000000000E+000  0.000000000000000E+000   1.00000000000000             
  0.000000000000000E+000                                                        
  7.660000000000000E-002  0.000000000000000E+000  0.000000000000000E+000        
  0.000000000000000E+000  0.000000000000000E+000  0.000000000000000E+000        
   1.00000000000000                                                             
    4    4                                                                      
   1.41900000000000        1.00000000000000       0.000000000000000E+000        
  0.000000000000000E+000  0.000000000000000E+000                                
  0.485000000000000       0.000000000000000E+000   1.00000000000000             
  0.000000000000000E+000  0.000000000000000E+000                                
   24.6940000000000       0.000000000000000E+000  0.000000000000000E+000        
   1.00000000000000       0.000000000000000E+000                                
  0.187000000000000       0.000000000000000E+000  0.000000000000000E+000        
  0.000000000000000E+000   1.00000000000000                                     
    2    2                                                                      
   1.01100000000000        1.00000000000000       0.000000000000000E+000        
  0.424000000000000       0.000000000000000E+000   1.00000000000000             
          8.00000000    1    5    1    1    1    1    1                         
O #2   0.000000000000000   0.000000000000000  -0.913916248771193                
   16    9                                                                      
   61420.0000000000       9.000000000000001E-005 -2.000000000000000E-005        
  0.000000000000000E+000  0.000000000000000E+000  0.000000000000000E+000        
  0.000000000000000E+000  0.000000000000000E+000  0.000000000000000E+000        
  0.000000000000000E+000                                                        
   9199.00000000000       6.980000000000001E-004 -1.590000000000000E-004        
  0.000000000000000E+000  0.000000000000000E+000  0.000000000000000E+000        
  0.000000000000000E+000  0.000000000000000E+000  0.000000000000000E+000        
  0.000000000000000E+000                                                        
   2091.00000000000       3.664000000000000E-003 -8.290000000000000E-004        
  0.000000000000000E+000  0.000000000000000E+000  0.000000000000000E+000        
  0.000000000000000E+000  0.000000000000000E+000  0.000000000000000E+000        
  0.000000000000000E+000                                                        
   590.900000000000       1.521800000000000E-002 -3.508000000000000E-003        
  0.000000000000000E+000  0.000000000000000E+000  0.000000000000000E+000        
  0.000000000000000E+000  0.000000000000000E+000  0.000000000000000E+000        
  0.000000000000000E+000                                                        
   192.300000000000       5.242300000000000E-002 -1.215600000000000E-002        
  0.000000000000000E+000  0.000000000000000E+000  0.000000000000000E+000        
  0.000000000000000E+000  0.000000000000000E+000  0.000000000000000E+000        
  0.000000000000000E+000                                                        
   69.3200000000000       0.145921000000000      -3.626100000000000E-002        
  0.000000000000000E+000  0.000000000000000E+000  0.000000000000000E+000        
  0.000000000000000E+000  0.000000000000000E+000  0.000000000000000E+000        
  0.000000000000000E+000                                                        
   26.9700000000000       0.305258000000000      -8.299200000000000E-002        
  0.000000000000000E+000  0.000000000000000E+000  0.000000000000000E+000        
  0.000000000000000E+000  0.000000000000000E+000  0.000000000000000E+000        
  0.000000000000000E+000                                                        
   11.1000000000000       0.398508000000000      -0.152090000000000             
  0.000000000000000E+000  0.000000000000000E+000  0.000000000000000E+000        
  0.000000000000000E+000  0.000000000000000E+000  0.000000000000000E+000        
  0.000000000000000E+000                                                        
   4.68200000000000       0.216980000000000      -0.115331000000000             
  0.000000000000000E+000  0.000000000000000E+000  0.000000000000000E+000        
  0.000000000000000E+000  0.000000000000000E+000  0.000000000000000E+000        
  0.000000000000000E+000                                                        
   1.42800000000000       1.759400000000000E-002  0.288979000000000             
   1.00000000000000       0.000000000000000E+000  0.000000000000000E+000        
  0.000000000000000E+000  0.000000000000000E+000  0.000000000000000E+000        
  0.000000000000000E+000                                                        
  0.554700000000000      -2.502000000000000E-003  0.586128000000000             
  0.000000000000000E+000   1.00000000000000       0.000000000000000E+000        
  0.000000000000000E+000  0.000000000000000E+000  0.000000000000000E+000        
  0.000000000000000E+000                                                        
  0.206700000000000       9.540000000000000E-004  0.277624000000000             
  0.000000000000000E+000  0.000000000000000E+000   1.00000000000000             
  0.000000000000000E+000  0.000000000000000E+000  0.000000000000000E+000        
  0.000000000000000E+000                                                        
   12.9740000000000       0.000000000000000E+000  0.000000000000000E+000        
  0.000000000000000E+000  0.000000000000000E+000  0.000000000000000E+000        
   1.00000000000000       0.000000000000000E+000  0.000000000000000E+000        
  0.000000000000000E+000                                                        
   34.9000000000000       0.000000000000000E+000  0.000000000000000E+000        
  0.000000000000000E+000  0.000000000000000E+000  0.000000000000000E+000        
  0.000000000000000E+000   1.00000000000000       0.000000000000000E+000        
  0.000000000000000E+000                                                        
   93.8810000000000       0.000000000000000E+000  0.000000000000000E+000        
  0.000000000000000E+000  0.000000000000000E+000  0.000000000000000E+000        
  0.000000000000000E+000  0.000000000000000E+000   1.00000000000000             
  0.000000000000000E+000                                                        
  6.959000000000000E-002  0.000000000000000E+000  0.000000000000000E+000        
  0.000000000000000E+000  0.000000000000000E+000  0.000000000000000E+000        
  0.000000000000000E+000  0.000000000000000E+000  0.000000000000000E+000        
   1.00000000000000                                                             
   10    8                                                                      
   63.4200000000000       6.044000000000000E-003  0.000000000000000E+000        
  0.000000000000000E+000  0.000000000000000E+000  0.000000000000000E+000        
  0.000000000000000E+000  0.000000000000000E+000  0.000000000000000E+000        
   14.6600000000000       4.179900000000000E-002  0.000000000000000E+000        
  0.000000000000000E+000  0.000000000000000E+000  0.000000000000000E+000        
  0.000000000000000E+000  0.000000000000000E+000  0.000000000000000E+000        
   4.45900000000000       0.161143000000000       0.000000000000000E+000        
  0.000000000000000E+000  0.000000000000000E+000  0.000000000000000E+000        
  0.000000000000000E+000  0.000000000000000E+000  0.000000000000000E+000        
   1.53100000000000       0.356731000000000        1.00000000000000             
  0.000000000000000E+000  0.000000000000000E+000  0.000000000000000E+000        
  0.000000000000000E+000  0.000000000000000E+000  0.000000000000000E+000        
  0.530200000000000       0.448309000000000       0.000000000000000E+000        
   1.00000000000000       0.000000000000000E+000  0.000000000000000E+000        
  0.000000000000000E+000  0.000000000000000E+000  0.000000000000000E+000        
  0.175000000000000       0.244940000000000       0.000000000000000E+000        
  0.000000000000000E+000   1.00000000000000       0.000000000000000E+000        
  0.000000000000000E+000  0.000000000000000E+000  0.000000000000000E+000        
   14.4750000000000       0.000000000000000E+000  0.000000000000000E+000        
  0.000000000000000E+000  0.000000000000000E+000   1.00000000000000             
  0.000000000000000E+000  0.000000000000000E+000  0.000000000000000E+000        
   42.7300000000000       0.000000000000000E+000  0.000000000000000E+000        
  0.000000000000000E+000  0.000000000000000E+000  0.000000000000000E+000        
   1.00000000000000       0.000000000000000E+000  0.000000000000000E+000        
   126.140000000000       0.000000000000000E+000  0.000000000000000E+000        
  0.000000000000000E+000  0.000000000000000E+000  0.000000000000000E+000        
  0.000000000000000E+000   1.00000000000000       0.000000000000000E+000        
  5.348000000000000E-002  0.000000000000000E+000  0.000000000000000E+000        
  0.000000000000000E+000  0.000000000000000E+000  0.000000000000000E+000        
  0.000000000000000E+000  0.000000000000000E+000   1.00000000000000             
    6    6                                                                      
   3.77500000000000        1.00000000000000       0.000000000000000E+000        
  0.000000000000000E+000  0.000000000000000E+000  0.000000000000000E+000        
  0.000000000000000E+000                                                        
   1.30000000000000       0.000000000000000E+000   1.00000000000000             
  0.000000000000000E+000  0.000000000000000E+000  0.000000000000000E+000        
  0.000000000000000E+000                                                        
  0.444000000000000       0.000000000000000E+000  0.000000000000000E+000        
   1.00000000000000       0.000000000000000E+000  0.000000000000000E+000        
  0.000000000000000E+000                                                        
   14.9270000000000       0.000000000000000E+000  0.000000000000000E+000        
  0.000000000000000E+000   1.00000000000000       0.000000000000000E+000        
  0.000000000000000E+000                                                        
   57.5440000000000       0.000000000000000E+000  0.000000000000000E+000        
  0.000000000000000E+000  0.000000000000000E+000   1.00000000000000             
  0.000000000000000E+000                                                        
  0.154000000000000       0.000000000000000E+000  0.000000000000000E+000        
  0.000000000000000E+000  0.000000000000000E+000  0.000000000000000E+000        
   1.00000000000000                                                             
    4    4                                                                      
   2.66600000000000        1.00000000000000       0.000000000000000E+000        
  0.000000000000000E+000  0.000000000000000E+000                                
  0.859000000000000       0.000000000000000E+000   1.00000000000000             
  0.000000000000000E+000  0.000000000000000E+000                                
   26.4830000000000       0.000000000000000E+000  0.000000000000000E+000        
   1.00000000000000       0.000000000000000E+000                                
  0.324000000000000       0.000000000000000E+000  0.000000000000000E+000        
  0.000000000000000E+000   1.00000000000000                                     
    2    2                                                                      
   1.84600000000000        1.00000000000000       0.000000000000000E+000        
  0.714000000000000       0.000000000000000E+000   1.00000000000000             
FINISH                                                                          
 
********************************************************************************
 ONE- AND TWO-ELECTRON INTEGRALS OVER SYMMETRY-ADAPTED AOS ARE CALCULATED.

  SPHERICAL HARMONICS ARE USED.
  
  INTEGRALS LESS THAN  0.10E-13 ARE NEGLECTED.

  NUCLEAR REPULSION ENERGY :   22.5131848438 A.U.
  @MOLECU-I, ONE ELECTRON INTEGRALS (CPU/WALL):        0.06/       0.06 SECONDS.
  @TWOEL-I,    4595968 INTEGRALS OF SYMMETRY TYPE  I I I I
  @TWOEL-I,   19727067 INTEGRALS OF SYMMETRY TYPE  I J I J
  @TWOEL-I,   10395446 INTEGRALS OF SYMMETRY TYPE  I I J J
  @TWOEL-I,   14595839 INTEGRALS OF SYMMETRY TYPE  I J K L
  @TWOEL-I, TOTAL NUMBER OF 2-E INTEGRALS   49314320.
  @MOLECU-I, TWO ELECTRON INTEGRALS (CPU/WALL):      179.57/      24.45 SECONDS.
 @CHECKOUT-I, Total execution time (CPU/WALL):      179.64/      24.53 seconds.

Running with 14 threads/proc

--executable xvmol finished with status     0 in       24.56 seconds (walltime).
 --invoking executable--
/nfs/workspaces/public/cfour_mpi/bin/xvmol2ja
 @GETMEM-I,  Allocated    3814 MB of main memory.
 @CHECKOUT-I, Total execution time (CPU/WALL):        0.13/       0.07 seconds.
--executable xvmol2ja finished with status     0 in        0.08 seconds (walltime).
 --invoking executable--
/nfs/workspaces/public/cfour_mpi/bin/xvprop
 @GETMEM-I,  Allocated    3814 MB of main memory.
   Property integrals will be calculated.
    --------------------------------------------------------------
                                   Property evaluated at 
    Property type                X             Y             Z
    --------------------------------------------------------------
    Dipole moment               ----          ----          ----  
    Quadrupole moment           ----          ----          ----  
    Octopole moment             ----          ----          ----  
    Relativisitic corr.         ----          ----          ----  
    Second moment            0.0000000     0.0000000     0.0000000
    Electron density         0.0000000     0.0000000     1.2181677
    Electron density         0.0000000     0.0000000    -0.9139162
    Field gradient           0.0000000     0.0000000     1.2181677
    Field gradient           0.0000000     0.0000000    -0.9139162
    Potential                0.0000000     0.0000000     1.2181677
    Potential                0.0000000     0.0000000    -0.9139162
    --------------------------------------------------------------
 @CHECKOUT-I, Total execution time (CPU/WALL):        1.37/       1.40 seconds.
--executable xvprop finished with status     0 in        1.41 seconds (walltime).
 --invoking executable--
/nfs/workspaces/public/cfour_mpi/bin/xvscf
  There are  218 functions in the AO basis.

  There are 4 irreducible representations.

       Irrep        # of functions
         1                 86
         2                 52
         3                 52
         4                 28


  Parameters for SCF calculation: 
        SCF reference function:  RHF  
  Maximum number of iterations:  150
     Full symmetry point group: CXv 
     Computational point group: C2v 
        Initial density matrix: MOREAD                 
     SCF convergence tolerance: 10**(-10)
  DIIS convergence acceleration:  ON
          Latest start for DIIS:   8
                     DIIS order:   6

  Memory information:    2523578 words required.
  Fock matrices are constructed from AO integral file.
 @GETMEM-I,  Allocated      19 MB of main memory.
  Initialization and symmetry analysis required      0.001 seconds.

  Adding electric field perturbation to one-electron Hamiltonian.
  Field direction     : Z
  Field strength      : -0.0002000 a.u.

  @INITGES-I, Occupancies from core Hamiltonian:

          Alpha population by irrep:   5    1    1    0
           Beta population by irrep:   5    1    1    0


 total no. of electrons in initial guess :  0.000000000000000E+000
  --------------------------------------------------------------------
  Iteration         Total Energy            Largest Density Difference
  --------------------------------------------------------------------
       0            22.513184379024398              0.0000000000D+00
   current occupation vector 
     5  1  1  0
     5  1  1  0
       1           -91.790998167636161              0.1871575313D+02
   current occupation vector 
     5  1  1  0
     5  1  1  0
       2           -96.469344692939856              0.2255664380D+02
   current occupation vector 
     5  1  1  0
     5  1  1  0
       3          -103.357689786815413              0.2254605060D+02
   current occupation vector 
     5  1  1  0
     5  1  1  0
       4          -100.410364062702300              0.7592347588D+01
   current occupation vector 
     5  1  1  0
     5  1  1  0
       5          -103.466755379670502              0.7397992458D+01
   current occupation vector 
     5  1  1  0
     5  1  1  0
       6          -100.524167432780203              0.5810247183D+01
   current occupation vector 
     5  1  1  0
     5  1  1  0
       7          -103.251360959547185              0.5595802923D+01
   current occupation vector 
     5  1  1  0
     5  1  1  0
       8          -100.269347868464237              0.5580564906D+01
   current occupation vector 
     5  1  1  0
     5  1  1  0
       9          -110.828116715763187              0.4182980518D+01
   current occupation vector 
     5  1  1  0
     5  1  1  0
      10          -112.305434768292756              0.9135448260D+00
   current occupation vector 
     5  1  1  0
     5  1  1  0
      11          -112.774848182475935              0.4957235208D+00
   current occupation vector 
     5  1  1  0
     5  1  1  0
      12          -112.788759469920009              0.1044824618D+00
   current occupation vector 
     5  1  1  0
     5  1  1  0
      13          -112.789176607657836              0.2303883952D-01
   current occupation vector 
     5  1  1  0
     5  1  1  0
      14          -112.789257273504560              0.1364869202D-01
   current occupation vector 
     5  1  1  0
     5  1  1  0
      15          -112.789260687215673              0.3688249659D-02
   current occupation vector 
     5  1  1  0
     5  1  1  0
      16          -112.789260725147201              0.3282131948D-03
   current occupation vector 
     5  1  1  0
     5  1  1  0
      17          -112.789260726082020              0.3626555397D-04
   current occupation vector 
     5  1  1  0
     5  1  1  0
      18          -112.789260726109333              0.6181690426D-05
   current occupation vector 
     5  1  1  0
     5  1  1  0
      19          -112.789260726110697              0.1179974842D-05
   current occupation vector 
     5  1  1  0
     5  1  1  0
      20          -112.789260726109703              0.2050319796D-06
   current occupation vector 
     5  1  1  0
     5  1  1  0
      21          -112.789260726110953              0.3334497456D-07
   current occupation vector 
     5  1  1  0
     5  1  1  0
      22          -112.789260726110811              0.8275131691D-08
   current occupation vector 
     5  1  1  0
     5  1  1  0
      23          -112.789260726110868              0.4708394341D-08
   current occupation vector 
     5  1  1  0
     5  1  1  0
      24          -112.789260726110328              0.1917526138D-09
   current occupation vector 
     5  1  1  0
     5  1  1  0
      25          -112.789260726109219              0.1027926216D-09
   current occupation vector 
     5  1  1  0
     5  1  1  0

  SCF has converged.

 Density matrix saved to file den.dat
 total electron number:   14.0000000000002     
     E(SCF)=      -112.789260726110697              0.6898481786D-10

  Eigenvector printing suppressed.

 @PUTMOS-I, Writing converged MOs to NEWMOS. 
 @PUTMOS-I, Symmetry   1 Full Blocks 21 Partial Blocksize   2
 @PUTMOS-I, Symmetry   2 Full Blocks 13 Partial Blocksize   0
 @PUTMOS-I, Symmetry   3 Full Blocks 13 Partial Blocksize   0
 @PUTMOS-I, Symmetry   4 Full Blocks  7 Partial Blocksize   0
 @PUTFOCK-I, Writing converged Fock matrix to NEWFOCK. 
 @PUTFOCK-I, Symmetry   1 Full Blocks 21 Partial Blocksize   2
 @PUTFOCK-I, Symmetry   2 Full Blocks 13 Partial Blocksize   0
 @PUTFOCK-I, Symmetry   3 Full Blocks 13 Partial Blocksize   0
 @PUTFOCK-I, Symmetry   4 Full Blocks  7 Partial Blocksize   0


 
  ORBITAL EIGENVALUES (ALPHA)  (1H = 27.2113834 eV)

       MO #        E(hartree)               E(eV)           FULLSYM    COMPSYM
       ----   --------------------   --------------------   -------   ---------
    1     1         -20.6653361433        -562.3323848854     SG+        A1 (1)
    2     2         -11.3604605166        -309.1338467183     SG+        A1 (1)
    3     3          -1.5217720257         -41.4095220387     SG+        A1 (1)
    4     4          -0.8046261701         -21.8949912092     SG+        A1 (1)
    5   139          -0.6403622020         -17.4251413938      PI        B2 (3)
    6    87          -0.6403622020         -17.4251413938      PI        B1 (2)
    7     5          -0.5551825375         -15.1072848852     SG+        A1 (1)
  +++++++++++++++++++++++++++++++++++++++++++++++++++++++++++++++++++++++++++++
    8     6           0.0605263414           1.6470054804     SG+        A1 (1)
    9   140           0.0623618306           1.6969516817      PI        B2 (3)
   10    88           0.0623618306           1.6969516817      PI        B1 (2)
   11     7           0.0736930286           2.0052892540     SG+        A1 (1)
   12   141           0.1411907653           3.8419960464      PI        B2 (3)
   13    89           0.1411907653           3.8419960464      PI        B1 (2)
   14     8           0.1566845613           4.2636036710     SG+        A1 (1)
   15   142           0.1669060155           4.5417435788      PI        B2 (3)
   16    90           0.1669060155           4.5417435788      PI        B1 (2)
   17     9           0.2276375986           6.1943339706      DE        A1 (1)
   18   191           0.2276375986           6.1943339706      DE        A2 (4)
   19    10           0.2281245306           6.2075840656     SG+        A1 (1)
   20    11           0.3009782043           8.1900333123     SG+        A1 (1)
   21   143           0.3202959157           8.7156949641      PI        B2 (3)
   22    91           0.3202959157           8.7156949641      PI        B1 (2)
   23    12           0.3912837416          10.6473719101     SG+        A1 (1)
   24   144           0.3958214542          10.7708493474      PI        B2 (3)
   25    92           0.3958214542          10.7708493474      PI        B1 (2)
   26    13           0.5086420170          13.8408529370     SG+        A1 (1)
   27   192           0.5347120175          14.5502537178      DE        A2 (4)
   28    14           0.5347120175          14.5502537178      DE        A1 (1)
   29   145           0.6234187133          16.9640856253      PI        B2 (3)
   30    93           0.6234187133          16.9640856253      PI        B1 (2)
   31    15           0.6452257691          17.5574857834     SG+        A1 (1)
   32    94           0.7485592625          20.3693330890      PH        B1 (2)
   33   146           0.7485592625          20.3693330890      PH        B2 (3)
   34    16           0.7683578712          20.9080806210      DE        A1 (1)
   35   193           0.7683578712          20.9080806210      DE        A2 (4)
   36    17           0.7799415510          21.2232885734     SG+        A1 (1)
   37   147           0.8230953272          22.3975625243      PI        B2 (3)
   38    95           0.8230953272          22.3975625244      PI        B1 (2)
   39    18           0.8722792644          23.7359254953     SG+        A1 (1)
   40   148           0.8810466273          23.9744975686      PI        B2 (3)
   41    96           0.8810466273          23.9744975687      PI        B1 (2)
   42    19           0.8909596933          24.2442458074      DE        A1 (1)
   43   194           0.8909596933          24.2442458074      DE        A2 (4)
   44    20           0.9102683352          24.7696606649     SG+        A1 (1)
   45   149           1.0766398848          29.2968606895      PI        B2 (3)
   46    97           1.0766398848          29.2968606895      PI        B1 (2)
   47    21           1.1957219949          32.5372496423     SG+        A1 (1)
   48   150           1.4476454508          39.3924353890      PH        B2 (3)
   49    98           1.4476454508          39.3924353890      PH        B1 (2)
   50    22           1.4742035081          40.1151168672     SG+        A1 (1)
   51   195           1.5177612010          41.3003819498      DE        A2 (4)
   52    23           1.5177612010          41.3003819498      DE        A1 (1)
   53   151           1.5538950696          42.2836345021      PI        B2 (3)
   54    99           1.5538950696          42.2836345021      PI        B1 (2)
   55    24           1.6675007122          45.3750011985     SG+        A1 (1)
   56    25           1.7690577240          48.1385079833      DE        A1 (1)
   57   196           1.7690577240          48.1385079834      DE        A2 (4)
   58    26           1.7707885729          48.1856067777     SG+        A1 (1)
   59   152           1.8056693849          49.1347619249      PI        B2 (3)
   60   100           1.8056693849          49.1347619249      PI        B1 (2)
   61   153           1.9685334342          53.5665180128      PI        B2 (3)
   62   101           1.9685334342          53.5665180129      PI        B1 (2)
   63   197           2.1054684844          57.2927101663      PI        A2 (4)
   64    27           2.1054684844          57.2927101663      PI        A1 (1)
   65    28           2.1352444255          58.1029547156     SG+        A1 (1)
   66    29           2.1958437086          59.7519450409      DE        A1 (1)
   67   198           2.1958437086          59.7519450409      DE        A2 (4)
   68   154           2.2517001224          61.2718753328      PH        B2 (3)
   69   102           2.2517001224          61.2718753328      PH        B1 (2)
   70    30           2.3154981545          63.0079080433     SG+        A1 (1)
   71   155           2.3247406365          63.2594087654      PI        B2 (3)
   72   103           2.3247406365          63.2594087654      PI        B1 (2)
   73   104           2.3630783526          64.3026310578      PH        B1 (2)
   74   156           2.3630783526          64.3026310578      PH        B2 (3)
   75    31           2.3642057547          64.3333092279      DE        A1 (1)
   76   199           2.3642057547          64.3333092279      DE        A2 (4)
   77    32           2.4865168846          67.6615642766     SG+        A1 (1)
   78   157           2.5979240686          70.6931078761      PI        B2 (3)
   79   105           2.5979240686          70.6931078761      PI        B1 (2)
   80   106           2.8322182206          77.0685758736      PI        B1 (2)
   81   158           2.8322182206          77.0685758736      PI        B2 (3)
   82    33           2.9426158455          80.0726479696     SG+        A1 (1)
   83    34           3.0093395014          81.8882909520      DE        A1 (1)
   84   200           3.0093395014          81.8882909522      DE        A2 (4)
   85    35           3.4750184357          94.5600589747     SG+        A1 (1)
   86    36           3.7237662323         101.3288306378      PI        A1 (1)
   87   201           3.7237662323         101.3288306378      PI        A2 (4)
   88   159           3.7508617753         102.0661378490      PI        B2 (3)
   89   107           3.7508617753         102.0661378491      PI        B1 (2)
   90    37           3.9473446023         107.4127073854     SG+        A1 (1)
   91   160           4.0827538104         111.0973792633      PH        B2 (3)
   92   108           4.0827538104         111.0973792633      PH        B1 (2)
   93    38           4.1766156012         113.6514884397      DE        A1 (1)
   94   202           4.1766156012         113.6514884397      DE        A2 (4)
   95   109           4.2106748636         114.5782880862      PI        B1 (2)
   96   161           4.2106748636         114.5782880862      PI        B2 (3)
   97    39           4.2723792744         116.2573504659     SG+        A1 (1)
   98   110           4.2841810973         116.5784943934      PH        B1 (2)
   99   162           4.2841810973         116.5784943934      PH        B2 (3)
  100    40           4.3818836685         119.2371165187      DE        A1 (1)
  101   203           4.3818836685         119.2371165187      DE        A2 (4)
  102    41           4.5353670605         123.4136119417     SG+        A1 (1)
  103   163           4.7637808359         129.6290667602      PI        B2 (3)
  104   111           4.7637808359         129.6290667603      PI        B1 (2)
  105    42           5.0137840537         136.4320001709     SG+        A1 (1)
  106   112           5.1305762670         139.6100778642      PI        B1 (2)
  107   164           5.1305762670         139.6100778642      PI        B2 (3)
  108    43           5.1523892738         140.2036399554      DE        A1 (1)
  109   204           5.1523892738         140.2036399554      DE        A2 (4)
  110   113           5.8164265805         158.2730136992      PI        B1 (2)
  111   165           5.8164265805         158.2730136993      PI        B2 (3)
  112    44           5.8538248584         159.2906725796     SG+        A1 (1)
  113   205           5.9009238481         160.5723012445      PI        A2 (4)
  114    45           5.9009238481         160.5723012445      PI        A1 (1)
  115   114           6.1363878475         166.9796024083      PH        B1 (2)
  116   166           6.1363878475         166.9796024083      PH        B2 (3)
  117    46           6.2324180718         169.5927176599     SG+        A1 (1)
  118    47           6.3056509884         171.5854866321      DE        A1 (1)
  119   206           6.3056509884         171.5854866321      DE        A2 (4)
  120   167           6.3283775144         172.2039068439      PI        B2 (3)
  121   115           6.3283775144         172.2039068439      PI        B1 (2)
  122   168           6.4434530899         175.3352724484      PH        B2 (3)
  123   116           6.4434530899         175.3352724484      PH        B1 (2)
  124   207           6.5906576044         179.3409109304      DE        A2 (4)
  125    48           6.5906576044         179.3409109305      DE        A1 (1)
  126    49           7.0559537247         192.0022620559     SG+        A1 (1)
  127   208           7.3512726679         200.0382990444      DE        A2 (4)
  128    50           7.3512726679         200.0382990444      DE        A1 (1)
  129   169           7.4940483410         203.9234226255      PI        B2 (3)
  130   117           7.4940483410         203.9234226255      PI        B1 (2)
  131    51           7.7956917841         212.1315580064     SG+        A1 (1)
  132    52           8.2567843902         224.6785256940     SG+        A1 (1)
  133   118           8.4904105140         231.0358157188      PI        B1 (2)
  134   170           8.4904105140         231.0358157189      PI        B2 (3)
  135   119          10.1226596905         275.4515738670      PI        B1 (2)
  136   171          10.1226596905         275.4515738672      PI        B2 (3)
  137    53          10.5211932203         286.2962225430     SG+        A1 (1)
  138    54          10.6018524771         288.4910725052      PI        A1 (1)
  139   209          10.6018524771         288.4910725052      PI        A2 (4)
  140   172          10.8826046486         296.1307274828      PH        B2 (3)
  141   120          10.8826046486         296.1307274828      PH        B1 (2)
  142    55          11.1356327047         303.0159709296      DE        A1 (1)
  143   210          11.1356327047         303.0159709296      DE        A2 (4)
  144    56          11.1576971305         303.6163744784     SG+        A1 (1)
  145   173          11.3739387926         309.5006092547      PI        B2 (3)
  146   121          11.3739387926         309.5006092547      PI        B1 (2)
  147    57          11.6241002926         316.3078497432     SG+        A1 (1)
  148   122          11.8549116100         322.5885449941      PH        B1 (2)
  149   174          11.8549116100         322.5885449941      PH        B2 (3)
  150   211          12.2931213240         334.5128375307      DE        A2 (4)
  151    58          12.2931213240         334.5128375308      DE        A1 (1)
  152   123          12.6475585161         344.1575638567      PI        B1 (2)
  153   175          12.6475585161         344.1575638567      PI        B2 (3)
  154    59          12.8787098479         350.4475113684      DE        A1 (1)
  155   212          12.8787098479         350.4475113684      DE        A2 (4)
  156    60          13.3187022513         362.4203133510     SG+        A1 (1)
  157   124          14.1878774432         386.0717727393      PI        B1 (2)
  158   176          14.1878774432         386.0717727393      PI        B2 (3)
  159    61          15.6008957160         424.5219547126     SG+        A1 (1)
  160    62          18.0447564362         491.0227857455     SG+        A1 (1)
  161   125          19.4159553429         528.3350049140      PI        B1 (2)
  162   177          19.4159553429         528.3350049143      PI        B2 (3)
  163    63          20.6806602726         562.7493756431     SG+        A1 (1)
  164   213          26.5391136050         722.1659954021      DE        A2 (4)
  165    64          26.5391136050         722.1659954022      DE        A1 (1)
  166   178          27.0290860521         735.4988235146      PI        B2 (3)
  167   126          27.0290860521         735.4988235146      PI        B1 (2)
  168    65          28.2466903500         768.6315208958     SG+        A1 (1)
  169   127          33.7975671510         919.6785577330      PI        B1 (2)
  170   179          33.7975671510         919.6785577340      PI        B2 (3)
  171    66          35.0153552873         952.8162576096     SG+        A1 (1)
  172    67          36.8473298313        1002.6668193050     SG+        A1 (1)
  173    68          47.1235103641        1282.2959076716      DE        A1 (1)
  174   214          47.1235103641        1282.2959076717      DE        A2 (4)
  175   128          47.7277737142        1298.7387493656      PI        B1 (2)
  176   180          47.7277737142        1298.7387493656      PI        B2 (3)
  177    69          48.5921527586        1322.2596989445     SG+        A1 (1)
  178    70          64.2380198682        1748.0053874913     SG+        A1 (1)
  179   129          66.8591597203        1819.3302289509      PI        B1 (2)
  180   181          66.8591597203        1819.3302289511      PI        B2 (3)
  181    71          67.8348882353        1845.8811516682     SG+        A1 (1)
  182   130          98.6769379913        2685.1359924192      PH        B1 (2)
  183   182          98.6769379913        2685.1359924192      PH        B2 (3)
  184    72          98.6998640309        2685.7598416719      DE        A1 (1)
  185   215          98.6998640309        2685.7598416719      DE        A2 (4)
  186   131          98.7690942408        2687.6436914575      PI        B1 (2)
  187   183          98.7690942408        2687.6436914576      PI        B2 (3)
  188    73          98.7803841563        2687.9509056770     SG+        A1 (1)
  189   184         103.2841907295        2810.5057130989      PH        B2 (3)
  190   132         103.2841907295        2810.5057130989      PH        B1 (2)
  191    74         103.3352017541        2811.8937936458      DE        A1 (1)
  192   216         103.3352017541        2811.8937936464      DE        A2 (4)
  193   133         103.3628706758        2812.6467032828      PI        B1 (2)
  194   185         103.3628706758        2812.6467032828      PI        B2 (3)
  195    75         103.4260109475        2814.3648374259     SG+        A1 (1)
  196    76         115.1912743820        3134.5139315441      DE        A1 (1)
  197   217         115.1912743820        3134.5139315441      DE        A2 (4)
  198   186         115.4303861969        3141.0204948143      PI        B2 (3)
  199   134         115.4303861969        3141.0204948143      PI        B1 (2)
  200    77         116.0482759681        3157.8341302776     SG+        A1 (1)
  201   135         117.0460103163        3184.9838621571      PI        B1 (2)
  202   187         117.0460103163        3184.9838621580      PI        B2 (3)
  203    78         118.0848107602        3213.2510593131     SG+        A1 (1)
  204    79         122.9347002819        3345.2232625359     SG+        A1 (1)
  205    80         198.5800858890        5403.6388527315      DE        A1 (1)
  206   218         198.5800858890        5403.6388527316      DE        A2 (4)
  207   188         198.9076129447        5412.5513170170      PI        B2 (3)
  208   136         198.9076129447        5412.5513170171      PI        B1 (2)
  209    81         199.3408618400        5424.3406188152     SG+        A1 (1)
  210    82         216.7154543768        5897.1273177514     SG+        A1 (1)
  211   137         225.2708255842        6129.9308038061      PI        B1 (2)
  212   189         225.2708255842        6129.9308038063      PI        B2 (3)
  213    83         226.0694959387        6151.6637290328     SG+        A1 (1)
  214   138         395.5040358547       10762.2119558901      PI        B1 (2)
  215   190         395.5040358547       10762.2119558907      PI        B2 (3)
  216    84         396.3603259857       10785.5127949447     SG+        A1 (1)
  217    85         509.4650972961       13863.2500914422     SG+        A1 (1)
  218    86         895.5469228654       24369.0706707801     SG+        A1 (1)


  VSCF finished.

 @CHECKOUT-I, Total execution time (CPU/WALL):       46.24/       9.14 seconds.
--executable xvscf finished with status     0 in        9.16 seconds (walltime).
 --invoking executable--
/nfs/workspaces/public/cfour_mpi/bin/xvtran
 @GETMEM-I,  Allocated    3814 MB of main memory.
  Full RHF integral transformation
  Transformation of IIII integrals :
  1 pass through the AO integral file was required.
     4595968 AO integrals were read.
     8820520 MO integrals were written to HF2.
  Transformation of IIJJ integrals :
  1 pass through the AO integral file was required.
    10395446 AO integrals were read.
    14634345 MO integrals were written to HF2.
  Transformation of IJIJ integrals :
  1 pass through the AO integral file was required.
    19727067 AO integrals were read.
    27518692 MO integrals were written to HF2.
  Transformation of IJKL integrals :
  1 pass through the AO integral file was required.
    14595839 AO integrals were read.
    18583475 MO integrals were written to HF2.
  Summary of active molecular orbitals: 
------------------------------------------------------------------------
 
  Index      Eigenvalue    Symmetry    Index      Eigenvalue    Symmetry
------------------------------------------------------------------------
     1       -20.6653361        1       110         4.2106749        2
     2       -11.3604605        1       111         4.2841811        2
     3        -1.5217720        1       112         4.7637808        2
     4        -0.8046262        1       113         5.1305763        2
     5        -0.5551825        1       114         5.8164266        2
     6        -0.6403622        2       115         6.1363878        2
     7        -0.6403622        3       116         6.3283775        2
     8         0.0605263        1       117         6.4434531        2
     9         0.0736930        1       118         7.4940483        2
    10         0.1566846        1       119         8.4904105        2
    11         0.2276376        1       120        10.1226597        2
    12         0.2281245        1       121        10.8826046        2
    13         0.3009782        1       122        11.3739388        2
    14         0.3912837        1       123        11.8549116        2
    15         0.5086420        1       124        12.6475585        2
    16         0.5347120        1       125        14.1878774        2
    17         0.6452258        1       126        19.4159553        2
    18         0.7683579        1       127        27.0290861        2
    19         0.7799416        1       128        33.7975672        2
    20         0.8722793        1       129        47.7277737        2
    21         0.8909597        1       130        66.8591597        2
    22         0.9102683        1       131        98.6769380        2
    23         1.1957220        1       132        98.7690942        2
    24         1.4742035        1       133       103.2841907        2
    25         1.5177612        1       134       103.3628707        2
    26         1.6675007        1       135       115.4303862        2
    27         1.7690577        1       136       117.0460103        2
    28         1.7707886        1       137       198.9076129        2
    29         2.1054685        1       138       225.2708256        2
    30         2.1352444        1       139       395.5040359        2
    31         2.1958437        1       140         0.0623618        3
    32         2.3154982        1       141         0.1411908        3
    33         2.3642058        1       142         0.1669060        3
    34         2.4865169        1       143         0.3202959        3
    35         2.9426158        1       144         0.3958215        3
    36         3.0093395        1       145         0.6234187        3
    37         3.4750184        1       146         0.7485593        3
    38         3.7237662        1       147         0.8230953        3
    39         3.9473446        1       148         0.8810466        3
    40         4.1766156        1       149         1.0766399        3
    41         4.2723793        1       150         1.4476455        3
    42         4.3818837        1       151         1.5538951        3
    43         4.5353671        1       152         1.8056694        3
    44         5.0137841        1       153         1.9685334        3
    45         5.1523893        1       154         2.2517001        3
    46         5.8538249        1       155         2.3247406        3
    47         5.9009238        1       156         2.3630784        3
    48         6.2324181        1       157         2.5979241        3
    49         6.3056510        1       158         2.8322182        3
    50         6.5906576        1       159         3.7508618        3
    51         7.0559537        1       160         4.0827538        3
    52         7.3512727        1       161         4.2106749        3
    53         7.7956918        1       162         4.2841811        3
    54         8.2567844        1       163         4.7637808        3
    55        10.5211932        1       164         5.1305763        3
    56        10.6018525        1       165         5.8164266        3
    57        11.1356327        1       166         6.1363878        3
    58        11.1576971        1       167         6.3283775        3
    59        11.6241003        1       168         6.4434531        3
    60        12.2931213        1       169         7.4940483        3
    61        12.8787098        1       170         8.4904105        3
    62        13.3187023        1       171        10.1226597        3
    63        15.6008957        1       172        10.8826046        3
    64        18.0447564        1       173        11.3739388        3
    65        20.6806603        1       174        11.8549116        3
    66        26.5391136        1       175        12.6475585        3
    67        28.2466904        1       176        14.1878774        3
    68        35.0153553        1       177        19.4159553        3
    69        36.8473298        1       178        27.0290861        3
    70        47.1235104        1       179        33.7975672        3
    71        48.5921528        1       180        47.7277737        3
    72        64.2380199        1       181        66.8591597        3
    73        67.8348882        1       182        98.6769380        3
    74        98.6998640        1       183        98.7690942        3
    75        98.7803842        1       184       103.2841907        3
    76       103.3352018        1       185       103.3628707        3
    77       103.4260109        1       186       115.4303862        3
    78       115.1912744        1       187       117.0460103        3
    79       116.0482760        1       188       198.9076129        3
    80       118.0848108        1       189       225.2708256        3
    81       122.9347003        1       190       395.5040359        3
    82       198.5800859        1       191         0.2276376        4
    83       199.3408618        1       192         0.5347120        4
    84       216.7154544        1       193         0.7683579        4
    85       226.0694959        1       194         0.8909597        4
    86       396.3603260        1       195         1.5177612        4
    87       509.4650973        1       196         1.7690577        4
    88       895.5469229        1       197         2.1054685        4
    89         0.0623618        2       198         2.1958437        4
    90         0.1411908        2       199         2.3642058        4
    91         0.1669060        2       200         3.0093395        4
    92         0.3202959        2       201         3.7237662        4
    93         0.3958215        2       202         4.1766156        4
    94         0.6234187        2       203         4.3818837        4
    95         0.7485593        2       204         5.1523893        4
    96         0.8230953        2       205         5.9009238        4
    97         0.8810466        2       206         6.3056510        4
    98         1.0766399        2       207         6.5906576        4
    99         1.4476455        2       208         7.3512727        4
   100         1.5538951        2       209        10.6018525        4
   101         1.8056694        2       210        11.1356327        4
   102         1.9685334        2       211        12.2931213        4
   103         2.2517001        2       212        12.8787098        4
   104         2.3247406        2       213        26.5391136        4
   105         2.3630784        2       214        47.1235104        4
   106         2.5979241        2       215        98.6998640        4
   107         2.8322182        2       216       103.3352018        4
   108         3.7508618        2       217       115.1912744        4
   109         4.0827538        2       218       198.5800859        4
------------------------------------------------------------------------
  -20.6653361433051       -11.3604605166189       -1.52177202569769     
 -0.804626170133939      -0.555182537512657      -0.640362202013050     
 -0.640362202013058       6.052634135480071E-002  7.369302855790409E-002
  0.156684561321201       0.227637598556690       0.228124530618797     
  0.300978204300014       0.391283741570728       0.508642016966852     
  0.534712017536406       0.645225769132766       0.768357871175862     
  0.779941550983318       0.872279264392373       0.890959693264055     
  0.910268335158516        1.19572199487159        1.47420350805172     
   1.51776120098912        1.66750071216646        1.76905772395546     
   1.77078857290479        2.10546848442422        2.13524442552135     
   2.19584370858834        2.31549815446975        2.36420575471095     
   2.48651688457042        2.94261584545708        3.00933950135111     
   3.47501843565696        3.72376623225195        3.94734460231231     
   4.17661560123586        4.27237927439961        4.38188366853488     
   4.53536706045167        5.01378405373272        5.15238927379882     
   5.85382485844374        5.90092384808864        6.23241807176657     
   6.30565098840501        6.59065760436454        7.05595372471586     
   7.35127266791028        7.79569178413904        8.25678439024274     
   10.5211932202974        10.6018524771216        11.1356327047159     
   11.1576971304743        11.6241002926452        12.2931213240247     
   12.8787098478928        13.3187022513159        15.6008957160422     
   18.0447564362146        20.6806602726085        26.5391136050160     
   28.2466903500331        35.0153552872858        36.8473298312718     
   47.1235103641078        48.5921527585599        64.2380198682332     
   67.8348882353465        98.6998640308705        98.7803841563238     
[...]
 Convergence information after     9 iterations: 
 Largest element of residual vector :  0.88244565E-05.
 Largest element of DIIS residual   :  0.47427439E-05.
 Convergence information after    10 iterations: 
 Largest element of residual vector :  0.50670769E-05.
 Largest element of DIIS residual   :  0.33971660E-05.
 Convergence information after    11 iterations: 
 Largest element of residual vector :  0.19520621E-05.
 Largest element of DIIS residual   :  0.73673177E-06.
 Convergence information after    12 iterations: 
 Largest element of residual vector :  0.79900420E-06.
 Largest element of DIIS residual   :  0.40534172E-06.
 Convergence information after    13 iterations: 
 Largest element of residual vector :  0.30582646E-06.
 Largest element of DIIS residual   :  0.21934805E-06.
 Convergence information after    14 iterations: 
 Largest element of residual vector :  0.16931904E-06.
 Largest element of DIIS residual   :  0.90052137E-07.
 Perturbed amplitude equations converged in    14 iterations.
  Dominant contributions to perturbed wavefunction:
    7    7  141   28   0.2148219661 ABAB
    7    7   28  141   0.2148219661 ABAB
    7    7  141   37   0.2022615584 ABAB
    7    7   37  141   0.2022615584 ABAB
    7    7  141   55   0.1790949952 ABAB
    7    7   55  141   0.1790949952 ABAB
    7    7  142   28   0.1594735847 ABAB
    7    7   28  142   0.1594735847 ABAB
    7    7  142   37   0.1480498773 ABAB
    7    7   37  142   0.1480498773 ABAB
    5    5  141   44   0.1458196350 ABAB
    5    5   44  141   0.1458196350 ABAB
    7    7  141   53  -0.1424164643 ABAB
    7    7   53  141  -0.1424164643 ABAB
    7    6   28   90   0.1413125548 ABAB
    6    7   90   28   0.1413125548 ABAB
    7    7  141   44   0.1395776509 ABAB
    7    7   44  141   0.1395776509 ABAB
    7    7  141   63   0.1361828836 ABAB
    7    7   63  141   0.1361828836 ABAB
  norm of converged amps    2.45055258403128     
 Starting iterative solution of the perturbed Lambda equations.
 The DIIS procedure is used to accelerate convergence.
 Convergence criterion is 10**(-7).
 Maximum number of iterations is 100.
 Convergence information after     1 iterations: 
 Largest element of residual vector : -0.67913292E-01.
 Largest element of DIIS residual   : -0.67913292E-01.
 Convergence information after     2 iterations: 
 Largest element of residual vector :  0.75650584E-02.
 Largest element of DIIS residual   :  0.51563395E-02.
 Convergence information after     3 iterations: 
 Largest element of residual vector : -0.43974843E-02.
 Largest element of DIIS residual   : -0.38203895E-02.
 Convergence information after     4 iterations: 
 Largest element of residual vector : -0.27179745E-02.
 Largest element of DIIS residual   : -0.21462983E-02.
 Convergence information after     5 iterations: 
 Largest element of residual vector : -0.15869941E-02.
 Largest element of DIIS residual   : -0.73540343E-03.
 Convergence information after     6 iterations: 
 Largest element of residual vector : -0.51494165E-03.
 Largest element of DIIS residual   :  0.12064098E-03.
 Convergence information after     7 iterations: 
 Largest element of residual vector : -0.99149934E-04.
 Largest element of DIIS residual   : -0.45297293E-04.
 Convergence information after     8 iterations: 
 Largest element of residual vector : -0.20210073E-04.
 Largest element of DIIS residual   :  0.19354193E-04.
 Convergence information after     9 iterations: 
 Largest element of residual vector :  0.72558692E-05.
 Largest element of DIIS residual   : -0.40639935E-05.
 Convergence information after    10 iterations: 
 Largest element of residual vector :  0.40977770E-05.
 Largest element of DIIS residual   :  0.28973574E-05.
 Convergence information after    11 iterations: 
 Largest element of residual vector :  0.15426516E-05.
 Largest element of DIIS residual   :  0.69341116E-06.
 Convergence information after    12 iterations: 
 Largest element of residual vector :  0.71422965E-06.
 Largest element of DIIS residual   :  0.47655496E-06.
 Convergence information after    13 iterations: 
 Largest element of residual vector :  0.35237765E-06.
 Largest element of DIIS residual   :  0.27621915E-06.
 Convergence information after    14 iterations: 
 Largest element of residual vector :  0.21055617E-06.
 Largest element of DIIS residual   :  0.10856293E-06.
 Convergence information after    15 iterations: 
 Largest element of residual vector :  0.75688100E-07.
 Largest element of DIIS residual   :  0.34524613E-07.
 Perturbed Lambda equations converged in    15 iterations.
  Dominant contributions to perturbed wavefunction:
    7    7  141   28   0.2024759721 ABAB
    7    7   28  141   0.2024759721 ABAB
    7    7  141   37   0.1916407009 ABAB
    7    7   37  141   0.1916407009 ABAB
    7    7  141   55   0.1673965448 ABAB
    7    7   55  141   0.1673965448 ABAB
    7    7  142   28   0.1520100992 ABAB
    7    7   28  142   0.1520100992 ABAB
    7    7  142   37   0.1417238780 ABAB
    7    7   37  142   0.1417238780 ABAB
    5    5  141   44   0.1399020172 ABAB
    5    5   44  141   0.1399020172 ABAB
    7    7  141   53  -0.1339959743 ABAB
    7    7   53  141  -0.1339959743 ABAB
    7    6   28   90   0.1312897526 ABAB
    6    7   90   28   0.1312897526 ABAB
    7    7  141   44   0.1290527614 ABAB
    7    7   44  141   0.1290527614 ABAB
    7    7  141   63   0.1288438080 ABAB
    7    7   63  141   0.1288438080 ABAB
        The DBOC first-order density matrix is being calculated 
             (Symmetry block 3, perturbation   2)
 term   7.04118334296307     
 final tnorm  0.887444081208245     
  norm contr. I: |<0|L dT/dx|0>|^2   0.000000000000000E+000
  norm contr. II: <0|[nabla(1+L)e-T][nabla e^T]|0>   7.04118334296307     
  total norm contribution   7.04118334296307     
 oo  1.194256151139793E-002
 vv  -52.8677903553065     
 vo  3.967705823847206E-002
  Correlated perturbed 1-el contribution to DBOC  -52.8161707355566       cm**-1
  SUM_I |dc_I/dx|^2 contribution to DBOC   26.5080105788164       cm**-1
 
 
  The total diagonal Born-Oppenheimer correction (DBOC) is:      0.0041430422 a.u.
  The total diagonal Born-Oppenheimer correction (DBOC) is:        909.292656 cm-1
 
 Total CC energy including DBOC  -113.281633807853     
 First-order density matrix is being calculated  (Symmetry block 3, perturbation   2)
 Calculation of the contributions of <pq||rs> to dI(i,j)/dx required   1.9 seconds.
 Calculation of the contributions of <pq||rs> to dI(a,b)/dx required  15.8 seconds.
 Calculation of the contributions of <pq||rs> to dI(i,a)/dx required   9.7 seconds.
 First-order Z-vector equations are solved for 1 perturbation.
 Convergence reached after  18 iterations.
        U*G(pq,rs) contribution is being calculated
             (Symmetry block 3, perturbation   2)

 CCSD contribution to force constants 

        0.0000000000        0.0000000000        0.0000000000
        0.0000000000        0.0000000000        0.0000000000
        0.0000000000        0.0000000000        0.0000000000
        0.0000000000        0.0000000000        0.0000000000
        0.0000000000        0.0000000000        0.0000000000
        0.0000000000        0.0000000000        0.0000000000
        0.0000000000        0.0000000000        0.0000000000
        0.0000000000        0.0000000000        0.0000000000
        0.0000000000        0.0000000000        0.0000000000
        0.0000000000        0.0000000000        0.0000000000
        0.0000000000        0.0000000000        0.0000000000
        0.0000000000       -1.8999931270        1.8999931270

 CCSD contribution to dipole derivatives 

        0.0000000000        0.0000000000        0.0000000000
        0.0000000000        0.0000000000        0.0000000000
        0.0000000000        0.0000000000        0.0000000000
        0.0000000000        0.0000000000       -0.0444364163
        0.0000000000        0.0000000000        0.0000000000
        0.0000000000        0.0000000000        0.0000000000
 @CHECKOUT-I, Total execution time (CPU/WALL):     1019.27/     265.82 seconds.
--executable xsdcc finished with status     0 in      265.85 seconds (walltime).
 --invoking executable--
/nfs/workspaces/public/cfour_mpi/bin/xanti
 @GETMEM-I,  Allocated    3814 MB of main memory.
 CCSD MO derivative gammas will be sorted to Mulliken order.
 @CHECKOUT-I, Total execution time (CPU/WALL):       10.81/      24.24 seconds.
--executable xanti finished with status     0 in       24.26 seconds (walltime).
 --invoking executable--
/nfs/workspaces/public/cfour_mpi/bin/xbcktrn
 @GETMEM-I,  Allocated    3814 MB of main memory.
 CCSD MO derivative gammas will be transformed to the AO basis.
 @CHECKOUT-I, Total execution time (CPU/WALL):       20.64/       4.64 seconds.
--executable xbcktrn finished with status     0 in        4.67 seconds (walltime).
 --invoking executable--
/nfs/workspaces/public/cfour_mpi/bin/xvdint
 @GETMEM-I,  Allocated    3814 MB of main memory.
 One- and two-electron integral derivatives are calculated
 for RHF-CC/MBPT hessians and dipole derivatives.
 Spherical gaussians are used.
  magnet F F
                    8722  records have been written to the Sort file.
  Total length of Sort file :             178609116  words.
 Evaluation of 2el integral derivatives

                      Two-electron integral gradient
                      ------------------------------

                         C #1 z     0.0000000000
                         O #2 z     0.0000000000


 C #1       0.0000000000           -0.6515223043            0.0000000000
 O #2       0.0000000000            0.6515223043            0.0000000000


 Evaluation of 2e integral derivatives required  315.22 seconds.
  contribution to Hessian
        0.0000000000        0.0000000000        0.0000000000
        0.0000000000       -0.6515223043        0.6515223043
 @CHECKOUT-I, Total execution time (CPU/WALL):      315.21/      66.41 seconds.
--executable xvdint finished with status     0 in       66.43 seconds (walltime).
 --invoking executable--
/nfs/workspaces/public/cfour_mpi/bin/xanti
 @GETMEM-I,  Allocated    3814 MB of main memory.
 CCSD MO gammas will be sorted to Mulliken order.
 @CHECKOUT-I, Total execution time (CPU/WALL):       10.99/       9.63 seconds.
--executable xanti finished with status     0 in        9.65 seconds (walltime).
 --invoking executable--
/nfs/workspaces/public/cfour_mpi/bin/xbcktrn
 @GETMEM-I,  Allocated    3814 MB of main memory.
 CCSD MO gammas will be transformed to the AO basis.
 @CHECKOUT-I, Total execution time (CPU/WALL):       26.27/       4.77 seconds.
--executable xbcktrn finished with status     0 in        4.80 seconds (walltime).
 --invoking executable--
/nfs/workspaces/public/cfour_mpi/bin/xvdint
 @GETMEM-I,  Allocated    3814 MB of main memory.
 One- and two-electron integral derivatives are calculated
 for RHF-CC/MBPT hessians and dipole derivatives.
 Spherical gaussians are used.
  magnet F F

                     Kinetic energy integral gradient
                     --------------------------------

                         C #1 z    -1.5071174275
                         O #2 z     1.5071174275


 C #1       0.0000000000            0.0000000000           -1.5071174275
 O #2       0.0000000000            0.0000000000            1.5071174275



                   Nuclear attraction integral gradient
                   ------------------------------------

                         C #1 z    23.6892021938
                         O #2 z   -23.6892021938


 C #1       0.0000000000            0.0000000000           23.6892021938
 O #2       0.0000000000            0.0000000000          -23.6892021938



                      Reorthonormalization gradient
                      -----------------------------

                         C #1 z     0.0000000000
                         O #2 z     0.0000000000


 C #1       0.0000000000            0.0000000000            0.0000000000
 O #2       0.0000000000            0.0000000000            0.0000000000



                     Kinetic energy integral Hessian
                     -------------------------------


           Symmetry 1

           C #1 z      O #2 z

 C #1 z    1.093721
 O #2 z   -1.093721    1.093721


           Symmetry 2

           C #1 x      O #2 x

 C #1 x   -2.007761
 O #2 x    2.007761   -2.007761


           Symmetry 3

           C #1 y      O #2 y

 C #1 y   -2.007761
 O #2 y    2.007761   -2.007761




           C #1 x      C #1 y      C #1 z      O #2 x      O #2 y      O #2 z

 C #1 x   -2.007761
 C #1 y    0.000000   -2.007761
 C #1 z    0.000000    0.000000    1.093721

 O #2 x    2.007761    0.000000    0.000000   -2.007761
 O #2 y    0.000000    2.007761    0.000000    0.000000   -2.007761
 O #2 z    0.000000    0.000000   -1.093721    0.000000    0.000000    1.093721




                   Nuclear attraction integral Hessian
                   -----------------------------------


           Symmetry 1

           C #1 z      O #2 z

 C #1 z  -13.324849
 O #2 z   13.324849  -13.324849


           Symmetry 2

           C #1 x      O #2 x

 C #1 x   21.245604
 O #2 x  -21.245604   21.245604


           Symmetry 3

           C #1 y      O #2 y

 C #1 y   21.245604
 O #2 y  -21.245604   21.245604




           C #1 x      C #1 y      C #1 z      O #2 x      O #2 y      O #2 z

 C #1 x   21.245604
 C #1 y    0.000000   21.245604
 C #1 z    0.000000    0.000000  -13.324849

 O #2 x  -21.245604    0.000000    0.000000   21.245604
 O #2 y    0.000000  -21.245604    0.000000    0.000000   21.245604
 O #2 z    0.000000    0.000000   13.324849    0.000000    0.000000  -13.324849




                Highest order reorthonormalization Hessian
                ------------------------------------------


           Symmetry 1

           C #1 z      O #2 z

 C #1 z    0.000000
 O #2 z    0.000000    0.000000


           Symmetry 2

           C #1 x      O #2 x

 C #1 x    0.000000
 O #2 x    0.000000    0.000000


           Symmetry 3

           C #1 y      O #2 y

 C #1 y    0.000000
 O #2 y    0.000000    0.000000




           C #1 x      C #1 y      C #1 z      O #2 x      O #2 y      O #2 z




                Electronic contributions to dipole moment
                -----------------------------------------

                               au             Debye

                    z     -0.05101546     -0.12966838

  Conversion factor used: 1 a.u. =   2.54174691 Debye 



   Electronic contributions to static part of dipole moment derivatives
   --------------------------------------------------------------------


                     Total dipole moment derivatives
                     -------------------------------


           Symmetry 1
                              Ez

               C #1 z    -5.73683346
               O #2 z    -8.26316654

           Symmetry 2
                              Ex

               C #1 x    -5.79898589
               O #2 x    -8.20101411

           Symmetry 3
                              Ey

               C #1 y    -5.79898589
               O #2 y    -8.20101411



                       Ex          Ey          Ez

      C #1    x   -5.798986    0.000000    0.000000
      C #1    y    0.000000   -5.798986    0.000000
      C #1    z    0.000000    0.000000   -5.736833

      O #2    x   -8.201014    0.000000    0.000000
      O #2    y    0.000000   -8.201014    0.000000
      O #2    z    0.000000    0.000000   -8.263167

 Evaluation of 1e integral derivatives required    1.69 seconds.
                    8815  records have been written to the Sort file.
  Total length of Sort file :             180513570  words.
 Evaluation of 2el integral derivatives

                      Two-electron integral gradient
                      ------------------------------

                         C #1 z   -11.1743538532
                         O #2 z    11.1743538532


 C #1       0.0000000000            0.0000000000          -11.1743538532
 O #2       0.0000000000            0.0000000000           11.1743538532


 Evaluation of 2e integral derivatives required  697.49 seconds.

                            Molecular gradient
                            ------------------

                         C #1 z     0.4484915004
                         O #2 z    -0.4484915004


 C #1       0.0000000000            0.0000000000            0.4484915004
 O #2       0.0000000000            0.0000000000           -0.4484915004


  Molecular gradient norm 0.634E+00

                            Molecular hessian
                            -----------------


           Symmetry 1

           C #1 z      O #2 z

 C #1 z   66.005637
 O #2 z  -66.005637   66.005637


           Symmetry 2

           C #1 x      O #2 x

 C #1 x    2.643272
 O #2 x   -2.643272    2.643272


           Symmetry 3

           C #1 y      O #2 y

 C #1 y    2.643272
 O #2 y   -2.643272    2.643272




           C #1 x      C #1 y      C #1 z      O #2 x      O #2 y      O #2 z

 C #1 x    2.643272
 C #1 y    0.000000    2.643272
 C #1 z    0.000000    0.000000   66.005637

 O #2 x   -2.643272    0.000000    0.000000    2.643272
 O #2 y    0.000000   -2.643272    0.000000    0.000000    2.643272
 O #2 z    0.000000    0.000000  -66.005637    0.000000    0.000000   66.005637




                           Total dipole moment
                           -------------------

                               au             Debye

                    z     -0.05333926     -0.13557489

  Conversion factor used: 1 a.u. =   2.54174691 Debye 



                     Total dipole moment derivatives
                     -------------------------------


           Symmetry 1
                              Ez

               C #1 z     0.71229702
               O #2 z    -0.71229702

           Symmetry 2
                              Ex

               C #1 x    -0.02581657
               O #2 x     0.02581657

           Symmetry 3
                              Ey

               C #1 y    -0.02581657
               O #2 y     0.02581657



                       Ex          Ey          Ez

      C #1    x   -0.025817    0.000000    0.000000
      C #1    y    0.000000   -0.025817    0.000000
      C #1    z    0.000000    0.000000    0.712297

      O #2    x    0.025817    0.000000    0.000000
      O #2    y    0.000000    0.025817    0.000000
      O #2    z    0.000000    0.000000   -0.712297

 @CHECKOUT-I, Total execution time (CPU/WALL):      699.17/     116.79 seconds.
--executable xvdint finished with status     0 in      116.82 seconds (walltime).
 --invoking executable--
/nfs/workspaces/public/cfour_mpi/bin/xjoda
  @GTFLGS-I, Hessian will be transformed to curvilinear coordinates.
  @GTFLGS-I, Hessian will be transformed to curvilinear coordinates.
  igrd and ihes are                      0                     1
  gradient from JOBARC 
   0.000000000000000   0.000000000000000   0.448491500386927
   0.000000000000000   0.000000000000000  -0.448491500386927
 
  @PROJFCM-I, Projecting force constant matrix onto totally symmetric subspace.
  Largest difference between matrix elements of symmetrized
  and unsymmetrized FCM :     0.3710098895E-10.
  read isotopes from ZMAT file 
 
  Summary of diagonal Born-Oppenheimer correction at the correlated level
  The total diagonal Born-Oppenheimer correction (DBOC) is:      0.0041430422 a.u.
  The total diagonal Born-Oppenheimer correction (DBOC) is:        909.292656 cm-1
  The total diagonal Born-Oppenheimer correction (DBOC) is:            10.878 kJ/mole
  hellooooooo 
  readis is  F
 
 @CHECKOUT-I, Total execution time (CPU/WALL):        0.01/       0.03 seconds.
--executable xjoda finished with status     0 in        0.04 seconds (walltime).
  The final electronic energy is      -113.281633807853382 a.u. 
  This computation required                         2548.77 seconds (walltime).
