 --invoking executable--
/nfs/workspaces/public/cfour_mpi/bin/xjoda


   *************************************************************************
         <<<     CCCCCC     CCCCCC   |||     CCCCCC     CCCCCC   >>>
       <<<      CCC        CCC       |||    CCC        CCC         >>>
      <<<      CCC        CCC        |||   CCC        CCC            >>>
    <<<        CCC        CCC        |||   CCC        CCC              >>>
      <<<      CCC        CCC        |||   CCC        CCC            >>>
       <<<      CCC        CCC       |||    CCC        CCC         >>>
         <<<     CCCCCC     CCCCCC   |||     CCCCCC     CCCCCC   >>>
   *************************************************************************

     ****************************************************************
     * CFOUR Coupled-Cluster techniques for Computational Chemistry *
     ****************************************************************
 

   Department of Chemistry                Institut fuer Physikalische Chemie
   University of Florida                  Universitaet Mainz
   Gainesville, FL 32611, USA             D-55099 Mainz, Germany

   Department of Chemistry                Fakultaet fuer Chemie und Biowiss.
   Johns Hopkins University               Karlsruher Institut fuer Technologie
   Baltimore, MD 21218, USA               D-76131 Karlsruhe, Germany

   Department of Chemistry                Department of Physical Chemistry
   Southern Methodist University          Eotvos Lorand University
   Dallas, TX 75275, USA                  H-1053 Budapest, Hungary

 
                       Version 2.1
 
                     vincent.theory.phys.ucl.ac.uk                     
                     Mon 24 Feb 14:58:37 GMT 2025                      
                     integer*8 version is running
 
********************************************************************************
*                          Input from ZMAT file                                *
********************************************************************************
Carbon Monoxide DBOC calculation                                                
C                                                                               
O 1 r                                                                           
                                                                                
r=0.9620689655172414                                                            
                                                                                
                                                                                
*CFOUR(CALC=CCSD,BASIS=AUG-PCVQZ,SCF_CONV=10                                    
CC_CONV=14,DBOC=ON,MEMORY=500000000                                             
ZFIELD=200)                                                                     
                                                                                
%isotopes                                                                       
12                                                                              
16                                                                              
********************************************************************************
  @GTFLGS-I, Hessian will be transformed to curvilinear coordinates.
    -------------------------------------------------------------------
                    CFOUR Control Parameters 
    -------------------------------------------------------------------
        External           Internal           Value            Units
          Name               Name
    -------------------------------------------------------------------
       ABCDTYPE             IABCDT         STANDARD    [  0]    ***   
       ANHARMONIC           IANHAR         OFF         [  0]    ***   
       ANH_ALGORIT          IANALG         STANDARD    [  0]    ***   
       ANH_DERIVAT          IANDER         SECOND      [  1]    ***   
       ANH_MODE             ANHMOD         VIBRATION   [  0]    ***   
       ANH_STEPSIZ          ICUBST             50000          x 10-6  
       ANH_SYMMETR          IANHSM         ABELIAN     [  0]    ***   
       AO_LADDERS           IAOLAD         SINGLEPASS  [  1]    ***   
       AV_SCF               IAVSCF         OFF         [  0]    ***   
       BASIS                IBASIS         AUG-PCVQZ   [ 52]    ***   
       BOTHVECTORS          BOTHVC         OFF         [  0]    ***   
       BOX_POTENT           IPIAB          OFF         [  0]    ***   
       BREIT                IBREIT         OFF         [  0]    ***   
       BRUCK_CONV           IBRTOL          10D-  4             ***   
       BRUECKNER            IBRKNR         OFF         [  0]    ***   
       BUFFERSIZE           IBUFFS              4096            ***   
       CACHE_RECS           ICHREC             10               ***   
       CALCLEVEL            ICLLVL         CCSD        [ 10]    ***   
       CCORBOPT             ICCORB         OFF         [  0]  x 0.01  
       CC_CONV              ICCCNV          10D- 14             ***   
       CC_EXPORDER          ICCEOR              5               ***   
       CC_EXTRAPOL          ICCEXT         DIIS        [  1]    ***   
       CC_GUESS             ICCGES         MP2         [  0]    ***   
       CC_MAXCYC            ICCCYC            100              cycles 
       CC_PROGRAM           ICCPRO         VCC         [  0]    ***   
       CHARGE               ICHRGE              0               ***   
       CHOLESKY             ICHOLE         OFF         [  0]    ***   
       CIS_CONV             ICISTL              5               ***   
       COMM_SIZE            IPSIZE            ***               ***   
       CONSTANT             ICONST         OLD         [  1]    ***   
       CONTINUUM            ICONTU         NONE        [  0]    ***   
       CONTRACTION          ICNTYP         GENERAL     [  1]    ***   
       COORDINATES          ICOORD         INTERNAL    [  0]    ***   
       CPHF_CONVER          ICPHFT          10D- 16             ***   
       CPHF_MAXCYC          ICPHFC             64              cycles 
       CUBIC                ICUBIC         OFF         [  0]    ***   
       CURVILINEAR          ICURVY         ON          [  1]    ***   
       DBOC                 IDBOC          ON          [  1]    ***   
       DCT                  IDCT           OFF         [  0]    ***   
       DERIV_LEV            IDRLVL         SECOND      [  2]    ***   
       DEVMEM_SIZE          IDVMEM          50000000           MByte  
       DIAG_MRCC            IEOMST          10D-  0             ***   
       DIFF_TYPE            IDIFTY         RELAXED     [  0]    ***   
       DIRECT               IDIRCT         OFF         [  0]    ***   
       DROPMO               IDRPMO      NONE         
       ECP                  IECP           OFF         [  0]    ***   
       EIGENVECTOR          IVEC                1               ***   
       EL_ANHARM            IELANH         OFF         [  0]    ***   
       EOMFOLLOW            IEOMSR         ENERGY      [  0]    ***   
       EOMIP                IEOMIP         OFF         [  0]    ***   
       EOMLEVEL             HBARFM         SAME        [  0]    ***   
       EOM_MRCC             IMRCCE         NEW         [  1]    ***   
       EOM_NONIT            EOMNON         OFF         [  0]    ***   
       EOM_NSING            IEOMSI          10D-  0             ***   
       EOM_NSTATES          IMRCCD         DAVIDSON    [  0]    ***   
       EOM_NTRIP            IEOMTR          10D-  0             ***   
       EOM_ORDER            IEXORD         ENERGY      [  0]    ***   
       EOM_PROPSTA          IEOMST              0               ***   
       ESTATE_CONV          IEXTOL          10D-  5             ***   
       ESTATE_DIAG          IEXDIG         ITERATIVE   [  0]    ***   
       ESTATE_LOCK          IESLOC         ON          [  1]    ***   
       ESTATE_MAXC          IEXMXC             40               ***   
       ESTATE_PROP          IEXPRP         OFF         [  0]    ***   
       EVAL_HESS            IRECAL              0            # of cyc.
       EXCITATION           IEXCIT              0               ***   
       EXCITE               IEXCIT         NONE        [  0]    ***   
       EXTERN_POT           IEXPOT         OFF         [  0]    ***   
       FCGRADNEW            IFCGNW         OFF         [  0]    ***   
       FC_FIELD             IFINFC              0             x 10-6  
       FD_CALTYPE           IFDCAL         GRADONLY    [  0]    ***   
       FD_PROJECT           IFDPRJ         OFF         [  1]    ***   
       FD_STEPSIZE          IDISFD              0            10-4 bohr
       FD_USEGROUP          IFDGRP         FULL        [  0]    ***   
       FILE_RECSIZ          IFLREC              4096           words  
       FINITE_PERT          IFIPER              0             x 10-6  
       FIXGEOM              IFIXGM         OFF         [  0]    ***   
       FOCK                 IFOCK          AO          [  1]    ***   
       FREQ_ALGORI          IVIALG         STANDARD    [  0]    ***   
       FROZEN_CORE          IFROCO         OFF         [  0]    ***   
       GAMMA_ABCD           IGABCD         STORE       [  0]    ***   
       GAMMA_ABCI           IGABCI         STORE       [  0]    ***   
       GENBAS_1             IGNBS1              0               ***   
       GENBAS_2             IGNBS2              0               ***   
       GENBAS_3             IGNBS3              0               ***   
       GENBAS_4             IGNBS4              0               ***   
       GEO_CONV             ICONTL              5              H/bohr 
       GEO_MAXCYC           IOPTCY             50               ***   
       GEO_MAXSTEP          IMXSTP            300            millibohr
       GEO_METHOD           INR            SINGLE_POINT[  5]    ***   
       GIAO                 IGIAO          OFF         [  1]    ***   
       GIMIC                IGIMIC         OFF         [  0]    ***   
       GRID                 IGRID          OFF         [  0]    ***   
       GRID_ALGO            IGALGO         SERIAL      [  0]    ***   
       GUESS                IGUESS         MOREAD      [  0]    ***   
       HBAR                 IHBAR          OFF         [  0]    ***   
       HESS_TYPE            IHESTP         SCF         [  0]    ***   
       HF2_FILE             IHF2Fl         USE         [  1]    ***   
       HFSTABILITY          ISTABL         OFF         [  0]    ***   
       INCORE               INCORE         OFF         [  0]    ***   
       INPUT_MRCC           IMRCC          ON          [  1]    ***   
       INTEGRALS            INTTYP         VMOL        [  1]    ***   
       JODA_PRINT           IJPRNT              0               ***   
       KEYWORD_OUT          IDMPKW         NO          [  0]    ***   
       LINDEP_TOL           ILINDP              8               ***   
       LINEQ_CONV           IZTACN          10D-  7           cycles  
       LINEQ_EXPOR          ILMAXD              5               ***   
       LINEQ_MAXCY          ILMAXC            100               ***   
       LINEQ_TYPE           ILTYPE         DIIS        [  1]    ***   
       LOCK_ORBOCC          ILOCOC         OFF         [  0]    ***   
       MEMORY_SIZE          IMEMSZ         500000000           words  
       MEM_UNIT             IMEMU          INTEGERWORDS[  0]    ***   
       MRCC                 IMRCCC         OFF         [  0]    ***   
       MULTIPLICTY          IMULTP              1               ***   
       NACOUPLING           IVCOUP         OFF         [  0]    ***   
       NEGEVAL              IDIE           ABORT       [  0]    ***   
       NEWNORM              INEWNO         OFF         [  0]    ***   
       NON-HF               INONHF         OFF         [  0]    ***   
       NTOP_TAMP            ITOPT2             15               ***   
       NUC_MODEL            INUCMO         POINT       [  0]    ***   
       OCCUPATION           IOCCU   ESTIMATED BY SCF 
       OPEN-SHELL           IOPEN          SPIN-ORBITAL[  0]    ***   
       OPTVIB               IOPTVB         OFF         [  0]    ***   
       ORBITALS             IORBTP         STANDARD    [  0]    ***   
       PARALLEL             IPARAL         ON          [  1]    ***   
       PARA_INT             IPINTS         ON          [  1]    ***   
       PARA_PRINT           IPPRIN              0               ***   
       PERT_ORB             IPTORB         STANDARD    [  0]    ***   
       POINTS               IGRDFD              0               ***   
       PRINT                IPRNT               0               ***   
       PROPS                IPROPS         OFF         [  0]    ***   
       PROP_INTEGR          IINTYP         INTERNAL    [  0]    ***   
       PSI                  IPSI           OFF         [  0]    ***   
       QC_ALG               IQCALG         FLM         [  0]    ***   
       QC_LINALG            IQCLIN         TRIDIAG     [  2]    ***   
       QC_MAXCYC            IQCMAX          10D-100           cycles  
       QC_MAXSCFCY          IQCMSC          10D- 15           cycles  
       QC_RTRUST            IQCRTR          10D-  0           x 10-3  
       QC_SKIPSCF           IQCSKI         OFF         [  0]    ***   
       QC_START             IQCSTA          10D-  1             ***   
       QRHFGUESS            IQGUES         OFF         [  0]    ***   
       QUARTIC              IQUART         OFF         [  0]    ***   
       RAMAN_INT            IRAMIN         OFF         [  0]    ***   
       RAMAN_ORB            IRAMRE         UNRELAXED   [  0]    ***   
       RDO                  IRDOFM         ON          [  1]    ***   
       REDUCE_REPR          REDREP         Ir          [  0]    ***   
       REFERENCE            IREFNC         RHF         [  0]    ***   
       RELATIVIST           IRELAT         OFF         [  0]    ***   
       RELAX_DENS           IRDENS         ON          [  1]    ***   
       RESET_FLAGS          IRESET         OFF         [  0]    ***   
       RESTART_CC           ICCRES         OFF         [  0]    ***   
       ROT_EVEC             ROTVEC              0               ***   
       SAVE_INTS            ISVINT         OFF         [  0]    ***   
       SCALE_ON             ISTCRT              0               ***   
       SCF_CONV             ISCFCV          10D- 10             ***   
       SCF_DAMPING          IDAMP               0             x 10-3  
       SCF_EXPORDE          IRPPOR              6               ***   
       SCF_EXPSTAR          IRPPLS              8               ***   
       SCF_EXTRAPO          IRPP           ON          [  1]    ***   
       SCF_MAXCYC           ISCFCY            150              cycles 
       SCF_NOSTOP           ISCFST         OFF         [  0]    ***   
       SCF_PRINT            ISCFPR              0               ***   
       SCF_PROG             ISCFPR         SCF         [  0]    ***   
       SD_FIELD             IFINSD              0             x 10-6  
       SOPERT               IPERSO         OFF         [  0]    ***   
       SPHERICAL            IDFGHI         ON          [  1]    ***   
       SPINORBIT            ISOCAL         OFF         [  0]    ***   
       SPINROTATIO          ISRCON         OFF         [  0]    ***   
       SPIN_FLIP            ISPFLP         OFF         [  0]    ***   
       SPIN_ORBIT           ISPORB         OFF         [  0]    ***   
       SPIN_SCAL            ISCSMP         OFF         [  0]    ***   
       STEEPSCALE           ISTPSC              1000          x 10-3  
       SUBGROUP             ISUBGP         DEFAULT     [  0]    ***   
       SUBGRPAXIS           ISBXYZ         X           [  0]    ***   
       SYMMETRY             ISYM           ON          [  0]    ***   
       SYM_CHECK            ISYMCK         OVERRIDE    [  1]    ***   
       T3_EXTRAPOL          IT3EXT         OFF         [  0]    ***   
       T4_EXTRAPOL          IT4EXP         OFF         [  0]    ***   
       TAMP_SUM             IEVERY              5               ***   
       TESTSUITE            ITESTS         OFF         [  0]    ***   
       THERMOCH             ITHERM         OFF         [  0]    ***   
       TOL_CHOLESK          ITOLCH          10D-  4             ***   
       TRANGRAD             IRESRM         OFF         [  0]    ***   
       TRANS_INV            ITRAIN         IGNORE      [  1]    ***   
       TREAT_PERT           ITREAT         SIMULTANEOUS[  0]    ***   
       TRIP_ALGORI          ITRALG         NORMAL      [  0]    ***   
       UIJ_THRESHO          IUIJTH              1               ***   
       UNITS                IUNITS         ANGSTROM    [  0]    ***   
       UNOS                 IUNOS          OFF         [  0]    ***   
       UPDATE_HESS          IHUPDT         ON          [  1]    ***   
       VIBPHASE             ISETPH         STANDARD    [  0]    ***   
       VIBRATION            IVIB           ANALYTIC    [  1]    ***   
       VIB_ALGORIT          IGEALG         STANDARD    [  0]    ***   
       VNATORB              IVNORB         OFF         [  0]    ***   
       VTRAN                IVTRAN         FULL/PARTIAL[  0]    ***   
       XFIELD               IXEFLD              0             x 10-6  
       XFORM_TOL            IXFTOL          10D- 11             ***   
       YFIELD               IYEFLD              0             x 10-6  
       ZFIELD               IZEFLD            200             x 10-6  
       ZSCALE_EXP           IZEXPS         OFF         [  0]    ***   
    -------------------------------------------------------------------
   2 entries found in Z-matrix 
   Job Title : Carbon Monoxide DBOC calculation                                                
   There are  1 unique internal coordinates.
   Of these,  0 will be optimized.
   User supplied Z-matrix: 
--------------------------------------------------------------------------------
       SYMBOL    BOND      LENGTH    ANGLE     ANGLE     DIHED     ANGLE
                  TO      (ANGST)    WRT      (DEG)      WRT      (DEG)
--------------------------------------------------------------------------------
        C    
        O          1         r    
                  *Initial values for internal coordinates* 
                      Name             Value
                        r               0.9620689655
--------------------------------------------------------------------------------
  read isotopes from ZMAT file 
   Rotational constants (in cm-1): 
          2.6564406622             2.6564406622
   Rotational constants (in MHz): 
      79638.0987214907         79638.0987214907
********************************************************************************
   The full molecular point group is CXv .
   The largest Abelian subgroup of the full molecular point group is C2v .
   The computational point group is C2v .
********************************************************************************
--------------------------------------------------------------------------------
   Analysis of internal coordinates specified by Z-matrix 
--------------------------------------------------------------------------------
   *The nuclear repulsion energy is   26.401954236559135 a.u.
   *There is   1 degree of freedom within the tot. symm. molecular subspace.
   *Z-matrix requests optimization of   0 coordinates.
   *The optimization is constrained.
   *The following   1 parameters can have non-zero 
    derivatives within the totally symmetric subspace:
             r    [ 1]
   *The following   0 parameters are to be optimized:

   *The following coordinates must be varied in an  unconstrained optimization.
             r    [ 1]
--------------------------------------------------------------------------------


 ----------------------------------------------------------------
         Coordinates used in calculation (QCOMP) 
 ----------------------------------------------------------------
 Z-matrix   Atomic            Coordinates (in bohr)
  Symbol    Number           X              Y              Z
 ----------------------------------------------------------------
     C         6        -0.00000000     0.00000000     1.03874260
     O         8         0.00000000     0.00000000    -0.77930464
 ----------------------------------------------------------------
 
   Interatomic distance matrix (Angstroms) 
 
                 C             O    
                [ 1]        [ 2]
  C    [ 1]     0.00000
  O    [ 2]     0.96207     0.00000
 rotcon2
   Rotational constants (in cm-1): 
          2.6564406622             0.0000000000
   Rotational constants (in MHz): 
      79638.0987214907             0.0000000000
  ECPDATA file not present.   Using default ECPDATA. 
  @GTFLGS-I, Hessian will be transformed to curvilinear coordinates.
  There are  218 basis functions.
 @CHECKOUT-I, Total execution time (CPU/WALL):        0.09/       0.14 seconds.
--executable xjoda finished with status     0 in        0.16 seconds (walltime).
 --invoking executable--
/nfs/workspaces/public/cfour_mpi/bin/xvmol
 SERIAL VERSION OF MOLECULE STARTED
********************************************************************************
                    INPUT FROM MOL FILE
********************************************************************************
INTGRL        1    0    1    0    0    0    0    0    0                         
         *** CFOUR Program System (Release V0.1) ***                            
Carbon Monoxide DBOC calculation                                                
    2    2 X  Y       0.10E-08              0    0                              
   9999.00      3.00                                                            
          6.00000000    1    5    1    1    1    1    1                         
C #1  -0.000000000000000   0.000000000000000   1.038742598898242                
   16    9                                                                      
   33980.0000000000       9.100000000000000E-005 -1.900000000000000E-005        
  0.000000000000000E+000  0.000000000000000E+000  0.000000000000000E+000        
  0.000000000000000E+000  0.000000000000000E+000  0.000000000000000E+000        
  0.000000000000000E+000                                                        
   5089.00000000000       7.040000000000000E-004 -1.510000000000000E-004        
  0.000000000000000E+000  0.000000000000000E+000  0.000000000000000E+000        
  0.000000000000000E+000  0.000000000000000E+000  0.000000000000000E+000        
  0.000000000000000E+000                                                        
   1157.00000000000       3.693000000000000E-003 -7.850000000000000E-004        
  0.000000000000000E+000  0.000000000000000E+000  0.000000000000000E+000        
  0.000000000000000E+000  0.000000000000000E+000  0.000000000000000E+000        
  0.000000000000000E+000                                                        
   326.600000000000       1.536000000000000E-002 -3.324000000000000E-003        
  0.000000000000000E+000  0.000000000000000E+000  0.000000000000000E+000        
  0.000000000000000E+000  0.000000000000000E+000  0.000000000000000E+000        
  0.000000000000000E+000                                                        
   106.100000000000       5.292900000000000E-002 -1.151200000000000E-002        
  0.000000000000000E+000  0.000000000000000E+000  0.000000000000000E+000        
  0.000000000000000E+000  0.000000000000000E+000  0.000000000000000E+000        
  0.000000000000000E+000                                                        
   38.1100000000000       0.147043000000000      -3.416000000000000E-002        
  0.000000000000000E+000  0.000000000000000E+000  0.000000000000000E+000        
  0.000000000000000E+000  0.000000000000000E+000  0.000000000000000E+000        
  0.000000000000000E+000                                                        
   14.7500000000000       0.305631000000000      -7.717300000000001E-002        
  0.000000000000000E+000  0.000000000000000E+000  0.000000000000000E+000        
  0.000000000000000E+000  0.000000000000000E+000  0.000000000000000E+000        
  0.000000000000000E+000                                                        
   6.03500000000000       0.399345000000000      -0.141493000000000             
  0.000000000000000E+000  0.000000000000000E+000  0.000000000000000E+000        
  0.000000000000000E+000  0.000000000000000E+000  0.000000000000000E+000        
  0.000000000000000E+000                                                        
   2.53000000000000       0.217051000000000      -0.118019000000000             
  0.000000000000000E+000  0.000000000000000E+000  0.000000000000000E+000        
  0.000000000000000E+000  0.000000000000000E+000  0.000000000000000E+000        
  0.000000000000000E+000                                                        
  0.735500000000000       1.589400000000000E-002  0.273806000000000             
   1.00000000000000       0.000000000000000E+000  0.000000000000000E+000        
  0.000000000000000E+000  0.000000000000000E+000  0.000000000000000E+000        
  0.000000000000000E+000                                                        
  0.290500000000000      -3.084000000000000E-003  0.586510000000000             
  0.000000000000000E+000   1.00000000000000       0.000000000000000E+000        
  0.000000000000000E+000  0.000000000000000E+000  0.000000000000000E+000        
  0.000000000000000E+000                                                        
  0.111100000000000       9.779999999999999E-004  0.285430000000000             
  0.000000000000000E+000  0.000000000000000E+000   1.00000000000000             
  0.000000000000000E+000  0.000000000000000E+000  0.000000000000000E+000        
  0.000000000000000E+000                                                        
   7.21600000000000       0.000000000000000E+000  0.000000000000000E+000        
  0.000000000000000E+000  0.000000000000000E+000  0.000000000000000E+000        
   1.00000000000000       0.000000000000000E+000  0.000000000000000E+000        
  0.000000000000000E+000                                                        
   19.5700000000000       0.000000000000000E+000  0.000000000000000E+000        
  0.000000000000000E+000  0.000000000000000E+000  0.000000000000000E+000        
  0.000000000000000E+000   1.00000000000000       0.000000000000000E+000        
  0.000000000000000E+000                                                        
   53.0730000000000       0.000000000000000E+000  0.000000000000000E+000        
  0.000000000000000E+000  0.000000000000000E+000  0.000000000000000E+000        
  0.000000000000000E+000  0.000000000000000E+000   1.00000000000000             
  0.000000000000000E+000                                                        
  4.145000000000000E-002  0.000000000000000E+000  0.000000000000000E+000        
  0.000000000000000E+000  0.000000000000000E+000  0.000000000000000E+000        
  0.000000000000000E+000  0.000000000000000E+000  0.000000000000000E+000        
   1.00000000000000                                                             
   10    8                                                                      
   34.5100000000000       5.378000000000000E-003  0.000000000000000E+000        
  0.000000000000000E+000  0.000000000000000E+000  0.000000000000000E+000        
  0.000000000000000E+000  0.000000000000000E+000  0.000000000000000E+000        
   7.91500000000000       3.613200000000000E-002  0.000000000000000E+000        
  0.000000000000000E+000  0.000000000000000E+000  0.000000000000000E+000        
  0.000000000000000E+000  0.000000000000000E+000  0.000000000000000E+000        
   2.36800000000000       0.142493000000000       0.000000000000000E+000        
  0.000000000000000E+000  0.000000000000000E+000  0.000000000000000E+000        
  0.000000000000000E+000  0.000000000000000E+000  0.000000000000000E+000        
  0.813200000000000       0.342150000000000        1.00000000000000             
  0.000000000000000E+000  0.000000000000000E+000  0.000000000000000E+000        
  0.000000000000000E+000  0.000000000000000E+000  0.000000000000000E+000        
  0.289000000000000       0.463864000000000       0.000000000000000E+000        
   1.00000000000000       0.000000000000000E+000  0.000000000000000E+000        
  0.000000000000000E+000  0.000000000000000E+000  0.000000000000000E+000        
  0.100700000000000       0.250028000000000       0.000000000000000E+000        
  0.000000000000000E+000   1.00000000000000       0.000000000000000E+000        
  0.000000000000000E+000  0.000000000000000E+000  0.000000000000000E+000        
   8.18200000000000       0.000000000000000E+000  0.000000000000000E+000        
  0.000000000000000E+000  0.000000000000000E+000   1.00000000000000             
  0.000000000000000E+000  0.000000000000000E+000  0.000000000000000E+000        
   24.1860000000000       0.000000000000000E+000  0.000000000000000E+000        
  0.000000000000000E+000  0.000000000000000E+000  0.000000000000000E+000        
   1.00000000000000       0.000000000000000E+000  0.000000000000000E+000        
   71.4940000000000       0.000000000000000E+000  0.000000000000000E+000        
  0.000000000000000E+000  0.000000000000000E+000  0.000000000000000E+000        
  0.000000000000000E+000   1.00000000000000       0.000000000000000E+000        
  3.218000000000000E-002  0.000000000000000E+000  0.000000000000000E+000        
  0.000000000000000E+000  0.000000000000000E+000  0.000000000000000E+000        
  0.000000000000000E+000  0.000000000000000E+000   1.00000000000000             
    6    6                                                                      
   1.84800000000000        1.00000000000000       0.000000000000000E+000        
  0.000000000000000E+000  0.000000000000000E+000  0.000000000000000E+000        
  0.000000000000000E+000                                                        
  0.649000000000000       0.000000000000000E+000   1.00000000000000             
  0.000000000000000E+000  0.000000000000000E+000  0.000000000000000E+000        
  0.000000000000000E+000                                                        
  0.228000000000000       0.000000000000000E+000  0.000000000000000E+000        
   1.00000000000000       0.000000000000000E+000  0.000000000000000E+000        
  0.000000000000000E+000                                                        
   8.65600000000000       0.000000000000000E+000  0.000000000000000E+000        
  0.000000000000000E+000   1.00000000000000       0.000000000000000E+000        
  0.000000000000000E+000                                                        
   33.2130000000000       0.000000000000000E+000  0.000000000000000E+000        
  0.000000000000000E+000  0.000000000000000E+000   1.00000000000000             
  0.000000000000000E+000                                                        
  7.660000000000000E-002  0.000000000000000E+000  0.000000000000000E+000        
  0.000000000000000E+000  0.000000000000000E+000  0.000000000000000E+000        
   1.00000000000000                                                             
    4    4                                                                      
   1.41900000000000        1.00000000000000       0.000000000000000E+000        
  0.000000000000000E+000  0.000000000000000E+000                                
  0.485000000000000       0.000000000000000E+000   1.00000000000000             
  0.000000000000000E+000  0.000000000000000E+000                                
   24.6940000000000       0.000000000000000E+000  0.000000000000000E+000        
   1.00000000000000       0.000000000000000E+000                                
  0.187000000000000       0.000000000000000E+000  0.000000000000000E+000        
  0.000000000000000E+000   1.00000000000000                                     
    2    2                                                                      
   1.01100000000000        1.00000000000000       0.000000000000000E+000        
  0.424000000000000       0.000000000000000E+000   1.00000000000000             
          8.00000000    1    5    1    1    1    1    1                         
O #2   0.000000000000000   0.000000000000000  -0.779304639950986                
   16    9                                                                      
   61420.0000000000       9.000000000000001E-005 -2.000000000000000E-005        
  0.000000000000000E+000  0.000000000000000E+000  0.000000000000000E+000        
  0.000000000000000E+000  0.000000000000000E+000  0.000000000000000E+000        
  0.000000000000000E+000                                                        
   9199.00000000000       6.980000000000001E-004 -1.590000000000000E-004        
  0.000000000000000E+000  0.000000000000000E+000  0.000000000000000E+000        
  0.000000000000000E+000  0.000000000000000E+000  0.000000000000000E+000        
  0.000000000000000E+000                                                        
   2091.00000000000       3.664000000000000E-003 -8.290000000000000E-004        
  0.000000000000000E+000  0.000000000000000E+000  0.000000000000000E+000        
  0.000000000000000E+000  0.000000000000000E+000  0.000000000000000E+000        
  0.000000000000000E+000                                                        
   590.900000000000       1.521800000000000E-002 -3.508000000000000E-003        
  0.000000000000000E+000  0.000000000000000E+000  0.000000000000000E+000        
  0.000000000000000E+000  0.000000000000000E+000  0.000000000000000E+000        
  0.000000000000000E+000                                                        
   192.300000000000       5.242300000000000E-002 -1.215600000000000E-002        
  0.000000000000000E+000  0.000000000000000E+000  0.000000000000000E+000        
  0.000000000000000E+000  0.000000000000000E+000  0.000000000000000E+000        
  0.000000000000000E+000                                                        
   69.3200000000000       0.145921000000000      -3.626100000000000E-002        
  0.000000000000000E+000  0.000000000000000E+000  0.000000000000000E+000        
  0.000000000000000E+000  0.000000000000000E+000  0.000000000000000E+000        
  0.000000000000000E+000                                                        
   26.9700000000000       0.305258000000000      -8.299200000000000E-002        
  0.000000000000000E+000  0.000000000000000E+000  0.000000000000000E+000        
  0.000000000000000E+000  0.000000000000000E+000  0.000000000000000E+000        
  0.000000000000000E+000                                                        
   11.1000000000000       0.398508000000000      -0.152090000000000             
  0.000000000000000E+000  0.000000000000000E+000  0.000000000000000E+000        
  0.000000000000000E+000  0.000000000000000E+000  0.000000000000000E+000        
  0.000000000000000E+000                                                        
   4.68200000000000       0.216980000000000      -0.115331000000000             
  0.000000000000000E+000  0.000000000000000E+000  0.000000000000000E+000        
  0.000000000000000E+000  0.000000000000000E+000  0.000000000000000E+000        
  0.000000000000000E+000                                                        
   1.42800000000000       1.759400000000000E-002  0.288979000000000             
   1.00000000000000       0.000000000000000E+000  0.000000000000000E+000        
  0.000000000000000E+000  0.000000000000000E+000  0.000000000000000E+000        
  0.000000000000000E+000                                                        
  0.554700000000000      -2.502000000000000E-003  0.586128000000000             
  0.000000000000000E+000   1.00000000000000       0.000000000000000E+000        
  0.000000000000000E+000  0.000000000000000E+000  0.000000000000000E+000        
  0.000000000000000E+000                                                        
  0.206700000000000       9.540000000000000E-004  0.277624000000000             
  0.000000000000000E+000  0.000000000000000E+000   1.00000000000000             
  0.000000000000000E+000  0.000000000000000E+000  0.000000000000000E+000        
  0.000000000000000E+000                                                        
   12.9740000000000       0.000000000000000E+000  0.000000000000000E+000        
  0.000000000000000E+000  0.000000000000000E+000  0.000000000000000E+000        
   1.00000000000000       0.000000000000000E+000  0.000000000000000E+000        
  0.000000000000000E+000                                                        
   34.9000000000000       0.000000000000000E+000  0.000000000000000E+000        
  0.000000000000000E+000  0.000000000000000E+000  0.000000000000000E+000        
  0.000000000000000E+000   1.00000000000000       0.000000000000000E+000        
  0.000000000000000E+000                                                        
   93.8810000000000       0.000000000000000E+000  0.000000000000000E+000        
  0.000000000000000E+000  0.000000000000000E+000  0.000000000000000E+000        
  0.000000000000000E+000  0.000000000000000E+000   1.00000000000000             
  0.000000000000000E+000                                                        
  6.959000000000000E-002  0.000000000000000E+000  0.000000000000000E+000        
  0.000000000000000E+000  0.000000000000000E+000  0.000000000000000E+000        
  0.000000000000000E+000  0.000000000000000E+000  0.000000000000000E+000        
   1.00000000000000                                                             
   10    8                                                                      
   63.4200000000000       6.044000000000000E-003  0.000000000000000E+000        
  0.000000000000000E+000  0.000000000000000E+000  0.000000000000000E+000        
  0.000000000000000E+000  0.000000000000000E+000  0.000000000000000E+000        
   14.6600000000000       4.179900000000000E-002  0.000000000000000E+000        
  0.000000000000000E+000  0.000000000000000E+000  0.000000000000000E+000        
  0.000000000000000E+000  0.000000000000000E+000  0.000000000000000E+000        
   4.45900000000000       0.161143000000000       0.000000000000000E+000        
  0.000000000000000E+000  0.000000000000000E+000  0.000000000000000E+000        
  0.000000000000000E+000  0.000000000000000E+000  0.000000000000000E+000        
   1.53100000000000       0.356731000000000        1.00000000000000             
  0.000000000000000E+000  0.000000000000000E+000  0.000000000000000E+000        
  0.000000000000000E+000  0.000000000000000E+000  0.000000000000000E+000        
  0.530200000000000       0.448309000000000       0.000000000000000E+000        
   1.00000000000000       0.000000000000000E+000  0.000000000000000E+000        
  0.000000000000000E+000  0.000000000000000E+000  0.000000000000000E+000        
  0.175000000000000       0.244940000000000       0.000000000000000E+000        
  0.000000000000000E+000   1.00000000000000       0.000000000000000E+000        
  0.000000000000000E+000  0.000000000000000E+000  0.000000000000000E+000        
   14.4750000000000       0.000000000000000E+000  0.000000000000000E+000        
  0.000000000000000E+000  0.000000000000000E+000   1.00000000000000             
  0.000000000000000E+000  0.000000000000000E+000  0.000000000000000E+000        
   42.7300000000000       0.000000000000000E+000  0.000000000000000E+000        
  0.000000000000000E+000  0.000000000000000E+000  0.000000000000000E+000        
   1.00000000000000       0.000000000000000E+000  0.000000000000000E+000        
   126.140000000000       0.000000000000000E+000  0.000000000000000E+000        
  0.000000000000000E+000  0.000000000000000E+000  0.000000000000000E+000        
  0.000000000000000E+000   1.00000000000000       0.000000000000000E+000        
  5.348000000000000E-002  0.000000000000000E+000  0.000000000000000E+000        
  0.000000000000000E+000  0.000000000000000E+000  0.000000000000000E+000        
  0.000000000000000E+000  0.000000000000000E+000   1.00000000000000             
    6    6                                                                      
   3.77500000000000        1.00000000000000       0.000000000000000E+000        
  0.000000000000000E+000  0.000000000000000E+000  0.000000000000000E+000        
  0.000000000000000E+000                                                        
   1.30000000000000       0.000000000000000E+000   1.00000000000000             
  0.000000000000000E+000  0.000000000000000E+000  0.000000000000000E+000        
  0.000000000000000E+000                                                        
  0.444000000000000       0.000000000000000E+000  0.000000000000000E+000        
   1.00000000000000       0.000000000000000E+000  0.000000000000000E+000        
  0.000000000000000E+000                                                        
   14.9270000000000       0.000000000000000E+000  0.000000000000000E+000        
  0.000000000000000E+000   1.00000000000000       0.000000000000000E+000        
  0.000000000000000E+000                                                        
   57.5440000000000       0.000000000000000E+000  0.000000000000000E+000        
  0.000000000000000E+000  0.000000000000000E+000   1.00000000000000             
  0.000000000000000E+000                                                        
  0.154000000000000       0.000000000000000E+000  0.000000000000000E+000        
  0.000000000000000E+000  0.000000000000000E+000  0.000000000000000E+000        
   1.00000000000000                                                             
    4    4                                                                      
   2.66600000000000        1.00000000000000       0.000000000000000E+000        
  0.000000000000000E+000  0.000000000000000E+000                                
  0.859000000000000       0.000000000000000E+000   1.00000000000000             
  0.000000000000000E+000  0.000000000000000E+000                                
   26.4830000000000       0.000000000000000E+000  0.000000000000000E+000        
   1.00000000000000       0.000000000000000E+000                                
  0.324000000000000       0.000000000000000E+000  0.000000000000000E+000        
  0.000000000000000E+000   1.00000000000000                                     
    2    2                                                                      
   1.84600000000000        1.00000000000000       0.000000000000000E+000        
  0.714000000000000       0.000000000000000E+000   1.00000000000000             
FINISH                                                                          
 
********************************************************************************
 ONE- AND TWO-ELECTRON INTEGRALS OVER SYMMETRY-ADAPTED AOS ARE CALCULATED.

  SPHERICAL HARMONICS ARE USED.
  
  INTEGRALS LESS THAN  0.10E-13 ARE NEGLECTED.

  NUCLEAR REPULSION ENERGY :   26.4019542366 A.U.
  @MOLECU-I, ONE ELECTRON INTEGRALS (CPU/WALL):        0.06/       0.06 SECONDS.
  @TWOEL-I,    4688964 INTEGRALS OF SYMMETRY TYPE  I I I I
  @TWOEL-I,   20066443 INTEGRALS OF SYMMETRY TYPE  I J I J
  @TWOEL-I,   10578200 INTEGRALS OF SYMMETRY TYPE  I I J J
  @TWOEL-I,   14816224 INTEGRALS OF SYMMETRY TYPE  I J K L
  @TWOEL-I, TOTAL NUMBER OF 2-E INTEGRALS   50149831.
  @MOLECU-I, TWO ELECTRON INTEGRALS (CPU/WALL):      184.62/      25.93 SECONDS.
 @CHECKOUT-I, Total execution time (CPU/WALL):      184.69/      26.03 seconds.

Running with 14 threads/proc

--executable xvmol finished with status     0 in       26.04 seconds (walltime).
 --invoking executable--
/nfs/workspaces/public/cfour_mpi/bin/xvmol2ja
 @GETMEM-I,  Allocated    3814 MB of main memory.
 @CHECKOUT-I, Total execution time (CPU/WALL):        0.14/       0.05 seconds.
--executable xvmol2ja finished with status     0 in        0.06 seconds (walltime).
 --invoking executable--
/nfs/workspaces/public/cfour_mpi/bin/xvprop
 @GETMEM-I,  Allocated    3814 MB of main memory.
   Property integrals will be calculated.
    --------------------------------------------------------------
                                   Property evaluated at 
    Property type                X             Y             Z
    --------------------------------------------------------------
    Dipole moment               ----          ----          ----  
    Quadrupole moment           ----          ----          ----  
    Octopole moment             ----          ----          ----  
    Relativisitic corr.         ----          ----          ----  
    Second moment            0.0000000     0.0000000     0.0000000
    Electron density         0.0000000     0.0000000     1.0387426
    Electron density         0.0000000     0.0000000    -0.7793046
    Field gradient           0.0000000     0.0000000     1.0387426
    Field gradient           0.0000000     0.0000000    -0.7793046
    Potential                0.0000000     0.0000000     1.0387426
    Potential                0.0000000     0.0000000    -0.7793046
    --------------------------------------------------------------
 @CHECKOUT-I, Total execution time (CPU/WALL):        1.29/       1.33 seconds.
--executable xvprop finished with status     0 in        1.34 seconds (walltime).
 --invoking executable--
/nfs/workspaces/public/cfour_mpi/bin/xvscf
  There are  218 functions in the AO basis.

  There are 4 irreducible representations.

       Irrep        # of functions
         1                 86
         2                 52
         3                 52
         4                 28


  Parameters for SCF calculation: 
        SCF reference function:  RHF  
  Maximum number of iterations:  150
     Full symmetry point group: CXv 
     Computational point group: C2v 
        Initial density matrix: MOREAD                 
     SCF convergence tolerance: 10**(-10)
  DIIS convergence acceleration:  ON
          Latest start for DIIS:   8
                     DIIS order:   6

  Memory information:    2523578 words required.
  Fock matrices are constructed from AO integral file.
 @GETMEM-I,  Allocated      19 MB of main memory.
  Initialization and symmetry analysis required      0.001 seconds.

  Adding electric field perturbation to one-electron Hamiltonian.
  Field direction     : Z
  Field strength      :  0.0002000 a.u.

  @INITGES-I, Occupancies from core Hamiltonian:

          Alpha population by irrep:   5    1    1    0
           Beta population by irrep:   5    1    1    0


 total no. of electrons in initial guess :  0.000000000000000E+000
  --------------------------------------------------------------------
  Iteration         Total Energy            Largest Density Difference
  --------------------------------------------------------------------
       0            26.401954632864371              0.0000000000D+00
   current occupation vector 
     5  1  1  0
     5  1  1  0
       1           -90.118637659703253              0.2023729405D+02
   current occupation vector 
     5  1  1  0
     5  1  1  0
       2           -92.354130533801339              0.1133177241D+03
   current occupation vector 
     5  1  1  0
     5  1  1  0
       3          -104.309519785075850              0.1133317566D+03
   current occupation vector 
     4  2  1  0
     4  2  1  0
       4          -102.299376098030280              0.1566455094D+02
   current occupation vector 
     5  1  1  0
     5  1  1  0
       5          -106.357325252555739              0.1566325375D+02
   current occupation vector 
     4  2  1  0
     4  2  1  0
       6          -103.711984875294974              0.1136933288D+02
   current occupation vector 
     5  1  1  0
     5  1  1  0
       7          -105.094874233694014              0.1109040213D+02
   current occupation vector 
     5  1  1  0
     5  1  1  0
       8          -102.534040843137660              0.4933954664D+01
   current occupation vector 
     5  1  1  0
     5  1  1  0
       9          -112.065279201695063              0.3257779290D+01
   current occupation vector 
     5  1  1  0
     5  1  1  0
      10          -112.620233954243162              0.7052274287D+00
   current occupation vector 
     5  1  1  0
     5  1  1  0
      11          -112.714333835584313              0.2301411983D+00
   current occupation vector 
     5  1  1  0
     5  1  1  0
      12          -112.716576000662855              0.4546976137D-01
   current occupation vector 
     5  1  1  0
     5  1  1  0
      13          -112.716673082041524              0.1346790139D-01
   current occupation vector 
     5  1  1  0
     5  1  1  0
      14          -112.716681238465725              0.3887511110D-02
   current occupation vector 
     5  1  1  0
     5  1  1  0
      15          -112.716682634591081              0.2044250532D-02
   current occupation vector 
     5  1  1  0
     5  1  1  0
      16          -112.716682747447777              0.5550560292D-03
   current occupation vector 
     5  1  1  0
     5  1  1  0
      17          -112.716682751509296              0.1244280745D-03
   current occupation vector 
     5  1  1  0
     5  1  1  0
      18          -112.716682751603315              0.1337888779D-04
   current occupation vector 
     5  1  1  0
     5  1  1  0
      19          -112.716682751609085              0.1992629498D-05
   current occupation vector 
     5  1  1  0
     5  1  1  0
      20          -112.716682751608914              0.6234387138D-06
   current occupation vector 
     5  1  1  0
     5  1  1  0
      21          -112.716682751609227              0.1052160012D-06
   current occupation vector 
     5  1  1  0
     5  1  1  0
      22          -112.716682751609170              0.2544652133D-07
   current occupation vector 
     5  1  1  0
     5  1  1  0
      23          -112.716682751609255              0.5851577445D-08
   current occupation vector 
     5  1  1  0
     5  1  1  0
      24          -112.716682751608715              0.1993624377D-08
   current occupation vector 
     5  1  1  0
     5  1  1  0
      25          -112.716682751608801              0.9406906365D-09
   current occupation vector 
     5  1  1  0
     5  1  1  0
      26          -112.716682751609028              0.2079290073D-09
   current occupation vector 
     5  1  1  0
     5  1  1  0
      27          -112.716682751608118              0.2944783375D-09
   current occupation vector 
     5  1  1  0
     5  1  1  0
      28          -112.716682751608687              0.1476315389D-09
   current occupation vector 
     5  1  1  0
     5  1  1  0
      29          -112.716682751609142              0.2551280298D-09
   current occupation vector 
     5  1  1  0
     5  1  1  0
      30          -112.716682751608062              0.1337866901D-09
   current occupation vector 
     5  1  1  0
     5  1  1  0

  SCF has converged.

 Density matrix saved to file den.dat
 total electron number:   13.9999999999999     
     E(SCF)=      -112.716682751607863              0.5070327491D-10

  Eigenvector printing suppressed.

 @PUTMOS-I, Writing converged MOs to NEWMOS. 
 @PUTMOS-I, Symmetry   1 Full Blocks 21 Partial Blocksize   2
 @PUTMOS-I, Symmetry   2 Full Blocks 13 Partial Blocksize   0
 @PUTMOS-I, Symmetry   3 Full Blocks 13 Partial Blocksize   0
 @PUTMOS-I, Symmetry   4 Full Blocks  7 Partial Blocksize   0
 @PUTFOCK-I, Writing converged Fock matrix to NEWFOCK. 
 @PUTFOCK-I, Symmetry   1 Full Blocks 21 Partial Blocksize   2
 @PUTFOCK-I, Symmetry   2 Full Blocks 13 Partial Blocksize   0
 @PUTFOCK-I, Symmetry   3 Full Blocks 13 Partial Blocksize   0
 @PUTFOCK-I, Symmetry   4 Full Blocks  7 Partial Blocksize   0


 
  ORBITAL EIGENVALUES (ALPHA)  (1H = 27.2113834 eV)

       MO #        E(hartree)               E(eV)           FULLSYM    COMPSYM
       ----   --------------------   --------------------   -------   ---------
    1     1         -20.6523944969        -561.9802247833     SG+        A1 (1)
    2     2         -11.2844319927        -307.0650054037     SG+        A1 (1)
    3     3          -1.6395490658         -44.6143982313     SG+        A1 (1)
    4     4          -0.8188455974         -22.2819214957     SG+        A1 (1)
    5    87          -0.7239627433         -19.7000277760      PI        B1 (2)
    6   139          -0.7239627433         -19.7000277759      PI        B2 (3)
    7     5          -0.5304050020         -14.4330538670     SG+        A1 (1)
  +++++++++++++++++++++++++++++++++++++++++++++++++++++++++++++++++++++++++++++
    8     6           0.0565570804           1.5389963996     SG+        A1 (1)
    9    88           0.0652930391           1.7767139205      PI        B1 (2)
   10   140           0.0652930391           1.7767139205      PI        B2 (3)
   11     7           0.0779646751           2.1215266670     SG+        A1 (1)
   12   141           0.1543295451           4.1995204203      PI        B2 (3)
   13    89           0.1543295451           4.1995204203      PI        B1 (2)
   14     8           0.1559372450           4.2432681603     SG+        A1 (1)
   15    90           0.1992155560           5.4209308736      PI        B1 (2)
   16   142           0.1992155560           5.4209308736      PI        B2 (3)
   17     9           0.2264786782           6.1627981455     SG+        A1 (1)
   18   191           0.2275575542           6.1921558522      DE        A2 (4)
   19    10           0.2275575542           6.1921558522      DE        A1 (1)
   20    11           0.3028547903           8.2410978141     SG+        A1 (1)
   21   143           0.3425110037           9.3201982406      PI        B2 (3)
   22    91           0.3425110037           9.3201982406      PI        B1 (2)
   23    12           0.3987932884          10.8517170679     SG+        A1 (1)
   24   144           0.4048769871          11.0172629250      PI        B2 (3)
   25    92           0.4048769871          11.0172629250      PI        B1 (2)
   26    13           0.5074483107          13.8083705371     SG+        A1 (1)
   27   192           0.5215591251          14.1923453185      DE        A2 (4)
   28    14           0.5215591251          14.1923453185      DE        A1 (1)
   29    93           0.6177460873          16.8097256261      PI        B1 (2)
   30   145           0.6177460873          16.8097256261      PI        B2 (3)
   31    15           0.6608331231          17.9821834753     SG+        A1 (1)
   32   146           0.7504208436          20.4199892852      PH        B2 (3)
   33    94           0.7504208436          20.4199892852      PH        B1 (2)
   34   193           0.7703775223          20.9630381225      DE        A2 (4)
   35    16           0.7703775223          20.9630381225      DE        A1 (1)
   36    17           0.7933265214          21.5875121341     SG+        A1 (1)
   37   147           0.8455327859          23.0081168153      PI        B2 (3)
   38    95           0.8455327859          23.0081168154      PI        B1 (2)
   39   148           0.8707687056          23.6948210998      PI        B2 (3)
   40    96           0.8707687056          23.6948210999      PI        B1 (2)
   41    18           0.8788175075          23.9138401362     SG+        A1 (1)
   42    19           0.9060999028          24.6562318539      DE        A1 (1)
   43   194           0.9060999028          24.6562318540      DE        A2 (4)
   44    20           0.9615589136          26.1653482608     SG+        A1 (1)
   45   149           1.1225850685          30.5470926987      PI        B2 (3)
   46    97           1.1225850685          30.5470926987      PI        B1 (2)
   47    21           1.3424207189          36.5291248652     SG+        A1 (1)
   48    98           1.4582136508          39.6800107307      PH        B1 (2)
   49   150           1.4582136508          39.6800107307      PH        B2 (3)
   50    22           1.4974066832          40.7465073617      DE        A1 (1)
   51   195           1.4974066832          40.7465073617      DE        A2 (4)
   52   151           1.5272798303          41.5593970207      PI        B2 (3)
   53    99           1.5272798303          41.5593970207      PI        B1 (2)
   54    23           1.5593168596          42.4311689090     SG+        A1 (1)
   55    24           1.6568435092          45.0850039616     SG+        A1 (1)
   56    25           1.7630802616          47.9758529622     SG+        A1 (1)
   57    26           1.7753677322          48.3102120382      DE        A1 (1)
   58   196           1.7753677322          48.3102120382      DE        A2 (4)
   59   152           1.8641914087          50.7272271528      PI        B2 (3)
   60   100           1.8641914087          50.7272271530      PI        B1 (2)
   61   153           1.9924542920          54.2174376467      PI        B2 (3)
   62   101           1.9924542920          54.2174376467      PI        B1 (2)
   63   197           2.1152557947          57.5590364196      PI        A2 (4)
   64    27           2.1152557947          57.5590364196      PI        A1 (1)
   65    28           2.2269513737          60.5984276430     SG+        A1 (1)
   66    29           2.2356814732          60.8359857283      DE        A1 (1)
   67   198           2.2356814732          60.8359857283      DE        A2 (4)
   68   102           2.2635799376          61.5951415376      PH        B1 (2)
   69   154           2.2635799376          61.5951415376      PH        B2 (3)
   70    30           2.3447306537          63.8033647876     SG+        A1 (1)
   71   103           2.3548506677          64.0787443689      PI        B1 (2)
   72   155           2.3548506677          64.0787443689      PI        B2 (3)
   73    31           2.3891611446          65.0123799095      DE        A1 (1)
   74   199           2.3891611446          65.0123799095      DE        A2 (4)
   75   104           2.4278207462          66.0643611520      PH        B1 (2)
   76   156           2.4278207462          66.0643611520      PH        B2 (3)
   77    32           2.6049225727          70.8835468522     SG+        A1 (1)
   78   105           2.6113368936          71.0580893995      PI        B1 (2)
   79   157           2.6113368936          71.0580893995      PI        B2 (3)
   80   158           3.0241033317          82.2900352003      PI        B2 (3)
   81   106           3.0241033317          82.2900352003      PI        B1 (2)
   82   200           3.1392925002          85.4244918281      DE        A2 (4)
   83    33           3.1392925002          85.4244918282      DE        A1 (1)
   84    34           3.1542751896          85.8321915344     SG+        A1 (1)
   85    35           3.3752616632          91.8455391919     SG+        A1 (1)
   86   159           3.7497443189         102.0357303132      PI        B2 (3)
   87   107           3.7497443189         102.0357303133      PI        B1 (2)
   88    36           3.7678076504         102.5272585526      PI        A1 (1)
   89   201           3.7678076504         102.5272585526      PI        A2 (4)
   90    37           3.9986206198         108.8079987556     SG+        A1 (1)
   91   108           4.0634856158         110.5730650306      PH        B1 (2)
   92   160           4.0634856158         110.5730650306      PH        B2 (3)
   93    38           4.1807579316         113.7642069804      DE        A1 (1)
   94   202           4.1807579316         113.7642069804      DE        A2 (4)
   95   109           4.2142196044         114.6747453859      PI        B1 (2)
   96   161           4.2142196044         114.6747453859      PI        B2 (3)
   97    39           4.3399194237         118.0952113638     SG+        A1 (1)
   98    40           4.4572536233         121.2880372535      DE        A1 (1)
   99   203           4.4572536233         121.2880372535      DE        A2 (4)
  100   162           4.4859116659         122.0678622396      PH        B2 (3)
  101   110           4.4859116659         122.0678622396      PH        B1 (2)
  102    41           4.6988103253         127.8611292868     SG+        A1 (1)
  103   111           4.8903057417         133.0719844809      PI        B1 (2)
  104   163           4.8903057417         133.0719844809      PI        B2 (3)
  105    42           5.1002508764         138.7848820341     SG+        A1 (1)
  106    43           5.2035530683         141.5958775849      DE        A1 (1)
  107   204           5.2035530683         141.5958775850      DE        A2 (4)
  108   164           5.3283804334         144.9926028735      PI        B2 (3)
  109   112           5.3283804334         144.9926028735      PI        B1 (2)
  110   205           5.9270490583         161.2832043548      PI        A2 (4)
  111    44           5.9270490583         161.2832043548      PI        A1 (1)
  112   165           5.9945825363         163.1208837185      PI        B2 (3)
  113   113           5.9945825363         163.1208837187      PI        B1 (2)
  114    45           6.1589452509         167.5934205613     SG+        A1 (1)
  115   114           6.3013825630         171.4693368719      PH        B1 (2)
  116   166           6.3013825630         171.4693368719      PH        B2 (3)
  117    46           6.3365885983         172.4273417953     SG+        A1 (1)
  118    47           6.3418354717         172.5701164811      DE        A1 (1)
  119   206           6.3418354717         172.5701164812      DE        A2 (4)
  120   167           6.4029772906         174.2338699551      PI        B2 (3)
  121   115           6.4029772906         174.2338699551      PI        B1 (2)
  122   116           6.5221678346         177.4772095457      PH        B1 (2)
  123   168           6.5221678346         177.4772095457      PH        B2 (3)
  124   207           6.7465309425         183.5824400952      DE        A2 (4)
  125    48           6.7465309425         183.5824400955      DE        A1 (1)
  126    49           7.1477249762         194.4994847643     SG+        A1 (1)
  127   169           7.9278235439         215.7270459809      PI        B2 (3)
  128   117           7.9278235439         215.7270459810      PI        B1 (2)
  129   208           8.0687001013         219.5604919953      DE        A2 (4)
  130    50           8.0687001013         219.5604919953      DE        A1 (1)
  131    51           8.5013140103         231.3325149373     SG+        A1 (1)
  132    52           8.8399666128         240.5477207439     SG+        A1 (1)
  133   170           8.9512945224         243.5771071751      PI        B2 (3)
  134   118           8.9512945224         243.5771071753      PI        B1 (2)
  135    53           9.8635460984         268.4007345663     SG+        A1 (1)
  136   171          10.1831370135         277.0972454878      PI        B2 (3)
  137   119          10.1831370135         277.0972454882      PI        B1 (2)
  138   209          10.6055923623         288.5928399552      PI        A2 (4)
  139    54          10.6055923623         288.5928399552      PI        A1 (1)
  140   120          11.0399259615         300.4116580456      PH        B1 (2)
  141   172          11.0399259615         300.4116580456      PH        B2 (3)
  142    55          11.3398527910         308.5730819963      DE        A1 (1)
  143   210          11.3398527910         308.5730819963      DE        A2 (4)
  144    56          11.3762011983         309.5621724430     SG+        A1 (1)
  145   173          11.4582149903         311.7938811815      PI        B2 (3)
  146   121          11.4582149903         311.7938811815      PI        B1 (2)
  147   174          11.8722239617         323.0596380335      PH        B2 (3)
  148   122          11.8722239617         323.0596380335      PH        B1 (2)
  149   211          12.4607216507         339.0734742779      DE        A2 (4)
  150    57          12.4607216507         339.0734742783      DE        A1 (1)
  151    58          12.7895318315         348.0208541732     SG+        A1 (1)
  152    59          13.1245848314         357.1381098120      DE        A1 (1)
  153   212          13.1245848314         357.1381098121      DE        A2 (4)
  154   175          13.1856852647         358.8007371298      PI        B2 (3)
  155   123          13.1856852647         358.8007371298      PI        B1 (2)
  156    60          14.1115724620         383.9954086397     SG+        A1 (1)
  157   176          15.1317585752         411.7560841055      PI        B2 (3)
  158   124          15.1317585752         411.7560841057      PI        B1 (2)
  159    61          15.6587739363         426.0969011556     SG+        A1 (1)
  160    62          18.8621048758         513.2639675058     SG+        A1 (1)
  161   177          19.6765651692         535.4265588155      PI        B2 (3)
  162   125          19.6765651693         535.4265588157      PI        B1 (2)
  163    63          21.5456218863         586.2861777386     SG+        A1 (1)
  164   213          26.7483895714         727.8606839595      DE        A2 (4)
  165    64          26.7483895714         727.8606839599      DE        A1 (1)
  166   126          27.7477400359         755.0543926010      PI        B1 (2)
  167   178          27.7477400359         755.0543926011      PI        B2 (3)
  168    65          29.0023606746         789.1943558205     SG+        A1 (1)
  169   179          33.9856603743         924.7968345479      PI        B2 (3)
  170   127          33.9856603744         924.7968345490      PI        B1 (2)
  171    66          36.0616092837         981.2862762393     SG+        A1 (1)
  172    67          37.4622558341        1019.3998065312     SG+        A1 (1)
  173    68          47.2133588464        1284.7408091704      DE        A1 (1)
  174   214          47.2133588464        1284.7408091704      DE        A2 (4)
  175   180          48.1713709355        1310.8096434283      PI        B2 (3)
  176   128          48.1713709355        1310.8096434284      PI        B1 (2)
  177    69          48.8086931512        1328.1520625914     SG+        A1 (1)
  178    70          64.8974802746        1765.9502174451     SG+        A1 (1)
  179   129          67.1079251480        1826.0994803795      PI        B1 (2)
  180   181          67.1079251480        1826.0994803795      PI        B2 (3)
  181    71          68.5263383145        1864.6964648739     SG+        A1 (1)
  182   130          98.7651425283        2687.5361598942      PH        B1 (2)
  183   182          98.7651425283        2687.5361598942      PH        B2 (3)
  184   215          98.8129060420        2688.8358711769      DE        A2 (4)
  185    72          98.8129060420        2688.8358711769      DE        A1 (1)
  186   131          98.8747629127        2690.5190822008      PI        B1 (2)
  187   183          98.8747629127        2690.5190822008      PI        B2 (3)
  188    73          98.9239590500        2691.8577771559     SG+        A1 (1)
  189   132         103.3007942396        2810.9575175778      PH        B1 (2)
  190   184         103.3007942396        2810.9575175778      PH        B2 (3)
  191    74         103.3706873038        2812.8594045449      DE        A1 (1)
  192   216         103.3706873038        2812.8594045454      DE        A2 (4)
  193   185         103.4489208431        2814.9882473773      PI        B2 (3)
  194   133         103.4489208431        2814.9882473774      PI        B1 (2)
  195    75         103.5552546545        2817.8817374881     SG+        A1 (1)
  196   217         115.3469827655        3138.7509720661      DE        A2 (4)
  197    76         115.3469827655        3138.7509720661      DE        A1 (1)
  198   134         115.8364713002        3152.0706322525      PI        B1 (2)
  199   186         115.8364713002        3152.0706322526      PI        B2 (3)
  200    77         116.3378445961        3165.7136932351     SG+        A1 (1)
  201   187         117.2114908749        3189.4868170819      PI        B2 (3)
  202   135         117.2114908749        3189.4868170825      PI        B1 (2)
  203    78         119.1028815463        3240.9541738021     SG+        A1 (1)
  204    79         123.3907492201        3357.6329850405     SG+        A1 (1)
  205    80         198.6445551308        5405.3931499867      DE        A1 (1)
  206   218         198.6445551308        5405.3931499867      DE        A2 (4)
  207   136         199.1739979421        5419.8000213143      PI        B1 (2)
  208   188         199.1739979422        5419.8000213147      PI        B2 (3)
  209    81         199.5280761701        5429.4349797284     SG+        A1 (1)
  210    82         217.3070521939        5913.2255127732     SG+        A1 (1)
  211   137         225.5000662293        6136.1687588898      PI        B1 (2)
  212   189         225.5000662293        6136.1687588898      PI        B2 (3)
  213    83         226.6443139204        6167.3053215171     SG+        A1 (1)
  214   190         395.6326493600       10765.7117072924      PI        B2 (3)
  215   138         395.6326493600       10765.7117072928      PI        B1 (2)
  216    84         397.0044793088       10803.0410979888     SG+        A1 (1)
  217    85         509.8196786532       13872.8987406982     SG+        A1 (1)
  218    86         896.1762077087       24386.1943819185     SG+        A1 (1)


  VSCF finished.

 @CHECKOUT-I, Total execution time (CPU/WALL):       52.83/      10.69 seconds.
--executable xvscf finished with status     0 in       10.70 seconds (walltime).
 --invoking executable--
/nfs/workspaces/public/cfour_mpi/bin/xvtran
 @GETMEM-I,  Allocated    3814 MB of main memory.
  Full RHF integral transformation
  Transformation of IIII integrals :
  1 pass through the AO integral file was required.
     4688964 AO integrals were read.
     8917856 MO integrals were written to HF2.
  Transformation of IIJJ integrals :
  1 pass through the AO integral file was required.
    10578200 AO integrals were read.
    14759151 MO integrals were written to HF2.
  Transformation of IJIJ integrals :
  1 pass through the AO integral file was required.
    20066443 AO integrals were read.
    28186059 MO integrals were written to HF2.
  Transformation of IJKL integrals :
  1 pass through the AO integral file was required.
    14816224 AO integrals were read.
    19095794 MO integrals were written to HF2.
  Summary of active molecular orbitals: 
------------------------------------------------------------------------
 
  Index      Eigenvalue    Symmetry    Index      Eigenvalue    Symmetry
------------------------------------------------------------------------
     1       -20.6523945        1       110         4.2142196        2
     2       -11.2844320        1       111         4.4859117        2
     3        -1.6395491        1       112         4.8903057        2
     4        -0.8188456        1       113         5.3283804        2
     5        -0.5304050        1       114         5.9945825        2
     6        -0.7239627        2       115         6.3013826        2
     7        -0.7239627        3       116         6.4029773        2
     8         0.0565571        1       117         6.5221678        2
     9         0.0779647        1       118         7.9278235        2
    10         0.1559372        1       119         8.9512945        2
    11         0.2264787        1       120        10.1831370        2
    12         0.2275576        1       121        11.0399260        2
    13         0.3028548        1       122        11.4582150        2
    14         0.3987933        1       123        11.8722240        2
    15         0.5074483        1       124        13.1856853        2
    16         0.5215591        1       125        15.1317586        2
    17         0.6608331        1       126        19.6765652        2
    18         0.7703775        1       127        27.7477400        2
    19         0.7933265        1       128        33.9856604        2
    20         0.8788175        1       129        48.1713709        2
    21         0.9060999        1       130        67.1079251        2
    22         0.9615589        1       131        98.7651425        2
    23         1.3424207        1       132        98.8747629        2
    24         1.4974067        1       133       103.3007942        2
    25         1.5593169        1       134       103.4489208        2
    26         1.6568435        1       135       115.8364713        2
    27         1.7630803        1       136       117.2114909        2
    28         1.7753677        1       137       199.1739979        2
    29         2.1152558        1       138       225.5000662        2
    30         2.2269514        1       139       395.6326494        2
    31         2.2356815        1       140         0.0652930        3
    32         2.3447307        1       141         0.1543295        3
    33         2.3891611        1       142         0.1992156        3
    34         2.6049226        1       143         0.3425110        3
    35         3.1392925        1       144         0.4048770        3
    36         3.1542752        1       145         0.6177461        3
    37         3.3752617        1       146         0.7504208        3
    38         3.7678077        1       147         0.8455328        3
    39         3.9986206        1       148         0.8707687        3
    40         4.1807579        1       149         1.1225851        3
    41         4.3399194        1       150         1.4582137        3
    42         4.4572536        1       151         1.5272798        3
    43         4.6988103        1       152         1.8641914        3
    44         5.1002509        1       153         1.9924543        3
    45         5.2035531        1       154         2.2635799        3
    46         5.9270491        1       155         2.3548507        3
    47         6.1589453        1       156         2.4278207        3
    48         6.3365886        1       157         2.6113369        3
    49         6.3418355        1       158         3.0241033        3
    50         6.7465309        1       159         3.7497443        3
    51         7.1477250        1       160         4.0634856        3
    52         8.0687001        1       161         4.2142196        3
    53         8.5013140        1       162         4.4859117        3
    54         8.8399666        1       163         4.8903057        3
    55         9.8635461        1       164         5.3283804        3
    56        10.6055924        1       165         5.9945825        3
    57        11.3398528        1       166         6.3013826        3
    58        11.3762012        1       167         6.4029773        3
    59        12.4607217        1       168         6.5221678        3
    60        12.7895318        1       169         7.9278235        3
    61        13.1245848        1       170         8.9512945        3
    62        14.1115725        1       171        10.1831370        3
    63        15.6587739        1       172        11.0399260        3
    64        18.8621049        1       173        11.4582150        3
    65        21.5456219        1       174        11.8722240        3
    66        26.7483896        1       175        13.1856853        3
    67        29.0023607        1       176        15.1317586        3
    68        36.0616093        1       177        19.6765652        3
    69        37.4622558        1       178        27.7477400        3
    70        47.2133588        1       179        33.9856604        3
    71        48.8086932        1       180        48.1713709        3
    72        64.8974803        1       181        67.1079251        3
    73        68.5263383        1       182        98.7651425        3
    74        98.8129060        1       183        98.8747629        3
    75        98.9239591        1       184       103.3007942        3
    76       103.3706873        1       185       103.4489208        3
    77       103.5552547        1       186       115.8364713        3
    78       115.3469828        1       187       117.2114909        3
    79       116.3378446        1       188       199.1739979        3
    80       119.1028815        1       189       225.5000662        3
    81       123.3907492        1       190       395.6326494        3
    82       198.6445551        1       191         0.2275576        4
    83       199.5280762        1       192         0.5215591        4
    84       217.3070522        1       193         0.7703775        4
    85       226.6443139        1       194         0.9060999        4
    86       397.0044793        1       195         1.4974067        4
    87       509.8196787        1       196         1.7753677        4
    88       896.1762077        1       197         2.1152558        4
    89         0.0652930        2       198         2.2356815        4
    90         0.1543295        2       199         2.3891611        4
    91         0.1992156        2       200         3.1392925        4
    92         0.3425110        2       201         3.7678077        4
    93         0.4048770        2       202         4.1807579        4
    94         0.6177461        2       203         4.4572536        4
    95         0.7504208        2       204         5.2035531        4
    96         0.8455328        2       205         5.9270491        4
    97         0.8707687        2       206         6.3418355        4
    98         1.1225851        2       207         6.7465309        4
    99         1.4582137        2       208         8.0687001        4
   100         1.5272798        2       209        10.6055924        4
   101         1.8641914        2       210        11.3398528        4
   102         1.9924543        2       211        12.4607217        4
   103         2.2635799        2       212        13.1245848        4
   104         2.3548507        2       213        26.7483896        4
   105         2.4278207        2       214        47.2133588        4
   106         2.6113369        2       215        98.8129060        4
   107         3.0241033        2       216       103.3706873        4
   108         3.7497443        2       217       115.3469828        4
   109         4.0634856        2       218       198.6445551        4
------------------------------------------------------------------------
  -20.6523944969030       -11.2844319926683       -1.63954906575220     
 -0.818845597380423      -0.530405002011631      -0.723962743325941     
 -0.723962743323211       5.655708043173761E-002  7.796467514232396E-002
  0.155937245010459       0.226478678239252       0.227557554175875     
  0.302854790327921       0.398793288395790       0.507448310660222     
  0.521559125085242       0.660833123071867       0.770377522315518     
  0.793326521359248       0.878817507535884       0.906099902805422     
  0.961558913640377        1.34242071886565        1.49740668317783     
   1.55931685961162        1.65684350916052        1.76308026155558     
   1.77536773224685        2.11525579473445        2.22695137370327     
   2.23568147322808        2.34473065370146        2.38916114457813     
   2.60492257266895        3.13929250021953        3.15427518964058     
   3.37526166317198        3.76780765040340        3.99862061976710     
   4.18075793163763        4.33991942371490        4.45725362325746     
   4.69881032534508        5.10025087640560        5.20355306834048     
   5.92704905825615        6.15894525087838        6.33658859826078     
[...]
 Convergence information after     6 iterations: 
 Largest element of residual vector : -0.37881751E-03.
 Largest element of DIIS residual   : -0.96699335E-04.
 Convergence information after     7 iterations: 
 Largest element of residual vector : -0.65926862E-04.
 Largest element of DIIS residual   : -0.29105548E-04.
 Convergence information after     8 iterations: 
 Largest element of residual vector : -0.17944264E-04.
 Largest element of DIIS residual   :  0.11433933E-04.
 Convergence information after     9 iterations: 
 Largest element of residual vector :  0.57921626E-05.
 Largest element of DIIS residual   :  0.26763795E-05.
 Convergence information after    10 iterations: 
 Largest element of residual vector :  0.21449997E-05.
 Largest element of DIIS residual   :  0.11832552E-05.
 Convergence information after    11 iterations: 
 Largest element of residual vector :  0.60626112E-06.
 Largest element of DIIS residual   :  0.32877781E-06.
 Convergence information after    12 iterations: 
 Largest element of residual vector :  0.24402120E-06.
 Largest element of DIIS residual   :  0.15924852E-06.
 Convergence information after    13 iterations: 
 Largest element of residual vector :  0.10082815E-06.
 Largest element of DIIS residual   :  0.78617403E-07.
 Perturbed amplitude equations converged in    13 iterations.
  Dominant contributions to perturbed wavefunction:
    7    7  142   37   0.2594481303 ABAB
    7    7   37  142   0.2594481303 ABAB
    7    7  142   63   0.2096943030 ABAB
    7    7   63  142   0.2096943030 ABAB
    5    5  142   43   0.1878070656 ABAB
    5    5   43  142   0.1878070656 ABAB
    7    7  142   48   0.1849052226 ABAB
    7    7   48  142   0.1849052226 ABAB
    7    7  142   27   0.1808517487 ABAB
    7    7   27  142   0.1808517487 ABAB
    7    6   37   91   0.1782339243 ABAB
    6    7   91   37   0.1782339243 ABAB
    5    5  142   54   0.1669519042 ABAB
    5    5   54  142   0.1669519042 ABAB
    7    7  142   43   0.1618783433 ABAB
    7    7   43  142   0.1618783433 ABAB
    7    7  143   37   0.1588767299 ABAB
    7    7   37  143   0.1588767299 ABAB
    5    5  142   30  -0.1528419383 ABAB
    5    5   30  142  -0.1528419383 ABAB
  norm of converged amps    2.93004655919731     
 Starting iterative solution of the perturbed Lambda equations.
 The DIIS procedure is used to accelerate convergence.
 Convergence criterion is 10**(-7).
 Maximum number of iterations is 100.
 Convergence information after     1 iterations: 
 Largest element of residual vector : -0.59825187E-01.
 Largest element of DIIS residual   : -0.59825187E-01.
 Convergence information after     2 iterations: 
 Largest element of residual vector :  0.57055841E-02.
 Largest element of DIIS residual   :  0.63505509E-02.
 Convergence information after     3 iterations: 
 Largest element of residual vector : -0.35734359E-02.
 Largest element of DIIS residual   : -0.31776373E-02.
 Convergence information after     4 iterations: 
 Largest element of residual vector : -0.22119947E-02.
 Largest element of DIIS residual   : -0.16535540E-02.
 Convergence information after     5 iterations: 
 Largest element of residual vector : -0.11513284E-02.
 Largest element of DIIS residual   : -0.51062312E-03.
 Convergence information after     6 iterations: 
 Largest element of residual vector : -0.35201509E-03.
 Largest element of DIIS residual   : -0.86208478E-04.
 Convergence information after     7 iterations: 
 Largest element of residual vector : -0.58688982E-04.
 Largest element of DIIS residual   : -0.24209215E-04.
 Convergence information after     8 iterations: 
 Largest element of residual vector : -0.14499988E-04.
 Largest element of DIIS residual   :  0.99912822E-05.
 Convergence information after     9 iterations: 
 Largest element of residual vector :  0.51437534E-05.
 Largest element of DIIS residual   :  0.23419734E-05.
 Convergence information after    10 iterations: 
 Largest element of residual vector :  0.18729561E-05.
 Largest element of DIIS residual   :  0.10586506E-05.
 Convergence information after    11 iterations: 
 Largest element of residual vector :  0.55669610E-06.
 Largest element of DIIS residual   :  0.31402277E-06.
 Convergence information after    12 iterations: 
 Largest element of residual vector :  0.22802303E-06.
 Largest element of DIIS residual   :  0.14762172E-06.
 Convergence information after    13 iterations: 
 Largest element of residual vector :  0.94196497E-07.
 Largest element of DIIS residual   :  0.71181502E-07.
 Perturbed Lambda equations converged in    13 iterations.
  Dominant contributions to perturbed wavefunction:
    7    7  142   37   0.2497404470 ABAB
    7    7   37  142   0.2497404470 ABAB
    7    7  142   63   0.2016246848 ABAB
    7    7   63  142   0.2016246848 ABAB
    5    5  142   43   0.1803466933 ABAB
    5    5   43  142   0.1803466933 ABAB
    7    7  142   48   0.1779611425 ABAB
    7    7   48  142   0.1779611425 ABAB
    7    7  142   27   0.1734460962 ABAB
    7    7   27  142   0.1734460962 ABAB
    7    6   37   91   0.1698715207 ABAB
    6    7   91   37   0.1698715207 ABAB
    5    5  142   54   0.1602697876 ABAB
    5    5   54  142   0.1602697876 ABAB
    7    7  142   43   0.1543995454 ABAB
    7    7   43  142   0.1543995454 ABAB
    7    7  143   37   0.1535800898 ABAB
    7    7   37  143   0.1535800898 ABAB
    5    5  142   30  -0.1469694545 ABAB
    5    5   30  142  -0.1469694545 ABAB
        The DBOC first-order density matrix is being calculated 
             (Symmetry block 3, perturbation   2)
 term   10.2804343377731     
 final tnorm  0.906361746069262     
  norm contr. I: |<0|L dT/dx|0>|^2   0.000000000000000E+000
  norm contr. II: <0|[nabla(1+L)e-T][nabla e^T]|0>   10.2804343377731     
  total norm contribution   10.2804343377731     
 oo  1.366557293409520E-002
 vv  -77.2289335035023     
 vo  1.920893307243886E-002
  Correlated perturbed 1-el contribution to DBOC  -77.1960589974958       cm**-1
  SUM_I |dc_I/dx|^2 contribution to DBOC   38.7028499198032       cm**-1
 
 
  The total diagonal Born-Oppenheimer correction (DBOC) is:      0.0041611656 a.u.
  The total diagonal Born-Oppenheimer correction (DBOC) is:        913.270287 cm-1
 
 Total CC energy including DBOC  -113.193481476009     
 First-order density matrix is being calculated  (Symmetry block 3, perturbation   2)
 Calculation of the contributions of <pq||rs> to dI(i,j)/dx required   2.3 seconds.
 Calculation of the contributions of <pq||rs> to dI(a,b)/dx required  18.8 seconds.
 Calculation of the contributions of <pq||rs> to dI(i,a)/dx required  10.0 seconds.
 First-order Z-vector equations are solved for 1 perturbation.
 Convergence reached after  17 iterations.
        U*G(pq,rs) contribution is being calculated
             (Symmetry block 3, perturbation   2)

 CCSD contribution to force constants 

        0.0000000000        0.0000000000        0.0000000000
        0.0000000000        0.0000000000        0.0000000000
        0.0000000000        0.0000000000        0.0000000000
        0.0000000000        0.0000000000        0.0000000000
        0.0000000000        0.0000000000        0.0000000000
        0.0000000000        0.0000000000        0.0000000000
        0.0000000000        0.0000000000        0.0000000000
        0.0000000000        0.0000000000        0.0000000000
        0.0000000000        0.0000000000        0.0000000000
        0.0000000000        0.0000000000        0.0000000000
        0.0000000000        0.0000000000        0.0000000000
        0.0000000000      -14.1788683228       14.1788683228

 CCSD contribution to dipole derivatives 

        0.0000000000        0.0000000000        0.0000000000
        0.0000000000        0.0000000000        0.0000000000
        0.0000000000        0.0000000000        0.0000000000
        0.0000000000        0.0000000000       -0.0374056299
        0.0000000000        0.0000000000        0.0000000000
        0.0000000000        0.0000000000        0.0000000000
 @CHECKOUT-I, Total execution time (CPU/WALL):     1011.80/     225.32 seconds.
--executable xsdcc finished with status     0 in      225.36 seconds (walltime).
 --invoking executable--
/nfs/workspaces/public/cfour_mpi/bin/xanti
 @GETMEM-I,  Allocated    3814 MB of main memory.
 CCSD MO derivative gammas will be sorted to Mulliken order.
 @CHECKOUT-I, Total execution time (CPU/WALL):        9.82/      19.48 seconds.
--executable xanti finished with status     0 in       19.51 seconds (walltime).
 --invoking executable--
/nfs/workspaces/public/cfour_mpi/bin/xbcktrn
 @GETMEM-I,  Allocated    3814 MB of main memory.
 CCSD MO derivative gammas will be transformed to the AO basis.
 @CHECKOUT-I, Total execution time (CPU/WALL):       20.66/       3.18 seconds.
--executable xbcktrn finished with status     0 in        3.21 seconds (walltime).
 --invoking executable--
/nfs/workspaces/public/cfour_mpi/bin/xvdint
 @GETMEM-I,  Allocated    3814 MB of main memory.
 One- and two-electron integral derivatives are calculated
 for RHF-CC/MBPT hessians and dipole derivatives.
 Spherical gaussians are used.
  magnet F F
                    8722  records have been written to the Sort file.
  Total length of Sort file :             178609116  words.
 Evaluation of 2el integral derivatives

                      Two-electron integral gradient
                      ------------------------------

                         C #1 z     0.0000000000
                         O #2 z     0.0000000000


 C #1       0.0000000000           -1.7478212315            0.0000000000
 O #2       0.0000000000            1.7478212315            0.0000000000


 Evaluation of 2e integral derivatives required  319.95 seconds.
  contribution to Hessian
        0.0000000000        0.0000000000        0.0000000000
        0.0000000000       -1.7478212315        1.7478212315
 @CHECKOUT-I, Total execution time (CPU/WALL):      319.95/      66.76 seconds.
--executable xvdint finished with status     0 in       66.78 seconds (walltime).
 --invoking executable--
/nfs/workspaces/public/cfour_mpi/bin/xanti
 @GETMEM-I,  Allocated    3814 MB of main memory.
 CCSD MO gammas will be sorted to Mulliken order.
 @CHECKOUT-I, Total execution time (CPU/WALL):       10.65/       9.27 seconds.
--executable xanti finished with status     0 in        9.29 seconds (walltime).
 --invoking executable--
/nfs/workspaces/public/cfour_mpi/bin/xbcktrn
 @GETMEM-I,  Allocated    3814 MB of main memory.
 CCSD MO gammas will be transformed to the AO basis.
 @CHECKOUT-I, Total execution time (CPU/WALL):       26.84/       3.92 seconds.
--executable xbcktrn finished with status     0 in        3.94 seconds (walltime).
 --invoking executable--
/nfs/workspaces/public/cfour_mpi/bin/xvdint
 @GETMEM-I,  Allocated    3814 MB of main memory.
 One- and two-electron integral derivatives are calculated
 for RHF-CC/MBPT hessians and dipole derivatives.
 Spherical gaussians are used.
  magnet F F

                     Kinetic energy integral gradient
                     --------------------------------

                         C #1 z    -1.9705387923
                         O #2 z     1.9705387923


 C #1       0.0000000000            0.0000000000           -1.9705387923
 O #2       0.0000000000            0.0000000000            1.9705387923



                   Nuclear attraction integral gradient
                   ------------------------------------

                         C #1 z    27.8611358756
                         O #2 z   -27.8611358756


 C #1       0.0000000000            0.0000000000           27.8611358756
 O #2       0.0000000000            0.0000000000          -27.8611358756



                      Reorthonormalization gradient
                      -----------------------------

                         C #1 z     0.0000000000
                         O #2 z     0.0000000000


 C #1       0.0000000000            0.0000000000            0.0000000000
 O #2       0.0000000000            0.0000000000            0.0000000000



                     Kinetic energy integral Hessian
                     -------------------------------


           Symmetry 1

           C #1 z      O #2 z

 C #1 z    0.517373
 O #2 z   -0.517373    0.517373


           Symmetry 2

           C #1 x      O #2 x

 C #1 x   -3.613722
 O #2 x    3.613722   -3.613722


           Symmetry 3

           C #1 y      O #2 y

 C #1 y   -3.613722
 O #2 y    3.613722   -3.613722




           C #1 x      C #1 y      C #1 z      O #2 x      O #2 y      O #2 z

 C #1 x   -3.613722
 C #1 y    0.000000   -3.613722
 C #1 z    0.000000    0.000000    0.517373

 O #2 x    3.613722    0.000000    0.000000   -3.613722
 O #2 y    0.000000    3.613722    0.000000    0.000000   -3.613722
 O #2 z    0.000000    0.000000   -0.517373    0.000000    0.000000    0.517373




                   Nuclear attraction integral Hessian
                   -----------------------------------


           Symmetry 1

           C #1 z      O #2 z

 C #1 z  -12.397098
 O #2 z   12.397098  -12.397098


           Symmetry 2

           C #1 x      O #2 x

 C #1 x   32.205788
 O #2 x  -32.205788   32.205788


           Symmetry 3

           C #1 y      O #2 y

 C #1 y   32.205788
 O #2 y  -32.205788   32.205788




           C #1 x      C #1 y      C #1 z      O #2 x      O #2 y      O #2 z

 C #1 x   32.205788
 C #1 y    0.000000   32.205788
 C #1 z    0.000000    0.000000  -12.397098

 O #2 x  -32.205788    0.000000    0.000000   32.205788
 O #2 y    0.000000  -32.205788    0.000000    0.000000   32.205788
 O #2 z    0.000000    0.000000   12.397098    0.000000    0.000000  -12.397098




                Highest order reorthonormalization Hessian
                ------------------------------------------


           Symmetry 1

           C #1 z      O #2 z

 C #1 z    0.000000
 O #2 z    0.000000    0.000000


           Symmetry 2

           C #1 x      O #2 x

 C #1 x    0.000000
 O #2 x    0.000000    0.000000


           Symmetry 3

           C #1 y      O #2 y

 C #1 y    0.000000
 O #2 y    0.000000    0.000000




           C #1 x      C #1 y      C #1 z      O #2 x      O #2 y      O #2 z




                Electronic contributions to dipole moment
                -----------------------------------------

                               au             Debye

                    z     -0.25398386     -0.64556269

  Conversion factor used: 1 a.u. =   2.54174691 Debye 



   Electronic contributions to static part of dipole moment derivatives
   --------------------------------------------------------------------


                     Total dipole moment derivatives
                     -------------------------------


           Symmetry 1
                              Ez

               C #1 z    -5.83603252
               O #2 z    -8.16396748

           Symmetry 2
                              Ex

               C #1 x    -5.89593743
               O #2 x    -8.10406257

           Symmetry 3
                              Ey

               C #1 y    -5.89593743
               O #2 y    -8.10406257



                       Ex          Ey          Ez

      C #1    x   -5.895937    0.000000    0.000000
      C #1    y    0.000000   -5.895937    0.000000
      C #1    z    0.000000    0.000000   -5.836033

      O #2    x   -8.104063    0.000000    0.000000
      O #2    y    0.000000   -8.104063    0.000000
      O #2    z    0.000000    0.000000   -8.163967

 Evaluation of 1e integral derivatives required    1.73 seconds.
                    8815  records have been written to the Sort file.
  Total length of Sort file :             180513570  words.
 Evaluation of 2el integral derivatives

                      Two-electron integral gradient
                      ------------------------------

                         C #1 z   -11.8322405215
                         O #2 z    11.8322405215


 C #1       0.0000000000            0.0000000000          -11.8322405215
 O #2       0.0000000000            0.0000000000           11.8322405215


 Evaluation of 2e integral derivatives required  697.73 seconds.

                            Molecular gradient
                            ------------------

                         C #1 z    -0.4637931779
                         O #2 z     0.4637931779


 C #1       0.0000000000            0.0000000000           -0.4637931779
 O #2       0.0000000000            0.0000000000            0.4637931779


  Molecular gradient norm 0.656E+00

                            Molecular hessian
                            -----------------


           Symmetry 1

           C #1 z      O #2 z

 C #1 z  102.395859
 O #2 z -102.395859  102.395859


           Symmetry 2

           C #1 x      O #2 x

 C #1 x   14.971753
 O #2 x  -14.971753   14.971753


           Symmetry 3

           C #1 y      O #2 y

 C #1 y   14.971753
 O #2 y  -14.971753   14.971753




           C #1 x      C #1 y      C #1 z      O #2 x      O #2 y      O #2 z

 C #1 x   14.971753
 C #1 y    0.000000   14.971753
 C #1 z    0.000000    0.000000  102.395859

 O #2 x  -14.971753    0.000000    0.000000   14.971753
 O #2 y    0.000000  -14.971753    0.000000    0.000000   14.971753
 O #2 z    0.000000    0.000000 -102.395859    0.000000    0.000000  102.395859




                           Total dipole moment
                           -------------------

                               au             Debye

                    z     -0.25596539     -0.65059923

  Conversion factor used: 1 a.u. =   2.54174691 Debye 



                     Total dipole moment derivatives
                     -------------------------------


           Symmetry 1
                              Ez

               C #1 z     0.65433035
               O #2 z    -0.65433035

           Symmetry 2
                              Ex

               C #1 x    -0.14417087
               O #2 x     0.14417087

           Symmetry 3
                              Ey

               C #1 y    -0.14417087
               O #2 y     0.14417087



                       Ex          Ey          Ez

      C #1    x   -0.144171    0.000000    0.000000
      C #1    y    0.000000   -0.144171    0.000000
      C #1    z    0.000000    0.000000    0.654330

      O #2    x    0.144171    0.000000    0.000000
      O #2    y    0.000000    0.144171    0.000000
      O #2    z    0.000000    0.000000   -0.654330

 @CHECKOUT-I, Total execution time (CPU/WALL):      699.46/     118.64 seconds.
--executable xvdint finished with status     0 in      118.66 seconds (walltime).
 --invoking executable--
/nfs/workspaces/public/cfour_mpi/bin/xjoda
  @GTFLGS-I, Hessian will be transformed to curvilinear coordinates.
  @GTFLGS-I, Hessian will be transformed to curvilinear coordinates.
  igrd and ihes are                      0                     1
  gradient from JOBARC 
   0.000000000000000   0.000000000000000  -0.463793177945077
   0.000000000000000   0.000000000000000   0.463793177945077
 
  @PROJFCM-I, Projecting force constant matrix onto totally symmetric subspace.
  Largest difference between matrix elements of symmetrized
  and unsymmetrized FCM :     0.3040128149E-09.
  read isotopes from ZMAT file 
 
  Summary of diagonal Born-Oppenheimer correction at the correlated level
  The total diagonal Born-Oppenheimer correction (DBOC) is:      0.0041611656 a.u.
  The total diagonal Born-Oppenheimer correction (DBOC) is:        913.270287 cm-1
  The total diagonal Born-Oppenheimer correction (DBOC) is:            10.925 kJ/mole
  hellooooooo 
  readis is  F
 
 @CHECKOUT-I, Total execution time (CPU/WALL):        0.01/       0.04 seconds.
--executable xjoda finished with status     0 in        0.06 seconds (walltime).
  The final electronic energy is      -113.193481476008500 a.u. 
  This computation required                         2545.66 seconds (walltime).
