 --invoking executable--
/nfs/workspaces/public/cfour_mpi/bin/xjoda


   *************************************************************************
         <<<     CCCCCC     CCCCCC   |||     CCCCCC     CCCCCC   >>>
       <<<      CCC        CCC       |||    CCC        CCC         >>>
      <<<      CCC        CCC        |||   CCC        CCC            >>>
    <<<        CCC        CCC        |||   CCC        CCC              >>>
      <<<      CCC        CCC        |||   CCC        CCC            >>>
       <<<      CCC        CCC       |||    CCC        CCC         >>>
         <<<     CCCCCC     CCCCCC   |||     CCCCCC     CCCCCC   >>>
   *************************************************************************

     ****************************************************************
     * CFOUR Coupled-Cluster techniques for Computational Chemistry *
     ****************************************************************
 

   Department of Chemistry                Institut fuer Physikalische Chemie
   University of Florida                  Universitaet Mainz
   Gainesville, FL 32611, USA             D-55099 Mainz, Germany

   Department of Chemistry                Fakultaet fuer Chemie und Biowiss.
   Johns Hopkins University               Karlsruher Institut fuer Technologie
   Baltimore, MD 21218, USA               D-76131 Karlsruhe, Germany

   Department of Chemistry                Department of Physical Chemistry
   Southern Methodist University          Eotvos Lorand University
   Dallas, TX 75275, USA                  H-1053 Budapest, Hungary

 
                       Version 2.1
 
                     vincent.theory.phys.ucl.ac.uk                     
                     Wed 26 Feb 09:26:35 GMT 2025                      
                     integer*8 version is running
 
********************************************************************************
*                          Input from ZMAT file                                *
********************************************************************************
Carbon Monoxide DBOC calculation                                                
C                                                                               
O 1 r                                                                           
                                                                                
r=1.8                                                                           
                                                                                
                                                                                
*CFOUR(CALC=CCSD,BASIS=AUG-PCVQZ,SCF_CONV=10                                    
CC_CONV=14,DBOC=ON,MEMORY=500000000                                             
ZFIELD=200)                                                                     
                                                                                
%isotopes                                                                       
12                                                                              
16                                                                              
********************************************************************************
  @GTFLGS-I, Hessian will be transformed to curvilinear coordinates.
    -------------------------------------------------------------------
                    CFOUR Control Parameters 
    -------------------------------------------------------------------
        External           Internal           Value            Units
          Name               Name
    -------------------------------------------------------------------
       ABCDTYPE             IABCDT         STANDARD    [  0]    ***   
       ANHARMONIC           IANHAR         OFF         [  0]    ***   
       ANH_ALGORIT          IANALG         STANDARD    [  0]    ***   
       ANH_DERIVAT          IANDER         SECOND      [  1]    ***   
       ANH_MODE             ANHMOD         VIBRATION   [  0]    ***   
       ANH_STEPSIZ          ICUBST             50000          x 10-6  
       ANH_SYMMETR          IANHSM         ABELIAN     [  0]    ***   
       AO_LADDERS           IAOLAD         SINGLEPASS  [  1]    ***   
       AV_SCF               IAVSCF         OFF         [  0]    ***   
       BASIS                IBASIS         AUG-PCVQZ   [ 52]    ***   
       BOTHVECTORS          BOTHVC         OFF         [  0]    ***   
       BOX_POTENT           IPIAB          OFF         [  0]    ***   
       BREIT                IBREIT         OFF         [  0]    ***   
       BRUCK_CONV           IBRTOL          10D-  4             ***   
       BRUECKNER            IBRKNR         OFF         [  0]    ***   
       BUFFERSIZE           IBUFFS              4096            ***   
       CACHE_RECS           ICHREC             10               ***   
       CALCLEVEL            ICLLVL         CCSD        [ 10]    ***   
       CCORBOPT             ICCORB         OFF         [  0]  x 0.01  
       CC_CONV              ICCCNV          10D- 14             ***   
       CC_EXPORDER          ICCEOR              5               ***   
       CC_EXTRAPOL          ICCEXT         DIIS        [  1]    ***   
       CC_GUESS             ICCGES         MP2         [  0]    ***   
       CC_MAXCYC            ICCCYC            100              cycles 
       CC_PROGRAM           ICCPRO         VCC         [  0]    ***   
       CHARGE               ICHRGE              0               ***   
       CHOLESKY             ICHOLE         OFF         [  0]    ***   
       CIS_CONV             ICISTL              5               ***   
       COMM_SIZE            IPSIZE            ***               ***   
       CONSTANT             ICONST         OLD         [  1]    ***   
       CONTINUUM            ICONTU         NONE        [  0]    ***   
       CONTRACTION          ICNTYP         GENERAL     [  1]    ***   
       COORDINATES          ICOORD         INTERNAL    [  0]    ***   
       CPHF_CONVER          ICPHFT          10D- 16             ***   
       CPHF_MAXCYC          ICPHFC             64              cycles 
       CUBIC                ICUBIC         OFF         [  0]    ***   
       CURVILINEAR          ICURVY         ON          [  1]    ***   
       DBOC                 IDBOC          ON          [  1]    ***   
       DCT                  IDCT           OFF         [  0]    ***   
       DERIV_LEV            IDRLVL         SECOND      [  2]    ***   
       DEVMEM_SIZE          IDVMEM          50000000           MByte  
       DIAG_MRCC            IEOMST          10D-  0             ***   
       DIFF_TYPE            IDIFTY         RELAXED     [  0]    ***   
       DIRECT               IDIRCT         OFF         [  0]    ***   
       DROPMO               IDRPMO      NONE         
       ECP                  IECP           OFF         [  0]    ***   
       EIGENVECTOR          IVEC                1               ***   
       EL_ANHARM            IELANH         OFF         [  0]    ***   
       EOMFOLLOW            IEOMSR         ENERGY      [  0]    ***   
       EOMIP                IEOMIP         OFF         [  0]    ***   
       EOMLEVEL             HBARFM         SAME        [  0]    ***   
       EOM_MRCC             IMRCCE         NEW         [  1]    ***   
       EOM_NONIT            EOMNON         OFF         [  0]    ***   
       EOM_NSING            IEOMSI          10D-  0             ***   
       EOM_NSTATES          IMRCCD         DAVIDSON    [  0]    ***   
       EOM_NTRIP            IEOMTR          10D-  0             ***   
       EOM_ORDER            IEXORD         ENERGY      [  0]    ***   
       EOM_PROPSTA          IEOMST              0               ***   
       ESTATE_CONV          IEXTOL          10D-  5             ***   
       ESTATE_DIAG          IEXDIG         ITERATIVE   [  0]    ***   
       ESTATE_LOCK          IESLOC         ON          [  1]    ***   
       ESTATE_MAXC          IEXMXC             40               ***   
       ESTATE_PROP          IEXPRP         OFF         [  0]    ***   
       EVAL_HESS            IRECAL              0            # of cyc.
       EXCITATION           IEXCIT              0               ***   
       EXCITE               IEXCIT         NONE        [  0]    ***   
       EXTERN_POT           IEXPOT         OFF         [  0]    ***   
       FCGRADNEW            IFCGNW         OFF         [  0]    ***   
       FC_FIELD             IFINFC              0             x 10-6  
       FD_CALTYPE           IFDCAL         GRADONLY    [  0]    ***   
       FD_PROJECT           IFDPRJ         OFF         [  1]    ***   
       FD_STEPSIZE          IDISFD              0            10-4 bohr
       FD_USEGROUP          IFDGRP         FULL        [  0]    ***   
       FILE_RECSIZ          IFLREC              4096           words  
       FINITE_PERT          IFIPER              0             x 10-6  
       FIXGEOM              IFIXGM         OFF         [  0]    ***   
       FOCK                 IFOCK          AO          [  1]    ***   
       FREQ_ALGORI          IVIALG         STANDARD    [  0]    ***   
       FROZEN_CORE          IFROCO         OFF         [  0]    ***   
       GAMMA_ABCD           IGABCD         STORE       [  0]    ***   
       GAMMA_ABCI           IGABCI         STORE       [  0]    ***   
       GENBAS_1             IGNBS1              0               ***   
       GENBAS_2             IGNBS2              0               ***   
       GENBAS_3             IGNBS3              0               ***   
       GENBAS_4             IGNBS4              0               ***   
       GEO_CONV             ICONTL              5              H/bohr 
       GEO_MAXCYC           IOPTCY             50               ***   
       GEO_MAXSTEP          IMXSTP            300            millibohr
       GEO_METHOD           INR            SINGLE_POINT[  5]    ***   
       GIAO                 IGIAO          OFF         [  1]    ***   
       GIMIC                IGIMIC         OFF         [  0]    ***   
       GRID                 IGRID          OFF         [  0]    ***   
       GRID_ALGO            IGALGO         SERIAL      [  0]    ***   
       GUESS                IGUESS         MOREAD      [  0]    ***   
       HBAR                 IHBAR          OFF         [  0]    ***   
       HESS_TYPE            IHESTP         SCF         [  0]    ***   
       HF2_FILE             IHF2Fl         USE         [  1]    ***   
       HFSTABILITY          ISTABL         OFF         [  0]    ***   
       INCORE               INCORE         OFF         [  0]    ***   
       INPUT_MRCC           IMRCC          ON          [  1]    ***   
       INTEGRALS            INTTYP         VMOL        [  1]    ***   
       JODA_PRINT           IJPRNT              0               ***   
       KEYWORD_OUT          IDMPKW         NO          [  0]    ***   
       LINDEP_TOL           ILINDP              8               ***   
       LINEQ_CONV           IZTACN          10D-  7           cycles  
       LINEQ_EXPOR          ILMAXD              5               ***   
       LINEQ_MAXCY          ILMAXC            100               ***   
       LINEQ_TYPE           ILTYPE         DIIS        [  1]    ***   
       LOCK_ORBOCC          ILOCOC         OFF         [  0]    ***   
       MEMORY_SIZE          IMEMSZ         500000000           words  
       MEM_UNIT             IMEMU          INTEGERWORDS[  0]    ***   
       MRCC                 IMRCCC         OFF         [  0]    ***   
       MULTIPLICTY          IMULTP              1               ***   
       NACOUPLING           IVCOUP         OFF         [  0]    ***   
       NEGEVAL              IDIE           ABORT       [  0]    ***   
       NEWNORM              INEWNO         OFF         [  0]    ***   
       NON-HF               INONHF         OFF         [  0]    ***   
       NTOP_TAMP            ITOPT2             15               ***   
       NUC_MODEL            INUCMO         POINT       [  0]    ***   
       OCCUPATION           IOCCU   ESTIMATED BY SCF 
       OPEN-SHELL           IOPEN          SPIN-ORBITAL[  0]    ***   
       OPTVIB               IOPTVB         OFF         [  0]    ***   
       ORBITALS             IORBTP         STANDARD    [  0]    ***   
       PARALLEL             IPARAL         ON          [  1]    ***   
       PARA_INT             IPINTS         ON          [  1]    ***   
       PARA_PRINT           IPPRIN              0               ***   
       PERT_ORB             IPTORB         STANDARD    [  0]    ***   
       POINTS               IGRDFD              0               ***   
       PRINT                IPRNT               0               ***   
       PROPS                IPROPS         OFF         [  0]    ***   
       PROP_INTEGR          IINTYP         INTERNAL    [  0]    ***   
       PSI                  IPSI           OFF         [  0]    ***   
       QC_ALG               IQCALG         FLM         [  0]    ***   
       QC_LINALG            IQCLIN         TRIDIAG     [  2]    ***   
       QC_MAXCYC            IQCMAX          10D-100           cycles  
       QC_MAXSCFCY          IQCMSC          10D- 15           cycles  
       QC_RTRUST            IQCRTR          10D-  0           x 10-3  
       QC_SKIPSCF           IQCSKI         OFF         [  0]    ***   
       QC_START             IQCSTA          10D-  1             ***   
       QRHFGUESS            IQGUES         OFF         [  0]    ***   
       QUARTIC              IQUART         OFF         [  0]    ***   
       RAMAN_INT            IRAMIN         OFF         [  0]    ***   
       RAMAN_ORB            IRAMRE         UNRELAXED   [  0]    ***   
       RDO                  IRDOFM         ON          [  1]    ***   
       REDUCE_REPR          REDREP         Ir          [  0]    ***   
       REFERENCE            IREFNC         RHF         [  0]    ***   
       RELATIVIST           IRELAT         OFF         [  0]    ***   
       RELAX_DENS           IRDENS         ON          [  1]    ***   
       RESET_FLAGS          IRESET         OFF         [  0]    ***   
       RESTART_CC           ICCRES         OFF         [  0]    ***   
       ROT_EVEC             ROTVEC              0               ***   
       SAVE_INTS            ISVINT         OFF         [  0]    ***   
       SCALE_ON             ISTCRT              0               ***   
       SCF_CONV             ISCFCV          10D- 10             ***   
       SCF_DAMPING          IDAMP               0             x 10-3  
       SCF_EXPORDE          IRPPOR              6               ***   
       SCF_EXPSTAR          IRPPLS              8               ***   
       SCF_EXTRAPO          IRPP           ON          [  1]    ***   
       SCF_MAXCYC           ISCFCY            150              cycles 
       SCF_NOSTOP           ISCFST         OFF         [  0]    ***   
       SCF_PRINT            ISCFPR              0               ***   
       SCF_PROG             ISCFPR         SCF         [  0]    ***   
       SD_FIELD             IFINSD              0             x 10-6  
       SOPERT               IPERSO         OFF         [  0]    ***   
       SPHERICAL            IDFGHI         ON          [  1]    ***   
       SPINORBIT            ISOCAL         OFF         [  0]    ***   
       SPINROTATIO          ISRCON         OFF         [  0]    ***   
       SPIN_FLIP            ISPFLP         OFF         [  0]    ***   
       SPIN_ORBIT           ISPORB         OFF         [  0]    ***   
       SPIN_SCAL            ISCSMP         OFF         [  0]    ***   
       STEEPSCALE           ISTPSC              1000          x 10-3  
       SUBGROUP             ISUBGP         DEFAULT     [  0]    ***   
       SUBGRPAXIS           ISBXYZ         X           [  0]    ***   
       SYMMETRY             ISYM           ON          [  0]    ***   
       SYM_CHECK            ISYMCK         OVERRIDE    [  1]    ***   
       T3_EXTRAPOL          IT3EXT         OFF         [  0]    ***   
       T4_EXTRAPOL          IT4EXP         OFF         [  0]    ***   
       TAMP_SUM             IEVERY              5               ***   
       TESTSUITE            ITESTS         OFF         [  0]    ***   
       THERMOCH             ITHERM         OFF         [  0]    ***   
       TOL_CHOLESK          ITOLCH          10D-  4             ***   
       TRANGRAD             IRESRM         OFF         [  0]    ***   
       TRANS_INV            ITRAIN         IGNORE      [  1]    ***   
       TREAT_PERT           ITREAT         SIMULTANEOUS[  0]    ***   
       TRIP_ALGORI          ITRALG         NORMAL      [  0]    ***   
       UIJ_THRESHO          IUIJTH              1               ***   
       UNITS                IUNITS         ANGSTROM    [  0]    ***   
       UNOS                 IUNOS          OFF         [  0]    ***   
       UPDATE_HESS          IHUPDT         ON          [  1]    ***   
       VIBPHASE             ISETPH         STANDARD    [  0]    ***   
       VIBRATION            IVIB           ANALYTIC    [  1]    ***   
       VIB_ALGORIT          IGEALG         STANDARD    [  0]    ***   
       VNATORB              IVNORB         OFF         [  0]    ***   
       VTRAN                IVTRAN         FULL/PARTIAL[  0]    ***   
       XFIELD               IXEFLD              0             x 10-6  
       XFORM_TOL            IXFTOL          10D- 11             ***   
       YFIELD               IYEFLD              0             x 10-6  
       ZFIELD               IZEFLD            200             x 10-6  
       ZSCALE_EXP           IZEXPS         OFF         [  0]    ***   
    -------------------------------------------------------------------
   2 entries found in Z-matrix 
   Job Title : Carbon Monoxide DBOC calculation                                                
   There are  1 unique internal coordinates.
   Of these,  0 will be optimized.
   User supplied Z-matrix: 
--------------------------------------------------------------------------------
       SYMBOL    BOND      LENGTH    ANGLE     ANGLE     DIHED     ANGLE
                  TO      (ANGST)    WRT      (DEG)      WRT      (DEG)
--------------------------------------------------------------------------------
        C    
        O          1         r    
                  *Initial values for internal coordinates* 
                      Name             Value
                        r               1.8000000000
--------------------------------------------------------------------------------
  read isotopes from ZMAT file 
   Rotational constants (in cm-1): 
          0.7588702367             0.7588702367
   Rotational constants (in MHz): 
      22750.3605443973         22750.3605443973
********************************************************************************
   The full molecular point group is CXv .
   The largest Abelian subgroup of the full molecular point group is C2v .
   The computational point group is C2v .
********************************************************************************
--------------------------------------------------------------------------------
   Analysis of internal coordinates specified by Z-matrix 
--------------------------------------------------------------------------------
   *The nuclear repulsion energy is   14.111389333333332 a.u.
   *There is   1 degree of freedom within the tot. symm. molecular subspace.
   *Z-matrix requests optimization of   0 coordinates.
   *The optimization is constrained.
   *The following   1 parameters can have non-zero 
    derivatives within the totally symmetric subspace:
             r    [ 1]
   *The following   0 parameters are to be optimized:

   *The following coordinates must be varied in an  unconstrained optimization.
             r    [ 1]
--------------------------------------------------------------------------------


 ----------------------------------------------------------------
         Coordinates used in calculation (QCOMP) 
 ----------------------------------------------------------------
 Z-matrix   Atomic            Coordinates (in bohr)
  Symbol    Number           X              Y              Z
 ----------------------------------------------------------------
     C         6        -0.00000000     0.00000000     1.94345389
     O         8         0.00000000     0.00000000    -1.45805384
 ----------------------------------------------------------------
 
   Interatomic distance matrix (Angstroms) 
 
                 C             O    
                [ 1]        [ 2]
  C    [ 1]     0.00000
  O    [ 2]     1.80000     0.00000
 rotcon2
   Rotational constants (in cm-1): 
          0.7588702367             0.0000000000
   Rotational constants (in MHz): 
      22750.3605443973             0.0000000000
  ECPDATA file not present.   Using default ECPDATA. 
  @GTFLGS-I, Hessian will be transformed to curvilinear coordinates.
  There are  218 basis functions.
 @CHECKOUT-I, Total execution time (CPU/WALL):        0.12/       0.15 seconds.
--executable xjoda finished with status     0 in        0.19 seconds (walltime).
 --invoking executable--
/nfs/workspaces/public/cfour_mpi/bin/xvmol
 SERIAL VERSION OF MOLECULE STARTED
********************************************************************************
                    INPUT FROM MOL FILE
********************************************************************************
INTGRL        1    0    1    0    0    0    0    0    0                         
         *** CFOUR Program System (Release V0.1) ***                            
Carbon Monoxide DBOC calculation                                                
    2    2 X  Y       0.10E-08              0    0                              
   9999.00      3.00                                                            
          6.00000000    1    5    1    1    1    1    1                         
C #1  -0.000000000000000   0.000000000000000   1.943453894712839                
   16    9                                                                      
   33980.0000000000       9.100000000000000E-005 -1.900000000000000E-005        
  0.000000000000000E+000  0.000000000000000E+000  0.000000000000000E+000        
  0.000000000000000E+000  0.000000000000000E+000  0.000000000000000E+000        
  0.000000000000000E+000                                                        
   5089.00000000000       7.040000000000000E-004 -1.510000000000000E-004        
  0.000000000000000E+000  0.000000000000000E+000  0.000000000000000E+000        
  0.000000000000000E+000  0.000000000000000E+000  0.000000000000000E+000        
  0.000000000000000E+000                                                        
   1157.00000000000       3.693000000000000E-003 -7.850000000000000E-004        
  0.000000000000000E+000  0.000000000000000E+000  0.000000000000000E+000        
  0.000000000000000E+000  0.000000000000000E+000  0.000000000000000E+000        
  0.000000000000000E+000                                                        
   326.600000000000       1.536000000000000E-002 -3.324000000000000E-003        
  0.000000000000000E+000  0.000000000000000E+000  0.000000000000000E+000        
  0.000000000000000E+000  0.000000000000000E+000  0.000000000000000E+000        
  0.000000000000000E+000                                                        
   106.100000000000       5.292900000000000E-002 -1.151200000000000E-002        
  0.000000000000000E+000  0.000000000000000E+000  0.000000000000000E+000        
  0.000000000000000E+000  0.000000000000000E+000  0.000000000000000E+000        
  0.000000000000000E+000                                                        
   38.1100000000000       0.147043000000000      -3.416000000000000E-002        
  0.000000000000000E+000  0.000000000000000E+000  0.000000000000000E+000        
  0.000000000000000E+000  0.000000000000000E+000  0.000000000000000E+000        
  0.000000000000000E+000                                                        
   14.7500000000000       0.305631000000000      -7.717300000000001E-002        
  0.000000000000000E+000  0.000000000000000E+000  0.000000000000000E+000        
  0.000000000000000E+000  0.000000000000000E+000  0.000000000000000E+000        
  0.000000000000000E+000                                                        
   6.03500000000000       0.399345000000000      -0.141493000000000             
  0.000000000000000E+000  0.000000000000000E+000  0.000000000000000E+000        
  0.000000000000000E+000  0.000000000000000E+000  0.000000000000000E+000        
  0.000000000000000E+000                                                        
   2.53000000000000       0.217051000000000      -0.118019000000000             
  0.000000000000000E+000  0.000000000000000E+000  0.000000000000000E+000        
  0.000000000000000E+000  0.000000000000000E+000  0.000000000000000E+000        
  0.000000000000000E+000                                                        
  0.735500000000000       1.589400000000000E-002  0.273806000000000             
   1.00000000000000       0.000000000000000E+000  0.000000000000000E+000        
  0.000000000000000E+000  0.000000000000000E+000  0.000000000000000E+000        
  0.000000000000000E+000                                                        
  0.290500000000000      -3.084000000000000E-003  0.586510000000000             
  0.000000000000000E+000   1.00000000000000       0.000000000000000E+000        
  0.000000000000000E+000  0.000000000000000E+000  0.000000000000000E+000        
  0.000000000000000E+000                                                        
  0.111100000000000       9.779999999999999E-004  0.285430000000000             
  0.000000000000000E+000  0.000000000000000E+000   1.00000000000000             
  0.000000000000000E+000  0.000000000000000E+000  0.000000000000000E+000        
  0.000000000000000E+000                                                        
   7.21600000000000       0.000000000000000E+000  0.000000000000000E+000        
  0.000000000000000E+000  0.000000000000000E+000  0.000000000000000E+000        
   1.00000000000000       0.000000000000000E+000  0.000000000000000E+000        
  0.000000000000000E+000                                                        
   19.5700000000000       0.000000000000000E+000  0.000000000000000E+000        
  0.000000000000000E+000  0.000000000000000E+000  0.000000000000000E+000        
  0.000000000000000E+000   1.00000000000000       0.000000000000000E+000        
  0.000000000000000E+000                                                        
   53.0730000000000       0.000000000000000E+000  0.000000000000000E+000        
  0.000000000000000E+000  0.000000000000000E+000  0.000000000000000E+000        
  0.000000000000000E+000  0.000000000000000E+000   1.00000000000000             
  0.000000000000000E+000                                                        
  4.145000000000000E-002  0.000000000000000E+000  0.000000000000000E+000        
  0.000000000000000E+000  0.000000000000000E+000  0.000000000000000E+000        
  0.000000000000000E+000  0.000000000000000E+000  0.000000000000000E+000        
   1.00000000000000                                                             
   10    8                                                                      
   34.5100000000000       5.378000000000000E-003  0.000000000000000E+000        
  0.000000000000000E+000  0.000000000000000E+000  0.000000000000000E+000        
  0.000000000000000E+000  0.000000000000000E+000  0.000000000000000E+000        
   7.91500000000000       3.613200000000000E-002  0.000000000000000E+000        
  0.000000000000000E+000  0.000000000000000E+000  0.000000000000000E+000        
  0.000000000000000E+000  0.000000000000000E+000  0.000000000000000E+000        
   2.36800000000000       0.142493000000000       0.000000000000000E+000        
  0.000000000000000E+000  0.000000000000000E+000  0.000000000000000E+000        
  0.000000000000000E+000  0.000000000000000E+000  0.000000000000000E+000        
  0.813200000000000       0.342150000000000        1.00000000000000             
  0.000000000000000E+000  0.000000000000000E+000  0.000000000000000E+000        
  0.000000000000000E+000  0.000000000000000E+000  0.000000000000000E+000        
  0.289000000000000       0.463864000000000       0.000000000000000E+000        
   1.00000000000000       0.000000000000000E+000  0.000000000000000E+000        
  0.000000000000000E+000  0.000000000000000E+000  0.000000000000000E+000        
  0.100700000000000       0.250028000000000       0.000000000000000E+000        
  0.000000000000000E+000   1.00000000000000       0.000000000000000E+000        
  0.000000000000000E+000  0.000000000000000E+000  0.000000000000000E+000        
   8.18200000000000       0.000000000000000E+000  0.000000000000000E+000        
  0.000000000000000E+000  0.000000000000000E+000   1.00000000000000             
  0.000000000000000E+000  0.000000000000000E+000  0.000000000000000E+000        
   24.1860000000000       0.000000000000000E+000  0.000000000000000E+000        
  0.000000000000000E+000  0.000000000000000E+000  0.000000000000000E+000        
   1.00000000000000       0.000000000000000E+000  0.000000000000000E+000        
   71.4940000000000       0.000000000000000E+000  0.000000000000000E+000        
  0.000000000000000E+000  0.000000000000000E+000  0.000000000000000E+000        
  0.000000000000000E+000   1.00000000000000       0.000000000000000E+000        
  3.218000000000000E-002  0.000000000000000E+000  0.000000000000000E+000        
  0.000000000000000E+000  0.000000000000000E+000  0.000000000000000E+000        
  0.000000000000000E+000  0.000000000000000E+000   1.00000000000000             
    6    6                                                                      
   1.84800000000000        1.00000000000000       0.000000000000000E+000        
  0.000000000000000E+000  0.000000000000000E+000  0.000000000000000E+000        
  0.000000000000000E+000                                                        
  0.649000000000000       0.000000000000000E+000   1.00000000000000             
  0.000000000000000E+000  0.000000000000000E+000  0.000000000000000E+000        
  0.000000000000000E+000                                                        
  0.228000000000000       0.000000000000000E+000  0.000000000000000E+000        
   1.00000000000000       0.000000000000000E+000  0.000000000000000E+000        
  0.000000000000000E+000                                                        
   8.65600000000000       0.000000000000000E+000  0.000000000000000E+000        
  0.000000000000000E+000   1.00000000000000       0.000000000000000E+000        
  0.000000000000000E+000                                                        
   33.2130000000000       0.000000000000000E+000  0.000000000000000E+000        
  0.000000000000000E+000  0.000000000000000E+000   1.00000000000000             
  0.000000000000000E+000                                                        
  7.660000000000000E-002  0.000000000000000E+000  0.000000000000000E+000        
  0.000000000000000E+000  0.000000000000000E+000  0.000000000000000E+000        
   1.00000000000000                                                             
    4    4                                                                      
   1.41900000000000        1.00000000000000       0.000000000000000E+000        
  0.000000000000000E+000  0.000000000000000E+000                                
  0.485000000000000       0.000000000000000E+000   1.00000000000000             
  0.000000000000000E+000  0.000000000000000E+000                                
   24.6940000000000       0.000000000000000E+000  0.000000000000000E+000        
   1.00000000000000       0.000000000000000E+000                                
  0.187000000000000       0.000000000000000E+000  0.000000000000000E+000        
  0.000000000000000E+000   1.00000000000000                                     
    2    2                                                                      
   1.01100000000000        1.00000000000000       0.000000000000000E+000        
  0.424000000000000       0.000000000000000E+000   1.00000000000000             
          8.00000000    1    5    1    1    1    1    1                         
O #2   0.000000000000000   0.000000000000000  -1.458053842488941                
   16    9                                                                      
   61420.0000000000       9.000000000000001E-005 -2.000000000000000E-005        
  0.000000000000000E+000  0.000000000000000E+000  0.000000000000000E+000        
  0.000000000000000E+000  0.000000000000000E+000  0.000000000000000E+000        
  0.000000000000000E+000                                                        
   9199.00000000000       6.980000000000001E-004 -1.590000000000000E-004        
  0.000000000000000E+000  0.000000000000000E+000  0.000000000000000E+000        
  0.000000000000000E+000  0.000000000000000E+000  0.000000000000000E+000        
  0.000000000000000E+000                                                        
   2091.00000000000       3.664000000000000E-003 -8.290000000000000E-004        
  0.000000000000000E+000  0.000000000000000E+000  0.000000000000000E+000        
  0.000000000000000E+000  0.000000000000000E+000  0.000000000000000E+000        
  0.000000000000000E+000                                                        
   590.900000000000       1.521800000000000E-002 -3.508000000000000E-003        
  0.000000000000000E+000  0.000000000000000E+000  0.000000000000000E+000        
  0.000000000000000E+000  0.000000000000000E+000  0.000000000000000E+000        
  0.000000000000000E+000                                                        
   192.300000000000       5.242300000000000E-002 -1.215600000000000E-002        
  0.000000000000000E+000  0.000000000000000E+000  0.000000000000000E+000        
  0.000000000000000E+000  0.000000000000000E+000  0.000000000000000E+000        
  0.000000000000000E+000                                                        
   69.3200000000000       0.145921000000000      -3.626100000000000E-002        
  0.000000000000000E+000  0.000000000000000E+000  0.000000000000000E+000        
  0.000000000000000E+000  0.000000000000000E+000  0.000000000000000E+000        
  0.000000000000000E+000                                                        
   26.9700000000000       0.305258000000000      -8.299200000000000E-002        
  0.000000000000000E+000  0.000000000000000E+000  0.000000000000000E+000        
  0.000000000000000E+000  0.000000000000000E+000  0.000000000000000E+000        
  0.000000000000000E+000                                                        
   11.1000000000000       0.398508000000000      -0.152090000000000             
  0.000000000000000E+000  0.000000000000000E+000  0.000000000000000E+000        
  0.000000000000000E+000  0.000000000000000E+000  0.000000000000000E+000        
  0.000000000000000E+000                                                        
   4.68200000000000       0.216980000000000      -0.115331000000000             
  0.000000000000000E+000  0.000000000000000E+000  0.000000000000000E+000        
  0.000000000000000E+000  0.000000000000000E+000  0.000000000000000E+000        
  0.000000000000000E+000                                                        
   1.42800000000000       1.759400000000000E-002  0.288979000000000             
   1.00000000000000       0.000000000000000E+000  0.000000000000000E+000        
  0.000000000000000E+000  0.000000000000000E+000  0.000000000000000E+000        
  0.000000000000000E+000                                                        
  0.554700000000000      -2.502000000000000E-003  0.586128000000000             
  0.000000000000000E+000   1.00000000000000       0.000000000000000E+000        
  0.000000000000000E+000  0.000000000000000E+000  0.000000000000000E+000        
  0.000000000000000E+000                                                        
  0.206700000000000       9.540000000000000E-004  0.277624000000000             
  0.000000000000000E+000  0.000000000000000E+000   1.00000000000000             
  0.000000000000000E+000  0.000000000000000E+000  0.000000000000000E+000        
  0.000000000000000E+000                                                        
   12.9740000000000       0.000000000000000E+000  0.000000000000000E+000        
  0.000000000000000E+000  0.000000000000000E+000  0.000000000000000E+000        
   1.00000000000000       0.000000000000000E+000  0.000000000000000E+000        
  0.000000000000000E+000                                                        
   34.9000000000000       0.000000000000000E+000  0.000000000000000E+000        
  0.000000000000000E+000  0.000000000000000E+000  0.000000000000000E+000        
  0.000000000000000E+000   1.00000000000000       0.000000000000000E+000        
  0.000000000000000E+000                                                        
   93.8810000000000       0.000000000000000E+000  0.000000000000000E+000        
  0.000000000000000E+000  0.000000000000000E+000  0.000000000000000E+000        
  0.000000000000000E+000  0.000000000000000E+000   1.00000000000000             
  0.000000000000000E+000                                                        
  6.959000000000000E-002  0.000000000000000E+000  0.000000000000000E+000        
  0.000000000000000E+000  0.000000000000000E+000  0.000000000000000E+000        
  0.000000000000000E+000  0.000000000000000E+000  0.000000000000000E+000        
   1.00000000000000                                                             
   10    8                                                                      
   63.4200000000000       6.044000000000000E-003  0.000000000000000E+000        
  0.000000000000000E+000  0.000000000000000E+000  0.000000000000000E+000        
  0.000000000000000E+000  0.000000000000000E+000  0.000000000000000E+000        
   14.6600000000000       4.179900000000000E-002  0.000000000000000E+000        
  0.000000000000000E+000  0.000000000000000E+000  0.000000000000000E+000        
  0.000000000000000E+000  0.000000000000000E+000  0.000000000000000E+000        
   4.45900000000000       0.161143000000000       0.000000000000000E+000        
  0.000000000000000E+000  0.000000000000000E+000  0.000000000000000E+000        
  0.000000000000000E+000  0.000000000000000E+000  0.000000000000000E+000        
   1.53100000000000       0.356731000000000        1.00000000000000             
  0.000000000000000E+000  0.000000000000000E+000  0.000000000000000E+000        
  0.000000000000000E+000  0.000000000000000E+000  0.000000000000000E+000        
  0.530200000000000       0.448309000000000       0.000000000000000E+000        
   1.00000000000000       0.000000000000000E+000  0.000000000000000E+000        
  0.000000000000000E+000  0.000000000000000E+000  0.000000000000000E+000        
  0.175000000000000       0.244940000000000       0.000000000000000E+000        
  0.000000000000000E+000   1.00000000000000       0.000000000000000E+000        
  0.000000000000000E+000  0.000000000000000E+000  0.000000000000000E+000        
   14.4750000000000       0.000000000000000E+000  0.000000000000000E+000        
  0.000000000000000E+000  0.000000000000000E+000   1.00000000000000             
  0.000000000000000E+000  0.000000000000000E+000  0.000000000000000E+000        
   42.7300000000000       0.000000000000000E+000  0.000000000000000E+000        
  0.000000000000000E+000  0.000000000000000E+000  0.000000000000000E+000        
   1.00000000000000       0.000000000000000E+000  0.000000000000000E+000        
   126.140000000000       0.000000000000000E+000  0.000000000000000E+000        
  0.000000000000000E+000  0.000000000000000E+000  0.000000000000000E+000        
  0.000000000000000E+000   1.00000000000000       0.000000000000000E+000        
  5.348000000000000E-002  0.000000000000000E+000  0.000000000000000E+000        
  0.000000000000000E+000  0.000000000000000E+000  0.000000000000000E+000        
  0.000000000000000E+000  0.000000000000000E+000   1.00000000000000             
    6    6                                                                      
   3.77500000000000        1.00000000000000       0.000000000000000E+000        
  0.000000000000000E+000  0.000000000000000E+000  0.000000000000000E+000        
  0.000000000000000E+000                                                        
   1.30000000000000       0.000000000000000E+000   1.00000000000000             
  0.000000000000000E+000  0.000000000000000E+000  0.000000000000000E+000        
  0.000000000000000E+000                                                        
  0.444000000000000       0.000000000000000E+000  0.000000000000000E+000        
   1.00000000000000       0.000000000000000E+000  0.000000000000000E+000        
  0.000000000000000E+000                                                        
   14.9270000000000       0.000000000000000E+000  0.000000000000000E+000        
  0.000000000000000E+000   1.00000000000000       0.000000000000000E+000        
  0.000000000000000E+000                                                        
   57.5440000000000       0.000000000000000E+000  0.000000000000000E+000        
  0.000000000000000E+000  0.000000000000000E+000   1.00000000000000             
  0.000000000000000E+000                                                        
  0.154000000000000       0.000000000000000E+000  0.000000000000000E+000        
  0.000000000000000E+000  0.000000000000000E+000  0.000000000000000E+000        
   1.00000000000000                                                             
    4    4                                                                      
   2.66600000000000        1.00000000000000       0.000000000000000E+000        
  0.000000000000000E+000  0.000000000000000E+000                                
  0.859000000000000       0.000000000000000E+000   1.00000000000000             
  0.000000000000000E+000  0.000000000000000E+000                                
   26.4830000000000       0.000000000000000E+000  0.000000000000000E+000        
   1.00000000000000       0.000000000000000E+000                                
  0.324000000000000       0.000000000000000E+000  0.000000000000000E+000        
  0.000000000000000E+000   1.00000000000000                                     
    2    2                                                                      
   1.84600000000000        1.00000000000000       0.000000000000000E+000        
  0.714000000000000       0.000000000000000E+000   1.00000000000000             
FINISH                                                                          
 
********************************************************************************
 ONE- AND TWO-ELECTRON INTEGRALS OVER SYMMETRY-ADAPTED AOS ARE CALCULATED.

  SPHERICAL HARMONICS ARE USED.
  
  INTEGRALS LESS THAN  0.10E-13 ARE NEGLECTED.

  NUCLEAR REPULSION ENERGY :   14.1113893333 A.U.
  @MOLECU-I, ONE ELECTRON INTEGRALS (CPU/WALL):        0.07/       0.07 SECONDS.
  @TWOEL-I,    4349430 INTEGRALS OF SYMMETRY TYPE  I I I I
  @TWOEL-I,   18763705 INTEGRALS OF SYMMETRY TYPE  I J I J
  @TWOEL-I,    9883567 INTEGRALS OF SYMMETRY TYPE  I I J J
  @TWOEL-I,   13837296 INTEGRALS OF SYMMETRY TYPE  I J K L
  @TWOEL-I, TOTAL NUMBER OF 2-E INTEGRALS   46833998.
  @MOLECU-I, TWO ELECTRON INTEGRALS (CPU/WALL):      147.14/      21.03 SECONDS.
 @CHECKOUT-I, Total execution time (CPU/WALL):      147.23/      21.12 seconds.

Running with 14 threads/proc

--executable xvmol finished with status     0 in       21.15 seconds (walltime).
 --invoking executable--
/nfs/workspaces/public/cfour_mpi/bin/xvmol2ja
 @GETMEM-I,  Allocated    3814 MB of main memory.
 @CHECKOUT-I, Total execution time (CPU/WALL):        0.13/       0.03 seconds.
--executable xvmol2ja finished with status     0 in        0.05 seconds (walltime).
 --invoking executable--
/nfs/workspaces/public/cfour_mpi/bin/xvprop
 @GETMEM-I,  Allocated    3814 MB of main memory.
   Property integrals will be calculated.
    --------------------------------------------------------------
                                   Property evaluated at 
    Property type                X             Y             Z
    --------------------------------------------------------------
    Dipole moment               ----          ----          ----  
    Quadrupole moment           ----          ----          ----  
    Octopole moment             ----          ----          ----  
    Relativisitic corr.         ----          ----          ----  
    Second moment            0.0000000     0.0000000     0.0000000
    Electron density         0.0000000     0.0000000     1.9434539
    Electron density         0.0000000     0.0000000    -1.4580538
    Field gradient           0.0000000     0.0000000     1.9434539
    Field gradient           0.0000000     0.0000000    -1.4580538
    Potential                0.0000000     0.0000000     1.9434539
    Potential                0.0000000     0.0000000    -1.4580538
    --------------------------------------------------------------
 @CHECKOUT-I, Total execution time (CPU/WALL):        1.30/       1.31 seconds.
--executable xvprop finished with status     0 in        1.32 seconds (walltime).
 --invoking executable--
/nfs/workspaces/public/cfour_mpi/bin/xvscf
  There are  218 functions in the AO basis.

  There are 4 irreducible representations.

       Irrep        # of functions
         1                 86
         2                 52
         3                 52
         4                 28


  Parameters for SCF calculation: 
        SCF reference function:  RHF  
  Maximum number of iterations:  150
     Full symmetry point group: CXv 
     Computational point group: C2v 
        Initial density matrix: MOREAD                 
     SCF convergence tolerance: 10**(-10)
  DIIS convergence acceleration:  ON
          Latest start for DIIS:   8
                     DIIS order:   6

  Memory information:    2523578 words required.
  Fock matrices are constructed from AO integral file.
 @GETMEM-I,  Allocated      19 MB of main memory.
  Initialization and symmetry analysis required      0.002 seconds.

  Adding electric field perturbation to one-electron Hamiltonian.
  Field direction     : Z
  Field strength      :  0.0002000 a.u.

  @INITGES-I, Occupancies from core Hamiltonian:

          Alpha population by irrep:   5    1    1    0
           Beta population by irrep:   5    1    1    0


 total no. of electrons in initial guess :  0.000000000000000E+000
  --------------------------------------------------------------------
  Iteration         Total Energy            Largest Density Difference
  --------------------------------------------------------------------
       0            14.111390074807657              0.0000000000D+00
   current occupation vector 
     5  1  1  0
     5  1  1  0
       1           -93.762564852379128              0.1756643452D+02
   current occupation vector 
     5  1  1  0
     5  1  1  0
       2           -97.501537212264012              0.1756643012D+02
   current occupation vector 
     5  1  1  0
     5  1  1  0
       3           -99.671874476443080              0.7020446018D+01
   current occupation vector 
     5  1  1  0
     5  1  1  0
       4           -93.991237007476713              0.7019170882D+01
   current occupation vector 
     5  1  1  0
     5  1  1  0
       5           -99.700985015301455              0.7081541211D+01
   current occupation vector 
     5  1  1  0
     5  1  1  0
       6           -93.907683919710166              0.7081521287D+01
   current occupation vector 
     5  1  1  0
     5  1  1  0
       7           -99.699437854613237              0.7083990978D+01
   current occupation vector 
     5  1  1  0
     5  1  1  0
       8           -93.905928385869871              0.7083990940D+01
   current occupation vector 
     5  1  1  0
     5  1  1  0
       9          -106.478943129262333              0.6164356396D+01
   current occupation vector 
     5  1  1  0
     5  1  1  0
      10          -110.495278252862349              0.1439298758D+01
   current occupation vector 
     5  1  1  0
     5  1  1  0
      11          -112.043355049615812              0.9055334799D+00
   current occupation vector 
     5  1  1  0
     5  1  1  0
      12          -112.209742116417758              0.8247283679D+00
   current occupation vector 
     5  1  1  0
     5  1  1  0
      13          -112.380035053148276              0.1760470825D+00
   current occupation vector 
     5  1  1  0
     5  1  1  0
      14          -112.422555256675082              0.1832804839D+00
   current occupation vector 
     5  1  1  0
     5  1  1  0
      15          -112.425245138525128              0.6453971117D-01
   current occupation vector 
     5  1  1  0
     5  1  1  0
      16          -112.428608282757310              0.1100081744D+00
   current occupation vector 
     5  1  1  0
     5  1  1  0
      17          -112.431474235343174              0.1398769134D+00
   current occupation vector 
     5  1  1  0
     5  1  1  0
      18          -112.432101502689477              0.8249735247D-01
   current occupation vector 
     5  1  1  0
     5  1  1  0
      19          -112.432103194906361              0.7968115113D-02
   current occupation vector 
     5  1  1  0
     5  1  1  0
      20          -112.432104984263745              0.6141930284D-02
   current occupation vector 
     5  1  1  0
     5  1  1  0
      21          -112.432105066366944              0.1399326439D-02
   current occupation vector 
     5  1  1  0
     5  1  1  0
      22          -112.432105074264967              0.3488468896D-03
   current occupation vector 
     5  1  1  0
     5  1  1  0
      23          -112.432105074288458              0.1026189187D-04
   current occupation vector 
     5  1  1  0
     5  1  1  0
      24          -112.432105074288913              0.4636911157D-05
   current occupation vector 
     5  1  1  0
     5  1  1  0
      25          -112.432105074289282              0.1412556817D-05
   current occupation vector 
     5  1  1  0
     5  1  1  0
      26          -112.432105074289879              0.8130754825D-06
   current occupation vector 
     5  1  1  0
     5  1  1  0
      27          -112.432105074290064              0.1774441640D-06
   current occupation vector 
     5  1  1  0
     5  1  1  0
      28          -112.432105074289510              0.4891167404D-07
   current occupation vector 
     5  1  1  0
     5  1  1  0
      29          -112.432105074289069              0.3778043878D-08
   current occupation vector 
     5  1  1  0
     5  1  1  0
      30          -112.432105074289495              0.1648702064D-08
   current occupation vector 
     5  1  1  0
     5  1  1  0
      31          -112.432105074289197              0.1194968569D-09
   current occupation vector 
     5  1  1  0
     5  1  1  0
      32          -112.432105074288415              0.3865583409D-09
   current occupation vector 
     5  1  1  0
     5  1  1  0

  SCF has converged.

 Density matrix saved to file den.dat
 total electron number:   14.0000000000002     
     E(SCF)=      -112.432105074288927              0.4039257817D-10

  Eigenvector printing suppressed.

 @PUTMOS-I, Writing converged MOs to NEWMOS. 
 @PUTMOS-I, Symmetry   1 Full Blocks 21 Partial Blocksize   2
 @PUTMOS-I, Symmetry   2 Full Blocks 13 Partial Blocksize   0
 @PUTMOS-I, Symmetry   3 Full Blocks 13 Partial Blocksize   0
 @PUTMOS-I, Symmetry   4 Full Blocks  7 Partial Blocksize   0
 @PUTFOCK-I, Writing converged Fock matrix to NEWFOCK. 
 @PUTFOCK-I, Symmetry   1 Full Blocks 21 Partial Blocksize   2
 @PUTFOCK-I, Symmetry   2 Full Blocks 13 Partial Blocksize   0
 @PUTFOCK-I, Symmetry   3 Full Blocks 13 Partial Blocksize   0
 @PUTFOCK-I, Symmetry   4 Full Blocks  7 Partial Blocksize   0


 
  ORBITAL EIGENVALUES (ALPHA)  (1H = 27.2113834 eV)

       MO #        E(hartree)               E(eV)           FULLSYM    COMPSYM
       ----   --------------------   --------------------   -------   ---------
    1     1         -20.6205413490        -561.1134565632     SG+        A1 (1)
    2     2         -11.5320565542        -313.8032122879     SG+        A1 (1)
    3     3          -1.2188614492         -33.1669062059     SG+        A1 (1)
    4     4          -0.8137044779         -22.1420245223     SG+        A1 (1)
    5     5          -0.4814871076         -13.1019302865     SG+        A1 (1)
    6   139          -0.4767724462         -12.9736378275      PI        B2 (3)
    7    87          -0.4767724462         -12.9736378275      PI        B1 (2)
  +++++++++++++++++++++++++++++++++++++++++++++++++++++++++++++++++++++++++++++
    8   140          -0.0281932779          -0.7671780942      PI        B2 (3)
    9    88          -0.0281932779          -0.7671780942      PI        B1 (2)
   10     6           0.0573515771           1.5606157517     SG+        A1 (1)
   11     7           0.0682883514           1.8582205124     SG+        A1 (1)
   12   141           0.0815638129           2.2194641851      PI        B2 (3)
   13    89           0.0815638129           2.2194641851      PI        B1 (2)
   14     8           0.1425565470           3.8791608557     SG+        A1 (1)
   15     9           0.1611349498           4.3847048970     SG+        A1 (1)
   16   142           0.1840812538           5.0091055726      PI        B2 (3)
   17    90           0.1840812538           5.0091055726      PI        B1 (2)
   18   191           0.2190022524           5.9593542566      DE        A2 (4)
   19    10           0.2190022524           5.9593542566      DE        A1 (1)
   20    91           0.2783160018           7.5733634316      PI        B1 (2)
   21   143           0.2783160018           7.5733634316      PI        B2 (3)
   22    11           0.2846813099           7.7465722700     SG+        A1 (1)
   23    12           0.3060771035           8.3287814139     SG+        A1 (1)
   24    13           0.4084481112          11.1144381527     SG+        A1 (1)
   25    92           0.4128581457          11.2344412931      PI        B1 (2)
   26   144           0.4128581457          11.2344412931      PI        B2 (3)
   27    14           0.5174975057          14.0818230375     SG+        A1 (1)
   28   192           0.5501220530          14.9695821008      DE        A2 (4)
   29    15           0.5501220530          14.9695821008      DE        A1 (1)
   30    93           0.6247320659          16.9998237680      PI        B1 (2)
   31   145           0.6247320659          16.9998237680      PI        B2 (3)
   32    16           0.6952105729          18.9176414429     SG+        A1 (1)
   33    94           0.7226065715          19.6631244638      PH        B1 (2)
   34   146           0.7226065715          19.6631244638      PH        B2 (3)
   35   193           0.7296287150          19.8542067033      DE        A2 (4)
   36    17           0.7296287150          19.8542067033      DE        A1 (1)
   37    95           0.7642805926          20.7971322313      PI        B1 (2)
   38   147           0.7642805926          20.7971322313      PI        B2 (3)
   39    18           0.8011296871          21.7998470698     SG+        A1 (1)
   40   194           0.8418208432          22.9071097188      DE        A2 (4)
   41    19           0.8418208432          22.9071097188      DE        A1 (1)
   42   148           0.8526668566          23.2022447486      PI        B2 (3)
   43    96           0.8526668566          23.2022447486      PI        B1 (2)
   44    20           0.9166776053          24.9440657730     SG+        A1 (1)
   45   149           1.0639039798          28.9502990939      PI        B2 (3)
   46    97           1.0639039798          28.9502990939      PI        B1 (2)
   47    21           1.1610928376          31.5949423676     SG+        A1 (1)
   48    22           1.3000540812          35.3762700451     SG+        A1 (1)
   49   150           1.4171873341          38.5636278989      PH        B2 (3)
   50    98           1.4171873341          38.5636278989      PH        B1 (2)
   51   151           1.4442120448          39.2990076627      PI        B2 (3)
   52    99           1.4442120448          39.2990076627      PI        B1 (2)
   53    23           1.5761221086          42.8884629820     SG+        A1 (1)
   54   195           1.5808485175          43.0170751068      DE        A2 (4)
   55    24           1.5808485175          43.0170751068      DE        A1 (1)
   56   152           1.6428278351          44.7036180823      PI        B2 (3)
   57   100           1.6428278351          44.7036180823      PI        B1 (2)
   58   196           1.6522208940          44.9592162088      DE        A2 (4)
   59    25           1.6522208940          44.9592162088      DE        A1 (1)
   60    26           1.8163244753          49.4247016752     SG+        A1 (1)
   61    27           1.9241233789          52.3580589714     SG+        A1 (1)
   62   153           1.9861248896          54.0452058509      PI        B2 (3)
   63   101           1.9861248896          54.0452058509      PI        B1 (2)
   64   197           2.0512678112          55.8178348658      PI        A2 (4)
   65    28           2.0512678112          55.8178348658      PI        A1 (1)
   66   198           2.1109943504          57.4430766239      DE        A2 (4)
   67    29           2.1109943504          57.4430766239      DE        A1 (1)
   68   102           2.1494916055          58.4906401924      PH        B1 (2)
   69   154           2.1494916055          58.4906401924      PH        B2 (3)
   70   103           2.1917896316          59.6416279977      PH        B1 (2)
   71   155           2.1917896316          59.6416279977      PH        B2 (3)
   72   156           2.1922657488          59.6545838051      PI        B2 (3)
   73   104           2.1922657488          59.6545838051      PI        B1 (2)
   74    30           2.2257927863          60.5669008776     SG+        A1 (1)
   75   199           2.2613501363          61.5344655611      DE        A2 (4)
   76    31           2.2613501363          61.5344655611      DE        A1 (1)
   77    32           2.3459670986          63.8370101630     SG+        A1 (1)
   78   157           2.4445183639          66.5187264294      PI        B2 (3)
   79   105           2.4445183639          66.5187264294      PI        B1 (2)
   80   200           2.5079481641          68.2447390404      DE        A2 (4)
   81    33           2.5079481641          68.2447390404      DE        A1 (1)
   82    34           2.6116837627          71.0675281865     SG+        A1 (1)
   83   158           2.6723167306          72.7174351216      PI        B2 (3)
   84   106           2.6723167306          72.7174351216      PI        B1 (2)
   85    35           2.8021516498          76.2504228868     SG+        A1 (1)
   86   159           3.1859142309          86.6931336158      PI        B2 (3)
   87   107           3.1859142309          86.6931336158      PI        B1 (2)
   88    36           3.7034231192         100.7752663894     SG+        A1 (1)
   89   201           3.7287337741         101.4640043228      PI        A2 (4)
   90    37           3.7287337741         101.4640043228      PI        A1 (1)
   91   160           3.8348145596         104.3506092484      PH        B2 (3)
   92   108           3.8348145596         104.3506092484      PH        B1 (2)
   93    38           4.0537285724         110.3075623825     SG+        A1 (1)
   94   202           4.1001083741         111.5696209488      DE        A2 (4)
   95    39           4.1001083741         111.5696209488      DE        A1 (1)
   96   161           4.1236564932         112.2103978473      PI        B2 (3)
   97   109           4.1236564932         112.2103978473      PI        B1 (2)
   98   110           4.1582776664         113.1524878645      PH        B1 (2)
   99   162           4.1582776664         113.1524878645      PH        B2 (3)
  100    40           4.2693773564         116.1756641254     SG+        A1 (1)
  101   203           4.3139041891         117.3873008414      DE        A2 (4)
  102    41           4.3139041891         117.3873008414      DE        A1 (1)
  103   163           4.4453734332         120.9647608458      PI        B2 (3)
  104   111           4.4453734332         120.9647608458      PI        B1 (2)
  105   204           4.5253665718         123.1414848095      DE        A2 (4)
  106    42           4.5253665718         123.1414848095      DE        A1 (1)
  107    43           4.7986066476         130.5767252729     SG+        A1 (1)
  108   164           4.9433872108         134.5164046881      PI        B2 (3)
  109   112           4.9433872108         134.5164046881      PI        B1 (2)
  110    44           5.1199276560         139.3203144269     SG+        A1 (1)
  111   165           5.3457953033         145.4664855747      PI        B2 (3)
  112   113           5.3457953033         145.4664855747      PI        B1 (2)
  113   205           5.8002992451         157.8341665928      PI        A2 (4)
  114    45           5.8002992451         157.8341665928      PI        A1 (1)
  115   166           5.8726984520         159.8042491698      PH        B2 (3)
  116   114           5.8726984520         159.8042491698      PH        B1 (2)
  117    46           5.8728774997         159.8091213063     SG+        A1 (1)
  118   206           6.0098033827         163.5350640057      DE        A2 (4)
  119    47           6.0098033827         163.5350640057      DE        A1 (1)
  120   115           6.0909172608         165.7422848411      PI        B1 (2)
  121   167           6.0909172608         165.7422848411      PI        B2 (3)
  122    48           6.1081688443         166.2117242935     SG+        A1 (1)
  123   207           6.2268972096         169.4424873631      DE        A2 (4)
  124    49           6.2268972096         169.4424873631      DE        A1 (1)
  125   168           6.3252526252         172.1188742849      PH        B2 (3)
  126   116           6.3252526252         172.1188742849      PH        B1 (2)
  127   208           6.4483850763         175.4694786217      DE        A2 (4)
  128    50           6.4483850763         175.4694786218      DE        A1 (1)
  129   169           6.6282073217         180.3626906857      PI        B2 (3)
  130   117           6.6282073217         180.3626906857      PI        B1 (2)
  131   170           6.8623505539         186.7340519466      PI        B2 (3)
  132   118           6.8623505539         186.7340519466      PI        B1 (2)
  133    51           6.9999284183         190.4777359626     SG+        A1 (1)
  134    52           7.3050779798         198.7812776754     SG+        A1 (1)
  135    53           9.1842762872         249.9168633022     SG+        A1 (1)
  136   119           9.5441909592         259.7106394337      PI        B1 (2)
  137   171           9.5441909592         259.7106394338      PI        B2 (3)
  138    54          10.5853140090         288.0410379089     SG+        A1 (1)
  139   209          10.6965819672         291.0687929781      PI        A2 (4)
  140    55          10.6965819672         291.0687929782      PI        A1 (1)
  141   120          10.7199655042         291.7050913705      PH        B1 (2)
  142   172          10.7199655042         291.7050913705      PH        B2 (3)
  143   210          10.8869861446         296.2499540513      DE        A2 (4)
  144    56          10.8869861446         296.2499540513      DE        A1 (1)
  145   173          11.0077207853         299.5353106493      PI        B2 (3)
  146   121          11.0077207853         299.5353106493      PI        B1 (2)
  147    57          11.0405157172         300.4277061145     SG+        A1 (1)
  148   174          11.9302044778         324.6373680846      PH        B2 (3)
  149   122          11.9302044778         324.6373680846      PH        B1 (2)
  150   211          11.9699120635         325.7178664237      DE        A2 (4)
  151    58          11.9699120635         325.7178664237      DE        A1 (1)
  152   123          12.1131881989         329.6166082762      PI        B1 (2)
  153   175          12.1131881989         329.6166082762      PI        B2 (3)
  154    59          12.3859094315         337.0377302969     SG+        A1 (1)
  155   212          12.7265048314         346.3058023101      DE        A2 (4)
  156    60          12.7265048314         346.3058023101      DE        A1 (1)
  157   176          13.0567139757         355.2912499374      PI        B2 (3)
  158   124          13.0567139757         355.2912499374      PI        B1 (2)
  159    61          13.2885838622         361.6007503162     SG+        A1 (1)
  160    62          17.0882238336         464.9942103605     SG+        A1 (1)
  161   125          18.6394219344         507.2044566120      PI        B1 (2)
  162   177          18.6394219344         507.2044566120      PI        B2 (3)
  163    63          19.2762335271         524.5329810125     SG+        A1 (1)
  164    64          26.2295997228         713.7436944864      DE        A1 (1)
  165   213          26.2295997228         713.7436944864      DE        A2 (4)
  166   178          26.3985024269         718.3397707231      PI        B2 (3)
  167   126          26.3985024269         718.3397707231      PI        B1 (2)
  168    65          26.7729919354         728.5301483200     SG+        A1 (1)
  169   127          33.2996483563         906.1294985093      PI        B1 (2)
  170   179          33.2996483563         906.1294985097      PI        B2 (3)
  171    66          33.9869819151         924.8327955004     SG+        A1 (1)
  172    67          35.4761444578         965.3549683947     SG+        A1 (1)
  173    68          47.0926315245        1281.4556517285      DE        A1 (1)
  174   214          47.0926315245        1281.4556517285      DE        A2 (4)
  175   180          47.2466646021        1285.6471048580      PI        B2 (3)
  176   128          47.2466646021        1285.6471048580      PI        B1 (2)
  177    69          47.3765099617        1289.1803767209     SG+        A1 (1)
  178    70          63.5649590368        1729.6904711562     SG+        A1 (1)
  179   129          66.2417638201        1802.5300324021      PI        B1 (2)
  180   181          66.2417638201        1802.5300324021      PI        B2 (3)
  181    71          66.7224701249        1815.6107159629     SG+        A1 (1)
  182   182          98.4931609337        2680.1351644462      PH        B2 (3)
  183   130          98.4931609338        2680.1351644462      PH        B1 (2)
  184    72          98.5101664599        2680.5979083393      DE        A1 (1)
  185   215          98.5101664599        2680.5979083393      DE        A2 (4)
  186   131          98.5256049795        2681.0180118148      PI        B1 (2)
  187   183          98.5256049795        2681.0180118148      PI        B2 (3)
  188    73          98.5314509890        2681.1770898209     SG+        A1 (1)
  189   132         103.3312860700        2811.7872424656      PI        B1 (2)
  190   184         103.3312860700        2811.7872424657      PI        B2 (3)
  191    74         103.3320654664        2811.8084509200      DE        A1 (1)
  192   216         103.3320654665        2811.8084509226      DE        A2 (4)
  193    75         103.3420482831        2812.0800971732     SG+        A1 (1)
  194   185         103.3502683632        2812.3037769239      PH        B2 (3)
  195   133         103.3502683632        2812.3037769239      PH        B1 (2)
  196   217         114.9422964992        3127.7388989151      DE        A2 (4)
  197    76         114.9422964992        3127.7388989151      DE        A1 (1)
  198   186         115.0253314290        3129.9983942271      PI        B2 (3)
  199   134         115.0253314290        3129.9983942271      PI        B1 (2)
  200    77         115.1844620925        3134.3285597209     SG+        A1 (1)
  201   135         116.6309535550        3173.6895934933      PI        B1 (2)
  202   187         116.6309535550        3173.6895934937      PI        B2 (3)
  203    78         117.2232238367        3189.8060872052     SG+        A1 (1)
  204    79         121.7315836178        3312.4847937142     SG+        A1 (1)
  205   218         198.5785758889        5403.5977635381      DE        A2 (4)
  206    80         198.5785758889        5403.5977635381      DE        A1 (1)
  207   188         198.6622282453        5405.8740598809      PI        B2 (3)
  208   136         198.6622282453        5405.8740598809      PI        B1 (2)
  209    81         198.7322212323        5407.7786658844     SG+        A1 (1)
  210    82         216.1092849316        5880.6326085743     SG+        A1 (1)
  211   137         224.7362323589        6115.3837825887      PI        B1 (2)
  212   189         224.7362323589        6115.3837825888      PI        B2 (3)
  213    83         225.1140838923        6125.6656455342     SG+        A1 (1)
  214   138         395.1927193949       10753.7406043439      PI        B1 (2)
  215   190         395.1927193949       10753.7406043444      PI        B2 (3)
  216    84         395.6512015000       10766.2165366876     SG+        A1 (1)
  217    85         508.4973444715       13836.9161982965     SG+        A1 (1)
  218    86         894.9208253106       24352.0336901703     SG+        A1 (1)


  VSCF finished.

 @CHECKOUT-I, Total execution time (CPU/WALL):       52.55/       9.10 seconds.
--executable xvscf finished with status     0 in        9.12 seconds (walltime).
 --invoking executable--
/nfs/workspaces/public/cfour_mpi/bin/xvtran
 @GETMEM-I,  Allocated    3814 MB of main memory.
  Full RHF integral transformation
  Transformation of IIII integrals :
  1 pass through the AO integral file was required.
     4349430 AO integrals were read.
     8471047 MO integrals were written to HF2.
  Transformation of IIJJ integrals :
  1 pass through the AO integral file was required.
     9883567 AO integrals were read.
    14211967 MO integrals were written to HF2.
  Transformation of IJIJ integrals :
  1 pass through the AO integral file was required.
    18763705 AO integrals were read.
    26268493 MO integrals were written to HF2.
  Transformation of IJKL integrals :
  1 pass through the AO integral file was required.
    13837296 AO integrals were read.
    17867769 MO integrals were written to HF2.
  Summary of active molecular orbitals: 
------------------------------------------------------------------------
 
  Index      Eigenvalue    Symmetry    Index      Eigenvalue    Symmetry
------------------------------------------------------------------------
     1       -20.6205413        1       110         4.1236565        2
     2       -11.5320566        1       111         4.1582777        2
     3        -1.2188614        1       112         4.4453734        2
     4        -0.8137045        1       113         4.9433872        2
     5        -0.4814871        1       114         5.3457953        2
     6        -0.4767724        2       115         5.8726985        2
     7        -0.4767724        3       116         6.0909173        2
     8         0.0573516        1       117         6.3252526        2
     9         0.0682884        1       118         6.6282073        2
    10         0.1425565        1       119         6.8623506        2
    11         0.1611349        1       120         9.5441910        2
    12         0.2190023        1       121        10.7199655        2
    13         0.2846813        1       122        11.0077208        2
    14         0.3060771        1       123        11.9302045        2
    15         0.4084481        1       124        12.1131882        2
    16         0.5174975        1       125        13.0567140        2
    17         0.5501221        1       126        18.6394219        2
    18         0.6952106        1       127        26.3985024        2
    19         0.7296287        1       128        33.2996484        2
    20         0.8011297        1       129        47.2466646        2
    21         0.8418208        1       130        66.2417638        2
    22         0.9166776        1       131        98.4931609        2
    23         1.1610928        1       132        98.5256050        2
    24         1.3000541        1       133       103.3312861        2
    25         1.5761221        1       134       103.3502684        2
    26         1.5808485        1       135       115.0253314        2
    27         1.6522209        1       136       116.6309536        2
    28         1.8163245        1       137       198.6622282        2
    29         1.9241234        1       138       224.7362324        2
    30         2.0512678        1       139       395.1927194        2
    31         2.1109944        1       140        -0.0281933        3
    32         2.2257928        1       141         0.0815638        3
    33         2.2613501        1       142         0.1840813        3
    34         2.3459671        1       143         0.2783160        3
    35         2.5079482        1       144         0.4128581        3
    36         2.6116838        1       145         0.6247321        3
    37         2.8021516        1       146         0.7226066        3
    38         3.7034231        1       147         0.7642806        3
    39         3.7287338        1       148         0.8526669        3
    40         4.0537286        1       149         1.0639040        3
    41         4.1001084        1       150         1.4171873        3
    42         4.2693774        1       151         1.4442120        3
    43         4.3139042        1       152         1.6428278        3
    44         4.5253666        1       153         1.9861249        3
    45         4.7986066        1       154         2.1494916        3
    46         5.1199277        1       155         2.1917896        3
    47         5.8002992        1       156         2.1922657        3
    48         5.8728775        1       157         2.4445184        3
    49         6.0098034        1       158         2.6723167        3
    50         6.1081688        1       159         3.1859142        3
    51         6.2268972        1       160         3.8348146        3
    52         6.4483851        1       161         4.1236565        3
    53         6.9999284        1       162         4.1582777        3
    54         7.3050780        1       163         4.4453734        3
    55         9.1842763        1       164         4.9433872        3
    56        10.5853140        1       165         5.3457953        3
    57        10.6965820        1       166         5.8726985        3
    58        10.8869861        1       167         6.0909173        3
    59        11.0405157        1       168         6.3252526        3
    60        11.9699121        1       169         6.6282073        3
    61        12.3859094        1       170         6.8623506        3
    62        12.7265048        1       171         9.5441910        3
    63        13.2885839        1       172        10.7199655        3
    64        17.0882238        1       173        11.0077208        3
    65        19.2762335        1       174        11.9302045        3
    66        26.2295997        1       175        12.1131882        3
    67        26.7729919        1       176        13.0567140        3
    68        33.9869819        1       177        18.6394219        3
    69        35.4761445        1       178        26.3985024        3
    70        47.0926315        1       179        33.2996484        3
    71        47.3765100        1       180        47.2466646        3
    72        63.5649590        1       181        66.2417638        3
    73        66.7224701        1       182        98.4931609        3
    74        98.5101665        1       183        98.5256050        3
    75        98.5314510        1       184       103.3312861        3
    76       103.3320655        1       185       103.3502684        3
    77       103.3420483        1       186       115.0253314        3
    78       114.9422965        1       187       116.6309536        3
    79       115.1844621        1       188       198.6622282        3
    80       117.2232238        1       189       224.7362324        3
    81       121.7315836        1       190       395.1927194        3
    82       198.5785759        1       191         0.2190023        4
    83       198.7322212        1       192         0.5501221        4
    84       216.1092849        1       193         0.7296287        4
    85       225.1140839        1       194         0.8418208        4
    86       395.6512015        1       195         1.5808485        4
    87       508.4973445        1       196         1.6522209        4
    88       894.9208253        1       197         2.0512678        4
    89        -0.0281933        2       198         2.1109944        4
    90         0.0815638        2       199         2.2613501        4
    91         0.1840813        2       200         2.5079482        4
    92         0.2783160        2       201         3.7287338        4
    93         0.4128581        2       202         4.1001084        4
    94         0.6247321        2       203         4.3139042        4
    95         0.7226066        2       204         4.5253666        4
    96         0.7642806        2       205         5.8002992        4
    97         0.8526669        2       206         6.0098034        4
    98         1.0639040        2       207         6.2268972        4
    99         1.4171873        2       208         6.4483851        4
   100         1.4442120        2       209        10.6965820        4
   101         1.6428278        2       210        10.8869861        4
   102         1.9861249        2       211        11.9699121        4
   103         2.1494916        2       212        12.7265048        4
   104         2.1917896        2       213        26.2295997        4
   105         2.1922657        2       214        47.0926315        4
   106         2.4445184        2       215        98.5101665        4
   107         2.6723167        2       216       103.3320655        4
   108         3.1859142        2       217       114.9422965        4
   109         3.8348146        2       218       198.5785759        4
------------------------------------------------------------------------
  -20.6205413489990       -11.5320565542391       -1.21886144920897     
 -0.813704477894573      -0.481487107580218      -0.476772446177365     
 -0.476772446177386       5.735157705093327E-002  6.828835142479443E-002
  0.142556546968099       0.161134949758672       0.219002252439405     
  0.284681309883339       0.306077103521532       0.408448111192793     
  0.517497505749383       0.550122052993262       0.695210572900700     
  0.729628714993065       0.801129687135748       0.841820843213654     
  0.916677605335860        1.16109283762534        1.30005408122958     
   1.57612210858661        1.58084851749310        1.65222089402496     
   1.81632447526196        1.92412337887071        2.05126781116904     
   2.11099435039595        2.22579278632197        2.26135013632337     
   2.34596709857277        2.50794816409085        2.61168376270504     
[...]
 Perturbed amplitude equations converged in    23 iterations.
  Dominant contributions to perturbed wavefunction:
    7    0   46    0   0.3885975205 AA  
    7    0   22    0   0.3279778952 AA  
    7    0   32    0   0.2636307092 AA  
    7    0   36    0   0.2457761942 AA  
    7    0   28    0   0.2415707602 AA  
    7    7  140   46  -0.2344244985 ABAB
    7    7   46  140  -0.2344244985 ABAB
    7    0   54    0  -0.2314356003 AA  
    7    0   16    0  -0.2303004942 AA  
    7    7  140   22  -0.2242950903 ABAB
    7    7   22  140  -0.2242950903 ABAB
    7    0   25    0   0.2124248689 AA  
    7    0   37    0   0.2083198280 AA  
    7    0   56    0   0.2022088902 AA  
    7    0   24    0   0.1952484790 AA  
    7    7  140   32  -0.1877952485 ABAB
    7    7   32  140  -0.1877952485 ABAB
    7    0   63    0   0.1845756349 AA  
    7    0   38    0   0.1747403486 AA  
    7    0   40    0   0.1695285126 AA  
  norm of converged amps    1.57383673995327     
 Starting iterative solution of the perturbed Lambda equations.
 The DIIS procedure is used to accelerate convergence.
 Convergence criterion is 10**(-7).
 Maximum number of iterations is 100.
 Convergence information after     1 iterations: 
 Largest element of residual vector :  0.74584171E-01.
 Largest element of DIIS residual   :  0.74584171E-01.
 Convergence information after     2 iterations: 
 Largest element of residual vector :  0.20531434E-01.
 Largest element of DIIS residual   :  0.14789166E-01.
 Convergence information after     3 iterations: 
 Largest element of residual vector :  0.70662867E-02.
 Largest element of DIIS residual   :  0.56693126E-02.
 Convergence information after     4 iterations: 
 Largest element of residual vector :  0.27834234E-02.
 Largest element of DIIS residual   :  0.27010407E-02.
 Convergence information after     5 iterations: 
 Largest element of residual vector :  0.28020563E-02.
 Largest element of DIIS residual   :  0.24979775E-02.
 Convergence information after     6 iterations: 
 Largest element of residual vector :  0.17591439E-02.
 Largest element of DIIS residual   :  0.10099164E-02.
 Convergence information after     7 iterations: 
 Largest element of residual vector :  0.10812198E-02.
 Largest element of DIIS residual   :  0.51627449E-03.
 Convergence information after     8 iterations: 
 Largest element of residual vector :  0.40546737E-03.
 Largest element of DIIS residual   :  0.19252274E-03.
 Convergence information after     9 iterations: 
 Largest element of residual vector :  0.15602301E-03.
 Largest element of DIIS residual   :  0.99915790E-04.
 Convergence information after    10 iterations: 
 Largest element of residual vector :  0.11927755E-03.
 Largest element of DIIS residual   :  0.90134995E-04.
 Convergence information after    11 iterations: 
 Largest element of residual vector :  0.50693953E-04.
 Largest element of DIIS residual   : -0.23804127E-04.
 Convergence information after    12 iterations: 
 Largest element of residual vector :  0.37709404E-04.
 Largest element of DIIS residual   :  0.19402538E-04.
 Convergence information after    13 iterations: 
 Largest element of residual vector :  0.11844122E-04.
 Largest element of DIIS residual   :  0.83630888E-05.
 Convergence information after    14 iterations: 
 Largest element of residual vector :  0.10158742E-04.
 Largest element of DIIS residual   :  0.48225874E-05.
 Convergence information after    15 iterations: 
 Largest element of residual vector :  0.57498152E-05.
 Largest element of DIIS residual   :  0.31719995E-05.
 Convergence information after    16 iterations: 
 Largest element of residual vector :  0.23596632E-05.
 Largest element of DIIS residual   :  0.75284645E-06.
 Convergence information after    17 iterations: 
 Largest element of residual vector :  0.14619740E-05.
 Largest element of DIIS residual   :  0.74142476E-06.
 Convergence information after    18 iterations: 
 Largest element of residual vector :  0.38484313E-06.
 Largest element of DIIS residual   :  0.22272570E-06.
 Convergence information after    19 iterations: 
 Largest element of residual vector :  0.35005110E-06.
 Largest element of DIIS residual   :  0.18584574E-06.
 Convergence information after    20 iterations: 
 Largest element of residual vector :  0.14041860E-06.
 Largest element of DIIS residual   :  0.10473975E-06.
 Convergence information after    21 iterations: 
 Largest element of residual vector :  0.12022173E-06.
 Largest element of DIIS residual   :  0.46417598E-07.
 Perturbed Lambda equations converged in    21 iterations.
  Dominant contributions to perturbed wavefunction:
    7    7  140   46  -0.1406661106 ABAB
    7    7   46  140  -0.1406661106 ABAB
    7    7  140   22  -0.1384663005 ABAB
    7    7   22  140  -0.1384663005 ABAB
    7    0   46    0   0.1186726437 AA  
    7    7  140   32  -0.1167147585 ABAB
    7    7   32  140  -0.1167147585 ABAB
    7    0   22    0   0.0945465388 AA  
    7    7  140   36  -0.0933826558 ABAB
    7    7   36  140  -0.0933826558 ABAB
    7    6   46   89  -0.0913254119 ABAB
    6    7   89   46  -0.0913254119 ABAB
    7    6   22   89  -0.0888561509 ABAB
    6    7   89   22  -0.0888561509 ABAB
    7    7  140   16   0.0873279492 ABAB
    7    7   16  140   0.0873279492 ABAB
    7    5   46   10  -0.0826890055 ABAB
    5    7   10   46  -0.0826890055 ABAB
    7    7  140   56  -0.0823790518 ABAB
    7    7   56  140  -0.0823790518 ABAB
        The DBOC first-order density matrix is being calculated 
             (Symmetry block 3, perturbation   2)
 term   2.65529211258487     
 final tnorm  0.593439247437276     
  norm contr. I: |<0|L dT/dx|0>|^2   0.000000000000000E+000
  norm contr. II: <0|[nabla(1+L)e-T][nabla e^T]|0>   2.65529211258487     
  total norm contribution   2.65529211258487     
 oo  1.461549888774369E-002
 vv  -19.8262766871601     
 vo -5.934928231445853E-002
  Correlated perturbed 1-el contribution to DBOC  -19.8710104705868       cm**-1
  SUM_I |dc_I/dx|^2 contribution to DBOC   9.99640372673885       cm**-1
 
 
  The total diagonal Born-Oppenheimer correction (DBOC) is:      0.0041329042 a.u.
  The total diagonal Born-Oppenheimer correction (DBOC) is:        907.067628 cm-1
 
 Total CC energy including DBOC  -112.990336476199     
 First-order density matrix is being calculated  (Symmetry block 3, perturbation   2)
 Calculation of the contributions of <pq||rs> to dI(i,j)/dx required   1.4 seconds.
 Calculation of the contributions of <pq||rs> to dI(a,b)/dx required  14.7 seconds.
 Calculation of the contributions of <pq||rs> to dI(i,a)/dx required   8.9 seconds.
 First-order Z-vector equations are solved for 1 perturbation.
 Convergence reached after  20 iterations.
        U*G(pq,rs) contribution is being calculated
             (Symmetry block 3, perturbation   2)

 CCSD contribution to force constants 

        0.0000000000        0.0000000000        0.0000000000
        0.0000000000        0.0000000000        0.0000000000
        0.0000000000        0.0000000000        0.0000000000
        0.0000000000        0.0000000000        0.0000000000
        0.0000000000        0.0000000000        0.0000000000
        0.0000000000        0.0000000000        0.0000000000
        0.0000000000        0.0000000000        0.0000000000
        0.0000000000        0.0000000000        0.0000000000
        0.0000000000        0.0000000000        0.0000000000
        0.0000000000        0.0000000000        0.0000000000
        0.0000000000        0.0000000000        0.0000000000
        0.0000000000      -12.4436950816       12.4436950816

 CCSD contribution to dipole derivatives 

        0.0000000000        0.0000000000        0.0000000000
        0.0000000000        0.0000000000        0.0000000000
        0.0000000000        0.0000000000        0.0000000000
        0.0000000000        0.0000000000       -0.0538139463
        0.0000000000        0.0000000000        0.0000000000
        0.0000000000        0.0000000000        0.0000000000
 @CHECKOUT-I, Total execution time (CPU/WALL):     1121.37/     220.12 seconds.
--executable xsdcc finished with status     0 in      220.17 seconds (walltime).
 --invoking executable--
/nfs/workspaces/public/cfour_mpi/bin/xanti
 @GETMEM-I,  Allocated    3814 MB of main memory.
 CCSD MO derivative gammas will be sorted to Mulliken order.
 @CHECKOUT-I, Total execution time (CPU/WALL):        9.97/      25.91 seconds.
--executable xanti finished with status     0 in       25.94 seconds (walltime).
 --invoking executable--
/nfs/workspaces/public/cfour_mpi/bin/xbcktrn
 @GETMEM-I,  Allocated    3814 MB of main memory.
 CCSD MO derivative gammas will be transformed to the AO basis.
 @CHECKOUT-I, Total execution time (CPU/WALL):       17.22/       5.28 seconds.
--executable xbcktrn finished with status     0 in        5.30 seconds (walltime).
 --invoking executable--
/nfs/workspaces/public/cfour_mpi/bin/xvdint
 @GETMEM-I,  Allocated    3814 MB of main memory.
 One- and two-electron integral derivatives are calculated
 for RHF-CC/MBPT hessians and dipole derivatives.
 Spherical gaussians are used.
  magnet F F
                    8722  records have been written to the Sort file.
  Total length of Sort file :             178609116  words.
 Evaluation of 2el integral derivatives

                      Two-electron integral gradient
                      ------------------------------

                         C #1 z     0.0000000000
                         O #2 z     0.0000000000


 C #1       0.0000000000            0.0495844102            0.0000000000
 O #2       0.0000000000           -0.0495844102            0.0000000000


 Evaluation of 2e integral derivatives required  254.61 seconds.
  contribution to Hessian
        0.0000000000        0.0000000000        0.0000000000
        0.0000000000        0.0495844102       -0.0495844102
 @CHECKOUT-I, Total execution time (CPU/WALL):      254.59/      61.95 seconds.
--executable xvdint finished with status     0 in       61.98 seconds (walltime).
 --invoking executable--
/nfs/workspaces/public/cfour_mpi/bin/xanti
 @GETMEM-I,  Allocated    3814 MB of main memory.
 CCSD MO gammas will be sorted to Mulliken order.
 @CHECKOUT-I, Total execution time (CPU/WALL):       10.23/       8.82 seconds.
--executable xanti finished with status     0 in        8.85 seconds (walltime).
 --invoking executable--
/nfs/workspaces/public/cfour_mpi/bin/xbcktrn
 @GETMEM-I,  Allocated    3814 MB of main memory.
 CCSD MO gammas will be transformed to the AO basis.
 @CHECKOUT-I, Total execution time (CPU/WALL):       25.38/       6.02 seconds.
--executable xbcktrn finished with status     0 in        6.05 seconds (walltime).
 --invoking executable--
/nfs/workspaces/public/cfour_mpi/bin/xvdint
 @GETMEM-I,  Allocated    3814 MB of main memory.
 One- and two-electron integral derivatives are calculated
 for RHF-CC/MBPT hessians and dipole derivatives.
 Spherical gaussians are used.
  magnet F F

                     Kinetic energy integral gradient
                     --------------------------------

                         C #1 z    -0.3461282799
                         O #2 z     0.3461282799


 C #1       0.0000000000            0.0000000000           -0.3461282799
 O #2       0.0000000000            0.0000000000            0.3461282799



                   Nuclear attraction integral gradient
                   ------------------------------------

                         C #1 z    11.0705818578
                         O #2 z   -11.0705818578


 C #1       0.0000000000            0.0000000000           11.0705818578
 O #2       0.0000000000            0.0000000000          -11.0705818578



                      Reorthonormalization gradient
                      -----------------------------

                         C #1 z     0.0000000000
                         O #2 z     0.0000000000


 C #1       0.0000000000            0.0000000000            0.0000000000
 O #2       0.0000000000            0.0000000000            0.0000000000



                     Kinetic energy integral Hessian
                     -------------------------------


           Symmetry 1

           C #1 z      O #2 z

 C #1 z    0.370576
 O #2 z   -0.370576    0.370576


           Symmetry 2

           C #1 x      O #2 x

 C #1 x   -0.217467
 O #2 x    0.217467   -0.217467


           Symmetry 3

           C #1 y      O #2 y

 C #1 y   -0.217467
 O #2 y    0.217467   -0.217467




           C #1 x      C #1 y      C #1 z      O #2 x      O #2 y      O #2 z

 C #1 x   -0.217467
 C #1 y    0.000000   -0.217467
 C #1 z    0.000000    0.000000    0.370576

 O #2 x    0.217467    0.000000    0.000000   -0.217467
 O #2 y    0.000000    0.217467    0.000000    0.000000   -0.217467
 O #2 z    0.000000    0.000000   -0.370576    0.000000    0.000000    0.370576




                   Nuclear attraction integral Hessian
                   -----------------------------------


           Symmetry 1

           C #1 z      O #2 z

 C #1 z   -6.480452
 O #2 z    6.480452   -6.480452


           Symmetry 2

           C #1 x      O #2 x

 C #1 x    4.948632
 O #2 x   -4.948632    4.948632


           Symmetry 3

           C #1 y      O #2 y

 C #1 y    4.948632
 O #2 y   -4.948632    4.948632




           C #1 x      C #1 y      C #1 z      O #2 x      O #2 y      O #2 z

 C #1 x    4.948632
 C #1 y    0.000000    4.948632
 C #1 z    0.000000    0.000000   -6.480452

 O #2 x   -4.948632    0.000000    0.000000    4.948632
 O #2 y    0.000000   -4.948632    0.000000    0.000000    4.948632
 O #2 z    0.000000    0.000000    6.480452    0.000000    0.000000   -6.480452




                Highest order reorthonormalization Hessian
                ------------------------------------------


           Symmetry 1

           C #1 z      O #2 z

 C #1 z    0.000000
 O #2 z    0.000000    0.000000


           Symmetry 2

           C #1 x      O #2 x

 C #1 x    0.000000
 O #2 x    0.000000    0.000000


           Symmetry 3

           C #1 y      O #2 y

 C #1 y    0.000000
 O #2 y    0.000000    0.000000




           C #1 x      C #1 y      C #1 z      O #2 x      O #2 y      O #2 z




                Electronic contributions to dipole moment
                -----------------------------------------

                               au             Debye

                    z      0.61484982      1.56279262

  Conversion factor used: 1 a.u. =   2.54174691 Debye 



   Electronic contributions to static part of dipole moment derivatives
   --------------------------------------------------------------------


                     Total dipole moment derivatives
                     -------------------------------


           Symmetry 1
                              Ez

               C #1 z    -5.68910499
               O #2 z    -8.31089501

           Symmetry 2
                              Ex

               C #1 x    -5.70275512
               O #2 x    -8.29724488

           Symmetry 3
                              Ey

               C #1 y    -5.70275512
               O #2 y    -8.29724488



                       Ex          Ey          Ez

      C #1    x   -5.702755    0.000000    0.000000
      C #1    y    0.000000   -5.702755    0.000000
      C #1    z    0.000000    0.000000   -5.689105

      O #2    x   -8.297245    0.000000    0.000000
      O #2    y    0.000000   -8.297245    0.000000
      O #2    z    0.000000    0.000000   -8.310895

 Evaluation of 1e integral derivatives required    1.64 seconds.
                    8815  records have been written to the Sort file.
  Total length of Sort file :             180513570  words.
 Evaluation of 2el integral derivatives

                      Two-electron integral gradient
                      ------------------------------

                         C #1 z    -6.1007737479
                         O #2 z     6.1007737479


 C #1       0.0000000000            0.0000000000           -6.1007737479
 O #2       0.0000000000            0.0000000000            6.1007737479


 Evaluation of 2e integral derivatives required  555.95 seconds.

                            Molecular gradient
                            ------------------

                         C #1 z     0.4751108942
                         O #2 z    -0.4751108942


 C #1       0.0000000000            0.0000000000            0.4751108942
 O #2       0.0000000000            0.0000000000           -0.4751108942


  Molecular gradient norm 0.672E+00

                            Molecular hessian
                            -----------------


           Symmetry 1

           C #1 z      O #2 z

 C #1 z    5.525144
 O #2 z   -5.525144    5.525144


           Symmetry 2

           C #1 x      O #2 x

 C #1 x   12.610459
 O #2 x  -12.610459   12.610459


           Symmetry 3

           C #1 y      O #2 y

 C #1 y   12.610459
 O #2 y  -12.610459   12.610459




           C #1 x      C #1 y      C #1 z      O #2 x      O #2 y      O #2 z

 C #1 x   12.610459
 C #1 y    0.000000   12.610459
 C #1 z    0.000000    0.000000    5.525144

 O #2 x  -12.610459    0.000000    0.000000   12.610459
 O #2 y    0.000000  -12.610459    0.000000    0.000000   12.610459
 O #2 z    0.000000    0.000000   -5.525144    0.000000    0.000000    5.525144




                           Total dipole moment
                           -------------------

                               au             Debye

                    z      0.61114244      1.55336942

  Conversion factor used: 1 a.u. =   2.54174691 Debye 



                     Total dipole moment derivatives
                     -------------------------------


           Symmetry 1
                              Ez

               C #1 z     0.28980871
               O #2 z    -0.28980871

           Symmetry 2
                              Ex

               C #1 x     0.19643852
               O #2 x    -0.19643852

           Symmetry 3
                              Ey

               C #1 y     0.19643852
               O #2 y    -0.19643852



                       Ex          Ey          Ez

      C #1    x    0.196439    0.000000    0.000000
      C #1    y    0.000000    0.196439    0.000000
      C #1    z    0.000000    0.000000    0.289809

      O #2    x   -0.196439    0.000000    0.000000
      O #2    y    0.000000   -0.196439    0.000000
      O #2    z    0.000000    0.000000   -0.289809

 @CHECKOUT-I, Total execution time (CPU/WALL):      557.58/      97.90 seconds.
--executable xvdint finished with status     0 in       97.93 seconds (walltime).
 --invoking executable--
/nfs/workspaces/public/cfour_mpi/bin/xjoda
  @GTFLGS-I, Hessian will be transformed to curvilinear coordinates.
  @GTFLGS-I, Hessian will be transformed to curvilinear coordinates.
  igrd and ihes are                      0                     1
  gradient from JOBARC 
   0.000000000000000   0.000000000000000   0.475110894157626
   0.000000000000000   0.000000000000000  -0.475110894157626
 
  @PROJFCM-I, Projecting force constant matrix onto totally symmetric subspace.
  Largest difference between matrix elements of symmetrized
  and unsymmetrized FCM :    -0.1438849040E-12.
  read isotopes from ZMAT file 
 
  Summary of diagonal Born-Oppenheimer correction at the correlated level
  The total diagonal Born-Oppenheimer correction (DBOC) is:      0.0041329042 a.u.
  The total diagonal Born-Oppenheimer correction (DBOC) is:        907.067628 cm-1
  The total diagonal Born-Oppenheimer correction (DBOC) is:            10.851 kJ/mole
  hellooooooo 
  readis is  F
 
 @CHECKOUT-I, Total execution time (CPU/WALL):        0.01/       0.01 seconds.
--executable xjoda finished with status     0 in        0.04 seconds (walltime).
  The final electronic energy is      -112.990336476199147 a.u. 
  This computation required                         2383.07 seconds (walltime).
