 --invoking executable--
/nfs/workspaces/public/cfour_mpi/bin/xjoda


   *************************************************************************
         <<<     CCCCCC     CCCCCC   |||     CCCCCC     CCCCCC   >>>
       <<<      CCC        CCC       |||    CCC        CCC         >>>
      <<<      CCC        CCC        |||   CCC        CCC            >>>
    <<<        CCC        CCC        |||   CCC        CCC              >>>
      <<<      CCC        CCC        |||   CCC        CCC            >>>
       <<<      CCC        CCC       |||    CCC        CCC         >>>
         <<<     CCCCCC     CCCCCC   |||     CCCCCC     CCCCCC   >>>
   *************************************************************************

     ****************************************************************
     * CFOUR Coupled-Cluster techniques for Computational Chemistry *
     ****************************************************************
 

   Department of Chemistry                Institut fuer Physikalische Chemie
   University of Florida                  Universitaet Mainz
   Gainesville, FL 32611, USA             D-55099 Mainz, Germany

   Department of Chemistry                Fakultaet fuer Chemie und Biowiss.
   Johns Hopkins University               Karlsruher Institut fuer Technologie
   Baltimore, MD 21218, USA               D-76131 Karlsruhe, Germany

   Department of Chemistry                Department of Physical Chemistry
   Southern Methodist University          Eotvos Lorand University
   Dallas, TX 75275, USA                  H-1053 Budapest, Hungary

 
                       Version 2.1
 
                     vincent.theory.phys.ucl.ac.uk                     
                     Mon 24 Feb 15:41:03 GMT 2025                      
                     integer*8 version is running
 
********************************************************************************
*                          Input from ZMAT file                                *
********************************************************************************
Carbon Monoxide DBOC calculation                                                
C                                                                               
O 1 r                                                                           
                                                                                
r=0.9620689655172414                                                            
                                                                                
                                                                                
*CFOUR(CALC=CCSD,BASIS=AUG-PCVQZ,SCF_CONV=10                                    
CC_CONV=14,DBOC=ON,MEMORY=500000000                                             
ZFIELD=-200)                                                                    
                                                                                
%isotopes                                                                       
12                                                                              
16                                                                              
********************************************************************************
  @GTFLGS-I, Hessian will be transformed to curvilinear coordinates.
    -------------------------------------------------------------------
                    CFOUR Control Parameters 
    -------------------------------------------------------------------
        External           Internal           Value            Units
          Name               Name
    -------------------------------------------------------------------
       ABCDTYPE             IABCDT         STANDARD    [  0]    ***   
       ANHARMONIC           IANHAR         OFF         [  0]    ***   
       ANH_ALGORIT          IANALG         STANDARD    [  0]    ***   
       ANH_DERIVAT          IANDER         SECOND      [  1]    ***   
       ANH_MODE             ANHMOD         VIBRATION   [  0]    ***   
       ANH_STEPSIZ          ICUBST             50000          x 10-6  
       ANH_SYMMETR          IANHSM         ABELIAN     [  0]    ***   
       AO_LADDERS           IAOLAD         SINGLEPASS  [  1]    ***   
       AV_SCF               IAVSCF         OFF         [  0]    ***   
       BASIS                IBASIS         AUG-PCVQZ   [ 52]    ***   
       BOTHVECTORS          BOTHVC         OFF         [  0]    ***   
       BOX_POTENT           IPIAB          OFF         [  0]    ***   
       BREIT                IBREIT         OFF         [  0]    ***   
       BRUCK_CONV           IBRTOL          10D-  4             ***   
       BRUECKNER            IBRKNR         OFF         [  0]    ***   
       BUFFERSIZE           IBUFFS              4096            ***   
       CACHE_RECS           ICHREC             10               ***   
       CALCLEVEL            ICLLVL         CCSD        [ 10]    ***   
       CCORBOPT             ICCORB         OFF         [  0]  x 0.01  
       CC_CONV              ICCCNV          10D- 14             ***   
       CC_EXPORDER          ICCEOR              5               ***   
       CC_EXTRAPOL          ICCEXT         DIIS        [  1]    ***   
       CC_GUESS             ICCGES         MP2         [  0]    ***   
       CC_MAXCYC            ICCCYC            100              cycles 
       CC_PROGRAM           ICCPRO         VCC         [  0]    ***   
       CHARGE               ICHRGE              0               ***   
       CHOLESKY             ICHOLE         OFF         [  0]    ***   
       CIS_CONV             ICISTL              5               ***   
       COMM_SIZE            IPSIZE            ***               ***   
       CONSTANT             ICONST         OLD         [  1]    ***   
       CONTINUUM            ICONTU         NONE        [  0]    ***   
       CONTRACTION          ICNTYP         GENERAL     [  1]    ***   
       COORDINATES          ICOORD         INTERNAL    [  0]    ***   
       CPHF_CONVER          ICPHFT          10D- 16             ***   
       CPHF_MAXCYC          ICPHFC             64              cycles 
       CUBIC                ICUBIC         OFF         [  0]    ***   
       CURVILINEAR          ICURVY         ON          [  1]    ***   
       DBOC                 IDBOC          ON          [  1]    ***   
       DCT                  IDCT           OFF         [  0]    ***   
       DERIV_LEV            IDRLVL         SECOND      [  2]    ***   
       DEVMEM_SIZE          IDVMEM          50000000           MByte  
       DIAG_MRCC            IEOMST          10D-  0             ***   
       DIFF_TYPE            IDIFTY         RELAXED     [  0]    ***   
       DIRECT               IDIRCT         OFF         [  0]    ***   
       DROPMO               IDRPMO      NONE         
       ECP                  IECP           OFF         [  0]    ***   
       EIGENVECTOR          IVEC                1               ***   
       EL_ANHARM            IELANH         OFF         [  0]    ***   
       EOMFOLLOW            IEOMSR         ENERGY      [  0]    ***   
       EOMIP                IEOMIP         OFF         [  0]    ***   
       EOMLEVEL             HBARFM         SAME        [  0]    ***   
       EOM_MRCC             IMRCCE         NEW         [  1]    ***   
       EOM_NONIT            EOMNON         OFF         [  0]    ***   
       EOM_NSING            IEOMSI          10D-  0             ***   
       EOM_NSTATES          IMRCCD         DAVIDSON    [  0]    ***   
       EOM_NTRIP            IEOMTR          10D-  0             ***   
       EOM_ORDER            IEXORD         ENERGY      [  0]    ***   
       EOM_PROPSTA          IEOMST              0               ***   
       ESTATE_CONV          IEXTOL          10D-  5             ***   
       ESTATE_DIAG          IEXDIG         ITERATIVE   [  0]    ***   
       ESTATE_LOCK          IESLOC         ON          [  1]    ***   
       ESTATE_MAXC          IEXMXC             40               ***   
       ESTATE_PROP          IEXPRP         OFF         [  0]    ***   
       EVAL_HESS            IRECAL              0            # of cyc.
       EXCITATION           IEXCIT              0               ***   
       EXCITE               IEXCIT         NONE        [  0]    ***   
       EXTERN_POT           IEXPOT         OFF         [  0]    ***   
       FCGRADNEW            IFCGNW         OFF         [  0]    ***   
       FC_FIELD             IFINFC              0             x 10-6  
       FD_CALTYPE           IFDCAL         GRADONLY    [  0]    ***   
       FD_PROJECT           IFDPRJ         OFF         [  1]    ***   
       FD_STEPSIZE          IDISFD              0            10-4 bohr
       FD_USEGROUP          IFDGRP         FULL        [  0]    ***   
       FILE_RECSIZ          IFLREC              4096           words  
       FINITE_PERT          IFIPER              0             x 10-6  
       FIXGEOM              IFIXGM         OFF         [  0]    ***   
       FOCK                 IFOCK          AO          [  1]    ***   
       FREQ_ALGORI          IVIALG         STANDARD    [  0]    ***   
       FROZEN_CORE          IFROCO         OFF         [  0]    ***   
       GAMMA_ABCD           IGABCD         STORE       [  0]    ***   
       GAMMA_ABCI           IGABCI         STORE       [  0]    ***   
       GENBAS_1             IGNBS1              0               ***   
       GENBAS_2             IGNBS2              0               ***   
       GENBAS_3             IGNBS3              0               ***   
       GENBAS_4             IGNBS4              0               ***   
       GEO_CONV             ICONTL              5              H/bohr 
       GEO_MAXCYC           IOPTCY             50               ***   
       GEO_MAXSTEP          IMXSTP            300            millibohr
       GEO_METHOD           INR            SINGLE_POINT[  5]    ***   
       GIAO                 IGIAO          OFF         [  1]    ***   
       GIMIC                IGIMIC         OFF         [  0]    ***   
       GRID                 IGRID          OFF         [  0]    ***   
       GRID_ALGO            IGALGO         SERIAL      [  0]    ***   
       GUESS                IGUESS         MOREAD      [  0]    ***   
       HBAR                 IHBAR          OFF         [  0]    ***   
       HESS_TYPE            IHESTP         SCF         [  0]    ***   
       HF2_FILE             IHF2Fl         USE         [  1]    ***   
       HFSTABILITY          ISTABL         OFF         [  0]    ***   
       INCORE               INCORE         OFF         [  0]    ***   
       INPUT_MRCC           IMRCC          ON          [  1]    ***   
       INTEGRALS            INTTYP         VMOL        [  1]    ***   
       JODA_PRINT           IJPRNT              0               ***   
       KEYWORD_OUT          IDMPKW         NO          [  0]    ***   
       LINDEP_TOL           ILINDP              8               ***   
       LINEQ_CONV           IZTACN          10D-  7           cycles  
       LINEQ_EXPOR          ILMAXD              5               ***   
       LINEQ_MAXCY          ILMAXC            100               ***   
       LINEQ_TYPE           ILTYPE         DIIS        [  1]    ***   
       LOCK_ORBOCC          ILOCOC         OFF         [  0]    ***   
       MEMORY_SIZE          IMEMSZ         500000000           words  
       MEM_UNIT             IMEMU          INTEGERWORDS[  0]    ***   
       MRCC                 IMRCCC         OFF         [  0]    ***   
       MULTIPLICTY          IMULTP              1               ***   
       NACOUPLING           IVCOUP         OFF         [  0]    ***   
       NEGEVAL              IDIE           ABORT       [  0]    ***   
       NEWNORM              INEWNO         OFF         [  0]    ***   
       NON-HF               INONHF         OFF         [  0]    ***   
       NTOP_TAMP            ITOPT2             15               ***   
       NUC_MODEL            INUCMO         POINT       [  0]    ***   
       OCCUPATION           IOCCU   ESTIMATED BY SCF 
       OPEN-SHELL           IOPEN          SPIN-ORBITAL[  0]    ***   
       OPTVIB               IOPTVB         OFF         [  0]    ***   
       ORBITALS             IORBTP         STANDARD    [  0]    ***   
       PARALLEL             IPARAL         ON          [  1]    ***   
       PARA_INT             IPINTS         ON          [  1]    ***   
       PARA_PRINT           IPPRIN              0               ***   
       PERT_ORB             IPTORB         STANDARD    [  0]    ***   
       POINTS               IGRDFD              0               ***   
       PRINT                IPRNT               0               ***   
       PROPS                IPROPS         OFF         [  0]    ***   
       PROP_INTEGR          IINTYP         INTERNAL    [  0]    ***   
       PSI                  IPSI           OFF         [  0]    ***   
       QC_ALG               IQCALG         FLM         [  0]    ***   
       QC_LINALG            IQCLIN         TRIDIAG     [  2]    ***   
       QC_MAXCYC            IQCMAX          10D-100           cycles  
       QC_MAXSCFCY          IQCMSC          10D- 15           cycles  
       QC_RTRUST            IQCRTR          10D-  0           x 10-3  
       QC_SKIPSCF           IQCSKI         OFF         [  0]    ***   
       QC_START             IQCSTA          10D-  1             ***   
       QRHFGUESS            IQGUES         OFF         [  0]    ***   
       QUARTIC              IQUART         OFF         [  0]    ***   
       RAMAN_INT            IRAMIN         OFF         [  0]    ***   
       RAMAN_ORB            IRAMRE         UNRELAXED   [  0]    ***   
       RDO                  IRDOFM         ON          [  1]    ***   
       REDUCE_REPR          REDREP         Ir          [  0]    ***   
       REFERENCE            IREFNC         RHF         [  0]    ***   
       RELATIVIST           IRELAT         OFF         [  0]    ***   
       RELAX_DENS           IRDENS         ON          [  1]    ***   
       RESET_FLAGS          IRESET         OFF         [  0]    ***   
       RESTART_CC           ICCRES         OFF         [  0]    ***   
       ROT_EVEC             ROTVEC              0               ***   
       SAVE_INTS            ISVINT         OFF         [  0]    ***   
       SCALE_ON             ISTCRT              0               ***   
       SCF_CONV             ISCFCV          10D- 10             ***   
       SCF_DAMPING          IDAMP               0             x 10-3  
       SCF_EXPORDE          IRPPOR              6               ***   
       SCF_EXPSTAR          IRPPLS              8               ***   
       SCF_EXTRAPO          IRPP           ON          [  1]    ***   
       SCF_MAXCYC           ISCFCY            150              cycles 
       SCF_NOSTOP           ISCFST         OFF         [  0]    ***   
       SCF_PRINT            ISCFPR              0               ***   
       SCF_PROG             ISCFPR         SCF         [  0]    ***   
       SD_FIELD             IFINSD              0             x 10-6  
       SOPERT               IPERSO         OFF         [  0]    ***   
       SPHERICAL            IDFGHI         ON          [  1]    ***   
       SPINORBIT            ISOCAL         OFF         [  0]    ***   
       SPINROTATIO          ISRCON         OFF         [  0]    ***   
       SPIN_FLIP            ISPFLP         OFF         [  0]    ***   
       SPIN_ORBIT           ISPORB         OFF         [  0]    ***   
       SPIN_SCAL            ISCSMP         OFF         [  0]    ***   
       STEEPSCALE           ISTPSC              1000          x 10-3  
       SUBGROUP             ISUBGP         DEFAULT     [  0]    ***   
       SUBGRPAXIS           ISBXYZ         X           [  0]    ***   
       SYMMETRY             ISYM           ON          [  0]    ***   
       SYM_CHECK            ISYMCK         OVERRIDE    [  1]    ***   
       T3_EXTRAPOL          IT3EXT         OFF         [  0]    ***   
       T4_EXTRAPOL          IT4EXP         OFF         [  0]    ***   
       TAMP_SUM             IEVERY              5               ***   
       TESTSUITE            ITESTS         OFF         [  0]    ***   
       THERMOCH             ITHERM         OFF         [  0]    ***   
       TOL_CHOLESK          ITOLCH          10D-  4             ***   
       TRANGRAD             IRESRM         OFF         [  0]    ***   
       TRANS_INV            ITRAIN         IGNORE      [  1]    ***   
       TREAT_PERT           ITREAT         SIMULTANEOUS[  0]    ***   
       TRIP_ALGORI          ITRALG         NORMAL      [  0]    ***   
       UIJ_THRESHO          IUIJTH              1               ***   
       UNITS                IUNITS         ANGSTROM    [  0]    ***   
       UNOS                 IUNOS          OFF         [  0]    ***   
       UPDATE_HESS          IHUPDT         ON          [  1]    ***   
       VIBPHASE             ISETPH         STANDARD    [  0]    ***   
       VIBRATION            IVIB           ANALYTIC    [  1]    ***   
       VIB_ALGORIT          IGEALG         STANDARD    [  0]    ***   
       VNATORB              IVNORB         OFF         [  0]    ***   
       VTRAN                IVTRAN         FULL/PARTIAL[  0]    ***   
       XFIELD               IXEFLD              0             x 10-6  
       XFORM_TOL            IXFTOL          10D- 11             ***   
       YFIELD               IYEFLD              0             x 10-6  
       ZFIELD               IZEFLD            ***             x 10-6  
       ZSCALE_EXP           IZEXPS         OFF         [  0]    ***   
    -------------------------------------------------------------------
   2 entries found in Z-matrix 
   Job Title : Carbon Monoxide DBOC calculation                                                
   There are  1 unique internal coordinates.
   Of these,  0 will be optimized.
   User supplied Z-matrix: 
--------------------------------------------------------------------------------
       SYMBOL    BOND      LENGTH    ANGLE     ANGLE     DIHED     ANGLE
                  TO      (ANGST)    WRT      (DEG)      WRT      (DEG)
--------------------------------------------------------------------------------
        C    
        O          1         r    
                  *Initial values for internal coordinates* 
                      Name             Value
                        r               0.9620689655
--------------------------------------------------------------------------------
  read isotopes from ZMAT file 
   Rotational constants (in cm-1): 
          2.6564406622             2.6564406622
   Rotational constants (in MHz): 
      79638.0987214907         79638.0987214907
********************************************************************************
   The full molecular point group is CXv .
   The largest Abelian subgroup of the full molecular point group is C2v .
   The computational point group is C2v .
********************************************************************************
--------------------------------------------------------------------------------
   Analysis of internal coordinates specified by Z-matrix 
--------------------------------------------------------------------------------
   *The nuclear repulsion energy is   26.401954236559135 a.u.
   *There is   1 degree of freedom within the tot. symm. molecular subspace.
   *Z-matrix requests optimization of   0 coordinates.
   *The optimization is constrained.
   *The following   1 parameters can have non-zero 
    derivatives within the totally symmetric subspace:
             r    [ 1]
   *The following   0 parameters are to be optimized:

   *The following coordinates must be varied in an  unconstrained optimization.
             r    [ 1]
--------------------------------------------------------------------------------


 ----------------------------------------------------------------
         Coordinates used in calculation (QCOMP) 
 ----------------------------------------------------------------
 Z-matrix   Atomic            Coordinates (in bohr)
  Symbol    Number           X              Y              Z
 ----------------------------------------------------------------
     C         6        -0.00000000     0.00000000     1.03874260
     O         8         0.00000000     0.00000000    -0.77930464
 ----------------------------------------------------------------
 
   Interatomic distance matrix (Angstroms) 
 
                 C             O    
                [ 1]        [ 2]
  C    [ 1]     0.00000
  O    [ 2]     0.96207     0.00000
 rotcon2
   Rotational constants (in cm-1): 
          2.6564406622             0.0000000000
   Rotational constants (in MHz): 
      79638.0987214907             0.0000000000
  ECPDATA file not present.   Using default ECPDATA. 
  @GTFLGS-I, Hessian will be transformed to curvilinear coordinates.
  There are  218 basis functions.
 @CHECKOUT-I, Total execution time (CPU/WALL):        0.11/       0.16 seconds.
--executable xjoda finished with status     0 in        0.18 seconds (walltime).
 --invoking executable--
/nfs/workspaces/public/cfour_mpi/bin/xvmol
 SERIAL VERSION OF MOLECULE STARTED
********************************************************************************
                    INPUT FROM MOL FILE
********************************************************************************
INTGRL        1    0    1    0    0    0    0    0    0                         
         *** CFOUR Program System (Release V0.1) ***                            
Carbon Monoxide DBOC calculation                                                
    2    2 X  Y       0.10E-08              0    0                              
   9999.00      3.00                                                            
          6.00000000    1    5    1    1    1    1    1                         
C #1  -0.000000000000000   0.000000000000000   1.038742598898242                
   16    9                                                                      
   33980.0000000000       9.100000000000000E-005 -1.900000000000000E-005        
  0.000000000000000E+000  0.000000000000000E+000  0.000000000000000E+000        
  0.000000000000000E+000  0.000000000000000E+000  0.000000000000000E+000        
  0.000000000000000E+000                                                        
   5089.00000000000       7.040000000000000E-004 -1.510000000000000E-004        
  0.000000000000000E+000  0.000000000000000E+000  0.000000000000000E+000        
  0.000000000000000E+000  0.000000000000000E+000  0.000000000000000E+000        
  0.000000000000000E+000                                                        
   1157.00000000000       3.693000000000000E-003 -7.850000000000000E-004        
  0.000000000000000E+000  0.000000000000000E+000  0.000000000000000E+000        
  0.000000000000000E+000  0.000000000000000E+000  0.000000000000000E+000        
  0.000000000000000E+000                                                        
   326.600000000000       1.536000000000000E-002 -3.324000000000000E-003        
  0.000000000000000E+000  0.000000000000000E+000  0.000000000000000E+000        
  0.000000000000000E+000  0.000000000000000E+000  0.000000000000000E+000        
  0.000000000000000E+000                                                        
   106.100000000000       5.292900000000000E-002 -1.151200000000000E-002        
  0.000000000000000E+000  0.000000000000000E+000  0.000000000000000E+000        
  0.000000000000000E+000  0.000000000000000E+000  0.000000000000000E+000        
  0.000000000000000E+000                                                        
   38.1100000000000       0.147043000000000      -3.416000000000000E-002        
  0.000000000000000E+000  0.000000000000000E+000  0.000000000000000E+000        
  0.000000000000000E+000  0.000000000000000E+000  0.000000000000000E+000        
  0.000000000000000E+000                                                        
   14.7500000000000       0.305631000000000      -7.717300000000001E-002        
  0.000000000000000E+000  0.000000000000000E+000  0.000000000000000E+000        
  0.000000000000000E+000  0.000000000000000E+000  0.000000000000000E+000        
  0.000000000000000E+000                                                        
   6.03500000000000       0.399345000000000      -0.141493000000000             
  0.000000000000000E+000  0.000000000000000E+000  0.000000000000000E+000        
  0.000000000000000E+000  0.000000000000000E+000  0.000000000000000E+000        
  0.000000000000000E+000                                                        
   2.53000000000000       0.217051000000000      -0.118019000000000             
  0.000000000000000E+000  0.000000000000000E+000  0.000000000000000E+000        
  0.000000000000000E+000  0.000000000000000E+000  0.000000000000000E+000        
  0.000000000000000E+000                                                        
  0.735500000000000       1.589400000000000E-002  0.273806000000000             
   1.00000000000000       0.000000000000000E+000  0.000000000000000E+000        
  0.000000000000000E+000  0.000000000000000E+000  0.000000000000000E+000        
  0.000000000000000E+000                                                        
  0.290500000000000      -3.084000000000000E-003  0.586510000000000             
  0.000000000000000E+000   1.00000000000000       0.000000000000000E+000        
  0.000000000000000E+000  0.000000000000000E+000  0.000000000000000E+000        
  0.000000000000000E+000                                                        
  0.111100000000000       9.779999999999999E-004  0.285430000000000             
  0.000000000000000E+000  0.000000000000000E+000   1.00000000000000             
  0.000000000000000E+000  0.000000000000000E+000  0.000000000000000E+000        
  0.000000000000000E+000                                                        
   7.21600000000000       0.000000000000000E+000  0.000000000000000E+000        
  0.000000000000000E+000  0.000000000000000E+000  0.000000000000000E+000        
   1.00000000000000       0.000000000000000E+000  0.000000000000000E+000        
  0.000000000000000E+000                                                        
   19.5700000000000       0.000000000000000E+000  0.000000000000000E+000        
  0.000000000000000E+000  0.000000000000000E+000  0.000000000000000E+000        
  0.000000000000000E+000   1.00000000000000       0.000000000000000E+000        
  0.000000000000000E+000                                                        
   53.0730000000000       0.000000000000000E+000  0.000000000000000E+000        
  0.000000000000000E+000  0.000000000000000E+000  0.000000000000000E+000        
  0.000000000000000E+000  0.000000000000000E+000   1.00000000000000             
  0.000000000000000E+000                                                        
  4.145000000000000E-002  0.000000000000000E+000  0.000000000000000E+000        
  0.000000000000000E+000  0.000000000000000E+000  0.000000000000000E+000        
  0.000000000000000E+000  0.000000000000000E+000  0.000000000000000E+000        
   1.00000000000000                                                             
   10    8                                                                      
   34.5100000000000       5.378000000000000E-003  0.000000000000000E+000        
  0.000000000000000E+000  0.000000000000000E+000  0.000000000000000E+000        
  0.000000000000000E+000  0.000000000000000E+000  0.000000000000000E+000        
   7.91500000000000       3.613200000000000E-002  0.000000000000000E+000        
  0.000000000000000E+000  0.000000000000000E+000  0.000000000000000E+000        
  0.000000000000000E+000  0.000000000000000E+000  0.000000000000000E+000        
   2.36800000000000       0.142493000000000       0.000000000000000E+000        
  0.000000000000000E+000  0.000000000000000E+000  0.000000000000000E+000        
  0.000000000000000E+000  0.000000000000000E+000  0.000000000000000E+000        
  0.813200000000000       0.342150000000000        1.00000000000000             
  0.000000000000000E+000  0.000000000000000E+000  0.000000000000000E+000        
  0.000000000000000E+000  0.000000000000000E+000  0.000000000000000E+000        
  0.289000000000000       0.463864000000000       0.000000000000000E+000        
   1.00000000000000       0.000000000000000E+000  0.000000000000000E+000        
  0.000000000000000E+000  0.000000000000000E+000  0.000000000000000E+000        
  0.100700000000000       0.250028000000000       0.000000000000000E+000        
  0.000000000000000E+000   1.00000000000000       0.000000000000000E+000        
  0.000000000000000E+000  0.000000000000000E+000  0.000000000000000E+000        
   8.18200000000000       0.000000000000000E+000  0.000000000000000E+000        
  0.000000000000000E+000  0.000000000000000E+000   1.00000000000000             
  0.000000000000000E+000  0.000000000000000E+000  0.000000000000000E+000        
   24.1860000000000       0.000000000000000E+000  0.000000000000000E+000        
  0.000000000000000E+000  0.000000000000000E+000  0.000000000000000E+000        
   1.00000000000000       0.000000000000000E+000  0.000000000000000E+000        
   71.4940000000000       0.000000000000000E+000  0.000000000000000E+000        
  0.000000000000000E+000  0.000000000000000E+000  0.000000000000000E+000        
  0.000000000000000E+000   1.00000000000000       0.000000000000000E+000        
  3.218000000000000E-002  0.000000000000000E+000  0.000000000000000E+000        
  0.000000000000000E+000  0.000000000000000E+000  0.000000000000000E+000        
  0.000000000000000E+000  0.000000000000000E+000   1.00000000000000             
    6    6                                                                      
   1.84800000000000        1.00000000000000       0.000000000000000E+000        
  0.000000000000000E+000  0.000000000000000E+000  0.000000000000000E+000        
  0.000000000000000E+000                                                        
  0.649000000000000       0.000000000000000E+000   1.00000000000000             
  0.000000000000000E+000  0.000000000000000E+000  0.000000000000000E+000        
  0.000000000000000E+000                                                        
  0.228000000000000       0.000000000000000E+000  0.000000000000000E+000        
   1.00000000000000       0.000000000000000E+000  0.000000000000000E+000        
  0.000000000000000E+000                                                        
   8.65600000000000       0.000000000000000E+000  0.000000000000000E+000        
  0.000000000000000E+000   1.00000000000000       0.000000000000000E+000        
  0.000000000000000E+000                                                        
   33.2130000000000       0.000000000000000E+000  0.000000000000000E+000        
  0.000000000000000E+000  0.000000000000000E+000   1.00000000000000             
  0.000000000000000E+000                                                        
  7.660000000000000E-002  0.000000000000000E+000  0.000000000000000E+000        
  0.000000000000000E+000  0.000000000000000E+000  0.000000000000000E+000        
   1.00000000000000                                                             
    4    4                                                                      
   1.41900000000000        1.00000000000000       0.000000000000000E+000        
  0.000000000000000E+000  0.000000000000000E+000                                
  0.485000000000000       0.000000000000000E+000   1.00000000000000             
  0.000000000000000E+000  0.000000000000000E+000                                
   24.6940000000000       0.000000000000000E+000  0.000000000000000E+000        
   1.00000000000000       0.000000000000000E+000                                
  0.187000000000000       0.000000000000000E+000  0.000000000000000E+000        
  0.000000000000000E+000   1.00000000000000                                     
    2    2                                                                      
   1.01100000000000        1.00000000000000       0.000000000000000E+000        
  0.424000000000000       0.000000000000000E+000   1.00000000000000             
          8.00000000    1    5    1    1    1    1    1                         
O #2   0.000000000000000   0.000000000000000  -0.779304639950986                
   16    9                                                                      
   61420.0000000000       9.000000000000001E-005 -2.000000000000000E-005        
  0.000000000000000E+000  0.000000000000000E+000  0.000000000000000E+000        
  0.000000000000000E+000  0.000000000000000E+000  0.000000000000000E+000        
  0.000000000000000E+000                                                        
   9199.00000000000       6.980000000000001E-004 -1.590000000000000E-004        
  0.000000000000000E+000  0.000000000000000E+000  0.000000000000000E+000        
  0.000000000000000E+000  0.000000000000000E+000  0.000000000000000E+000        
  0.000000000000000E+000                                                        
   2091.00000000000       3.664000000000000E-003 -8.290000000000000E-004        
  0.000000000000000E+000  0.000000000000000E+000  0.000000000000000E+000        
  0.000000000000000E+000  0.000000000000000E+000  0.000000000000000E+000        
  0.000000000000000E+000                                                        
   590.900000000000       1.521800000000000E-002 -3.508000000000000E-003        
  0.000000000000000E+000  0.000000000000000E+000  0.000000000000000E+000        
  0.000000000000000E+000  0.000000000000000E+000  0.000000000000000E+000        
  0.000000000000000E+000                                                        
   192.300000000000       5.242300000000000E-002 -1.215600000000000E-002        
  0.000000000000000E+000  0.000000000000000E+000  0.000000000000000E+000        
  0.000000000000000E+000  0.000000000000000E+000  0.000000000000000E+000        
  0.000000000000000E+000                                                        
   69.3200000000000       0.145921000000000      -3.626100000000000E-002        
  0.000000000000000E+000  0.000000000000000E+000  0.000000000000000E+000        
  0.000000000000000E+000  0.000000000000000E+000  0.000000000000000E+000        
  0.000000000000000E+000                                                        
   26.9700000000000       0.305258000000000      -8.299200000000000E-002        
  0.000000000000000E+000  0.000000000000000E+000  0.000000000000000E+000        
  0.000000000000000E+000  0.000000000000000E+000  0.000000000000000E+000        
  0.000000000000000E+000                                                        
   11.1000000000000       0.398508000000000      -0.152090000000000             
  0.000000000000000E+000  0.000000000000000E+000  0.000000000000000E+000        
  0.000000000000000E+000  0.000000000000000E+000  0.000000000000000E+000        
  0.000000000000000E+000                                                        
   4.68200000000000       0.216980000000000      -0.115331000000000             
  0.000000000000000E+000  0.000000000000000E+000  0.000000000000000E+000        
  0.000000000000000E+000  0.000000000000000E+000  0.000000000000000E+000        
  0.000000000000000E+000                                                        
   1.42800000000000       1.759400000000000E-002  0.288979000000000             
   1.00000000000000       0.000000000000000E+000  0.000000000000000E+000        
  0.000000000000000E+000  0.000000000000000E+000  0.000000000000000E+000        
  0.000000000000000E+000                                                        
  0.554700000000000      -2.502000000000000E-003  0.586128000000000             
  0.000000000000000E+000   1.00000000000000       0.000000000000000E+000        
  0.000000000000000E+000  0.000000000000000E+000  0.000000000000000E+000        
  0.000000000000000E+000                                                        
  0.206700000000000       9.540000000000000E-004  0.277624000000000             
  0.000000000000000E+000  0.000000000000000E+000   1.00000000000000             
  0.000000000000000E+000  0.000000000000000E+000  0.000000000000000E+000        
  0.000000000000000E+000                                                        
   12.9740000000000       0.000000000000000E+000  0.000000000000000E+000        
  0.000000000000000E+000  0.000000000000000E+000  0.000000000000000E+000        
   1.00000000000000       0.000000000000000E+000  0.000000000000000E+000        
  0.000000000000000E+000                                                        
   34.9000000000000       0.000000000000000E+000  0.000000000000000E+000        
  0.000000000000000E+000  0.000000000000000E+000  0.000000000000000E+000        
  0.000000000000000E+000   1.00000000000000       0.000000000000000E+000        
  0.000000000000000E+000                                                        
   93.8810000000000       0.000000000000000E+000  0.000000000000000E+000        
  0.000000000000000E+000  0.000000000000000E+000  0.000000000000000E+000        
  0.000000000000000E+000  0.000000000000000E+000   1.00000000000000             
  0.000000000000000E+000                                                        
  6.959000000000000E-002  0.000000000000000E+000  0.000000000000000E+000        
  0.000000000000000E+000  0.000000000000000E+000  0.000000000000000E+000        
  0.000000000000000E+000  0.000000000000000E+000  0.000000000000000E+000        
   1.00000000000000                                                             
   10    8                                                                      
   63.4200000000000       6.044000000000000E-003  0.000000000000000E+000        
  0.000000000000000E+000  0.000000000000000E+000  0.000000000000000E+000        
  0.000000000000000E+000  0.000000000000000E+000  0.000000000000000E+000        
   14.6600000000000       4.179900000000000E-002  0.000000000000000E+000        
  0.000000000000000E+000  0.000000000000000E+000  0.000000000000000E+000        
  0.000000000000000E+000  0.000000000000000E+000  0.000000000000000E+000        
   4.45900000000000       0.161143000000000       0.000000000000000E+000        
  0.000000000000000E+000  0.000000000000000E+000  0.000000000000000E+000        
  0.000000000000000E+000  0.000000000000000E+000  0.000000000000000E+000        
   1.53100000000000       0.356731000000000        1.00000000000000             
  0.000000000000000E+000  0.000000000000000E+000  0.000000000000000E+000        
  0.000000000000000E+000  0.000000000000000E+000  0.000000000000000E+000        
  0.530200000000000       0.448309000000000       0.000000000000000E+000        
   1.00000000000000       0.000000000000000E+000  0.000000000000000E+000        
  0.000000000000000E+000  0.000000000000000E+000  0.000000000000000E+000        
  0.175000000000000       0.244940000000000       0.000000000000000E+000        
  0.000000000000000E+000   1.00000000000000       0.000000000000000E+000        
  0.000000000000000E+000  0.000000000000000E+000  0.000000000000000E+000        
   14.4750000000000       0.000000000000000E+000  0.000000000000000E+000        
  0.000000000000000E+000  0.000000000000000E+000   1.00000000000000             
  0.000000000000000E+000  0.000000000000000E+000  0.000000000000000E+000        
   42.7300000000000       0.000000000000000E+000  0.000000000000000E+000        
  0.000000000000000E+000  0.000000000000000E+000  0.000000000000000E+000        
   1.00000000000000       0.000000000000000E+000  0.000000000000000E+000        
   126.140000000000       0.000000000000000E+000  0.000000000000000E+000        
  0.000000000000000E+000  0.000000000000000E+000  0.000000000000000E+000        
  0.000000000000000E+000   1.00000000000000       0.000000000000000E+000        
  5.348000000000000E-002  0.000000000000000E+000  0.000000000000000E+000        
  0.000000000000000E+000  0.000000000000000E+000  0.000000000000000E+000        
  0.000000000000000E+000  0.000000000000000E+000   1.00000000000000             
    6    6                                                                      
   3.77500000000000        1.00000000000000       0.000000000000000E+000        
  0.000000000000000E+000  0.000000000000000E+000  0.000000000000000E+000        
  0.000000000000000E+000                                                        
   1.30000000000000       0.000000000000000E+000   1.00000000000000             
  0.000000000000000E+000  0.000000000000000E+000  0.000000000000000E+000        
  0.000000000000000E+000                                                        
  0.444000000000000       0.000000000000000E+000  0.000000000000000E+000        
   1.00000000000000       0.000000000000000E+000  0.000000000000000E+000        
  0.000000000000000E+000                                                        
   14.9270000000000       0.000000000000000E+000  0.000000000000000E+000        
  0.000000000000000E+000   1.00000000000000       0.000000000000000E+000        
  0.000000000000000E+000                                                        
   57.5440000000000       0.000000000000000E+000  0.000000000000000E+000        
  0.000000000000000E+000  0.000000000000000E+000   1.00000000000000             
  0.000000000000000E+000                                                        
  0.154000000000000       0.000000000000000E+000  0.000000000000000E+000        
  0.000000000000000E+000  0.000000000000000E+000  0.000000000000000E+000        
   1.00000000000000                                                             
    4    4                                                                      
   2.66600000000000        1.00000000000000       0.000000000000000E+000        
  0.000000000000000E+000  0.000000000000000E+000                                
  0.859000000000000       0.000000000000000E+000   1.00000000000000             
  0.000000000000000E+000  0.000000000000000E+000                                
   26.4830000000000       0.000000000000000E+000  0.000000000000000E+000        
   1.00000000000000       0.000000000000000E+000                                
  0.324000000000000       0.000000000000000E+000  0.000000000000000E+000        
  0.000000000000000E+000   1.00000000000000                                     
    2    2                                                                      
   1.84600000000000        1.00000000000000       0.000000000000000E+000        
  0.714000000000000       0.000000000000000E+000   1.00000000000000             
FINISH                                                                          
 
********************************************************************************
 ONE- AND TWO-ELECTRON INTEGRALS OVER SYMMETRY-ADAPTED AOS ARE CALCULATED.

  SPHERICAL HARMONICS ARE USED.
  
  INTEGRALS LESS THAN  0.10E-13 ARE NEGLECTED.

  NUCLEAR REPULSION ENERGY :   26.4019542366 A.U.
  @MOLECU-I, ONE ELECTRON INTEGRALS (CPU/WALL):        0.06/       0.06 SECONDS.
  @TWOEL-I,    4688964 INTEGRALS OF SYMMETRY TYPE  I I I I
  @TWOEL-I,   20066443 INTEGRALS OF SYMMETRY TYPE  I J I J
  @TWOEL-I,   10578200 INTEGRALS OF SYMMETRY TYPE  I I J J
  @TWOEL-I,   14816224 INTEGRALS OF SYMMETRY TYPE  I J K L
  @TWOEL-I, TOTAL NUMBER OF 2-E INTEGRALS   50149831.
  @MOLECU-I, TWO ELECTRON INTEGRALS (CPU/WALL):      187.89/      26.35 SECONDS.
 @CHECKOUT-I, Total execution time (CPU/WALL):      187.96/      26.43 seconds.

Running with 14 threads/proc

--executable xvmol finished with status     0 in       26.46 seconds (walltime).
 --invoking executable--
/nfs/workspaces/public/cfour_mpi/bin/xvmol2ja
 @GETMEM-I,  Allocated    3814 MB of main memory.
 @CHECKOUT-I, Total execution time (CPU/WALL):        0.21/       0.07 seconds.
--executable xvmol2ja finished with status     0 in        0.09 seconds (walltime).
 --invoking executable--
/nfs/workspaces/public/cfour_mpi/bin/xvprop
 @GETMEM-I,  Allocated    3814 MB of main memory.
   Property integrals will be calculated.
    --------------------------------------------------------------
                                   Property evaluated at 
    Property type                X             Y             Z
    --------------------------------------------------------------
    Dipole moment               ----          ----          ----  
    Quadrupole moment           ----          ----          ----  
    Octopole moment             ----          ----          ----  
    Relativisitic corr.         ----          ----          ----  
    Second moment            0.0000000     0.0000000     0.0000000
    Electron density         0.0000000     0.0000000     1.0387426
    Electron density         0.0000000     0.0000000    -0.7793046
    Field gradient           0.0000000     0.0000000     1.0387426
    Field gradient           0.0000000     0.0000000    -0.7793046
    Potential                0.0000000     0.0000000     1.0387426
    Potential                0.0000000     0.0000000    -0.7793046
    --------------------------------------------------------------
 @CHECKOUT-I, Total execution time (CPU/WALL):        1.30/       1.35 seconds.
--executable xvprop finished with status     0 in        1.36 seconds (walltime).
 --invoking executable--
/nfs/workspaces/public/cfour_mpi/bin/xvscf
  There are  218 functions in the AO basis.

  There are 4 irreducible representations.

       Irrep        # of functions
         1                 86
         2                 52
         3                 52
         4                 28


  Parameters for SCF calculation: 
        SCF reference function:  RHF  
  Maximum number of iterations:  150
     Full symmetry point group: CXv 
     Computational point group: C2v 
        Initial density matrix: MOREAD                 
     SCF convergence tolerance: 10**(-10)
  DIIS convergence acceleration:  ON
          Latest start for DIIS:   8
                     DIIS order:   6

  Memory information:    2523578 words required.
  Fock matrices are constructed from AO integral file.
 @GETMEM-I,  Allocated      19 MB of main memory.
  Initialization and symmetry analysis required      0.001 seconds.

  Adding electric field perturbation to one-electron Hamiltonian.
  Field direction     : Z
  Field strength      : -0.0002000 a.u.

  @INITGES-I, Occupancies from core Hamiltonian:

          Alpha population by irrep:   5    1    1    0
           Beta population by irrep:   5    1    1    0


 total no. of electrons in initial guess :  0.000000000000000E+000
  --------------------------------------------------------------------
  Iteration         Total Energy            Largest Density Difference
  --------------------------------------------------------------------
       0            26.401953840253885              0.0000000000D+00
   current occupation vector 
     5  1  1  0
     5  1  1  0
       1           -90.117248260412623              0.2023699336D+02
   current occupation vector 
     5  1  1  0
     5  1  1  0
       2           -92.352050749833936              0.1105182138D+03
   current occupation vector 
     5  1  1  0
     5  1  1  0
       3          -104.307560791394465              0.1105322673D+03
   current occupation vector 
     4  1  2  0
     4  1  2  0
       4          -102.296165440064598              0.1563032155D+02
   current occupation vector 
     5  1  1  0
     5  1  1  0
       5          -106.355380046334105              0.1562901511D+02
   current occupation vector 
     4  1  2  0
     4  1  2  0
       6          -103.713355408511021              0.1142613197D+02
   current occupation vector 
     5  1  1  0
     5  1  1  0
       7          -105.090816100159813              0.1114932432D+02
   current occupation vector 
     5  1  1  0
     5  1  1  0
       8          -102.540684196699587              0.4935667904D+01
   current occupation vector 
     5  1  1  0
     5  1  1  0
       9          -112.064073536720528              0.3255536209D+01
   current occupation vector 
     5  1  1  0
     5  1  1  0
      10          -112.619902837511304              0.7056811752D+00
   current occupation vector 
     5  1  1  0
     5  1  1  0
      11          -112.714402457129083              0.2309683735D+00
   current occupation vector 
     5  1  1  0
     5  1  1  0
      12          -112.716653200829725              0.4560977347D-01
   current occupation vector 
     5  1  1  0
     5  1  1  0
      13          -112.716750984630991              0.1351997839D-01
   current occupation vector 
     5  1  1  0
     5  1  1  0
      14          -112.716759228425659              0.3913543841D-02
   current occupation vector 
     5  1  1  0
     5  1  1  0
      15          -112.716760635792738              0.2053294647D-02
   current occupation vector 
     5  1  1  0
     5  1  1  0
      16          -112.716760749730881              0.5579326636D-03
   current occupation vector 
     5  1  1  0
     5  1  1  0
      17          -112.716760753846856              0.1252418852D-03
   current occupation vector 
     5  1  1  0
     5  1  1  0
      18          -112.716760753943149              0.1347318457D-04
   current occupation vector 
     5  1  1  0
     5  1  1  0
      19          -112.716760753947554              0.1995638482D-05
   current occupation vector 
     5  1  1  0
     5  1  1  0
      20          -112.716760753947980              0.6225900553D-06
   current occupation vector 
     5  1  1  0
     5  1  1  0
      21          -112.716760753948577              0.1053231069D-06
   current occupation vector 
     5  1  1  0
     5  1  1  0
      22          -112.716760753948009              0.2540665123D-07
   current occupation vector 
     5  1  1  0
     5  1  1  0
      23          -112.716760753947014              0.5866887642D-08
   current occupation vector 
     5  1  1  0
     5  1  1  0
      24          -112.716760753947867              0.1994182819D-08
   current occupation vector 
     5  1  1  0
     5  1  1  0
      25          -112.716760753947838              0.9470124684D-09
   current occupation vector 
     5  1  1  0
     5  1  1  0
      26          -112.716760753947582              0.1981985687D-09
   current occupation vector 
     5  1  1  0
     5  1  1  0
      27          -112.716760753948350              0.1830793295D-09
   current occupation vector 
     5  1  1  0
     5  1  1  0
      28          -112.716760753948094              0.1085270762D-09
   current occupation vector 
     5  1  1  0
     5  1  1  0

  SCF has converged.

 Density matrix saved to file den.dat
 total electron number:   13.9999999999999     
     E(SCF)=      -112.716760753948662              0.3141781280D-10

  Eigenvector printing suppressed.

 @PUTMOS-I, Writing converged MOs to NEWMOS. 
 @PUTMOS-I, Symmetry   1 Full Blocks 21 Partial Blocksize   2
 @PUTMOS-I, Symmetry   2 Full Blocks 13 Partial Blocksize   0
 @PUTMOS-I, Symmetry   3 Full Blocks 13 Partial Blocksize   0
 @PUTMOS-I, Symmetry   4 Full Blocks  7 Partial Blocksize   0
 @PUTFOCK-I, Writing converged Fock matrix to NEWFOCK. 
 @PUTFOCK-I, Symmetry   1 Full Blocks 21 Partial Blocksize   2
 @PUTFOCK-I, Symmetry   2 Full Blocks 13 Partial Blocksize   0
 @PUTFOCK-I, Symmetry   3 Full Blocks 13 Partial Blocksize   0
 @PUTFOCK-I, Symmetry   4 Full Blocks  7 Partial Blocksize   0


 
  ORBITAL EIGENVALUES (ALPHA)  (1H = 27.2113834 eV)

       MO #        E(hartree)               E(eV)           FULLSYM    COMPSYM
       ----   --------------------   --------------------   -------   ---------
    1     1         -20.6525037621        -561.9831980393     SG+        A1 (1)
    2     2         -11.2846465694        -307.0708443322     SG+        A1 (1)
    3     3          -1.6396085190         -44.6160160355     SG+        A1 (1)
    4     4          -0.8187320109         -22.2788306495     SG+        A1 (1)
    5   139          -0.7239858966         -19.7006578078      PI        B2 (3)
    6    87          -0.7239858966         -19.7006578078      PI        B1 (2)
    7     5          -0.5309061562         -14.4466909644     SG+        A1 (1)
  +++++++++++++++++++++++++++++++++++++++++++++++++++++++++++++++++++++++++++++
    8     6           0.0575669979           1.5664776518     SG+        A1 (1)
    9   140           0.0644950258           1.7549988744      PI        B2 (3)
   10    88           0.0644950258           1.7549988744      PI        B1 (2)
   11     7           0.0759044048           2.0654638595     SG+        A1 (1)
   12    89           0.1550136724           4.2181364729      PI        B1 (2)
   13   141           0.1550136724           4.2181364729      PI        B2 (3)
   14     8           0.1566080285           4.2615211073     SG+        A1 (1)
   15   142           0.1985553578           5.4029659661      PI        B2 (3)
   16    90           0.1985553578           5.4029659661      PI        B1 (2)
   17     9           0.2268780130           6.1736645958     SG+        A1 (1)
   18   191           0.2270886183           6.1793954575      DE        A2 (4)
   19    10           0.2270886183           6.1793954575      DE        A1 (1)
   20    11           0.3019889099           8.2175360111     SG+        A1 (1)
   21    91           0.3418064033           9.3010250891      PI        B1 (2)
   22   143           0.3418064033           9.3010250891      PI        B2 (3)
   23    12           0.3980220779          10.8307313639     SG+        A1 (1)
   24    92           0.4050318432          11.0214767746      PI        B1 (2)
   25   144           0.4050318432          11.0214767746      PI        B2 (3)
   26    13           0.5080087117          13.8236198242     SG+        A1 (1)
   27   192           0.5218096503          14.1991624561      DE        A2 (4)
   28    14           0.5218096503          14.1991624561      DE        A1 (1)
   29   145           0.6182087880          16.8223163503      PI        B2 (3)
   30    93           0.6182087880          16.8223163503      PI        B1 (2)
   31    15           0.6613551994          17.9963898951     SG+        A1 (1)
   32    94           0.7500104327          20.4088214391      PH        B1 (2)
   33   146           0.7500104327          20.4088214391      PH        B2 (3)
   34    16           0.7699414794          20.9511727918      DE        A1 (1)
   35   193           0.7699414794          20.9511727918      DE        A2 (4)
   36    17           0.7930284733          21.5794018330     SG+        A1 (1)
   37    95           0.8448373382          22.9891927212      PI        B1 (2)
   38   147           0.8448373382          22.9891927212      PI        B2 (3)
   39    96           0.8707880818          23.6953483527      PI        B1 (2)
   40   148           0.8707880818          23.6953483528      PI        B2 (3)
   41    18           0.8784115276          23.9027928612     SG+        A1 (1)
   42    19           0.9057746106          24.6473802036      DE        A1 (1)
   43   194           0.9057746106          24.6473802036      DE        A2 (4)
   44    20           0.9610203145          26.1506922317     SG+        A1 (1)
   45    97           1.1220897019          30.5336130870      PI        B1 (2)
   46   149           1.1220897019          30.5336130870      PI        B2 (3)
   47    21           1.3425569845          36.5328328423     SG+        A1 (1)
   48   150           1.4584029740          39.6851624765      PH        B2 (3)
   49    98           1.4584029740          39.6851624765      PH        B1 (2)
   50    22           1.4977274024          40.7552345751      DE        A1 (1)
   51   195           1.4977274024          40.7552345751      DE        A2 (4)
   52    99           1.5277210866          41.5714042156      PI        B1 (2)
   53   151           1.5277210866          41.5714042156      PI        B2 (3)
   54    23           1.5592765461          42.4300719228     SG+        A1 (1)
   55    24           1.6568073909          45.0840211347     SG+        A1 (1)
   56    25           1.7634442856          47.9857585606     SG+        A1 (1)
   57    26           1.7753741850          48.3103876278      DE        A1 (1)
   58   196           1.7753741850          48.3103876278      DE        A2 (4)
   59   100           1.8641850840          50.7270550490      PI        B1 (2)
   60   152           1.8641850840          50.7270550491      PI        B2 (3)
   61   101           1.9923327775          54.2141310699      PI        B1 (2)
   62   153           1.9923327775          54.2141310699      PI        B2 (3)
   63   197           2.1149010842          57.5493842545      PI        A2 (4)
   64    27           2.1149010842          57.5493842545      PI        A1 (1)
   65    28           2.2266255718          60.5895621235     SG+        A1 (1)
   66    29           2.2353142918          60.8259942144      DE        A1 (1)
   67   198           2.2353142918          60.8259942144      DE        A2 (4)
   68   154           2.2631442786          61.5832866541      PH        B2 (3)
   69   102           2.2631442786          61.5832866541      PH        B1 (2)
   70    30           2.3440918522          63.7859821148     SG+        A1 (1)
   71   103           2.3542506056          64.0624158498      PI        B1 (2)
   72   155           2.3542506056          64.0624158498      PI        B2 (3)
   73    31           2.3886605912          64.9987591583      DE        A1 (1)
   74   199           2.3886605912          64.9987591583      DE        A2 (4)
   75   156           2.4275382295          66.0566734807      PH        B2 (3)
   76   104           2.4275382295          66.0566734807      PH        B1 (2)
   77    32           2.6045087828          70.8722870584     SG+        A1 (1)
   78   105           2.6111296407          71.0524497607      PI        B1 (2)
   79   157           2.6111296407          71.0524497607      PI        B2 (3)
   80   106           3.0239049327          82.2846364876      PI        B1 (2)
   81   158           3.0239049327          82.2846364876      PI        B2 (3)
   82   200           3.1392039935          85.4220834377      DE        A2 (4)
   83    33           3.1392039935          85.4220834377      DE        A1 (1)
   84    34           3.1542993468          85.8328488845     SG+        A1 (1)
   85    35           3.3752768722          91.8459530500     SG+        A1 (1)
   86   107           3.7497344079         102.0354606220      PI        B1 (2)
   87   159           3.7497344079         102.0354606221      PI        B2 (3)
   88   201           3.7679055677         102.5299230185      PI        A2 (4)
   89    36           3.7679055677         102.5299230185      PI        A1 (1)
   90    37           3.9987806265         108.8123527590     SG+        A1 (1)
   91   160           4.0636398717         110.5772625470      PH        B2 (3)
   92   108           4.0636398717         110.5772625470      PH        B1 (2)
   93    38           4.1809340192         113.7689985663      DE        A1 (1)
   94   202           4.1809340192         113.7689985663      DE        A2 (4)
   95   161           4.2144626753         114.6813596831      PI        B2 (3)
   96   109           4.2144626753         114.6813596831      PI        B1 (2)
   97    39           4.3400958697         118.1000127029     SG+        A1 (1)
   98    40           4.4572980195         121.2892453363      DE        A1 (1)
   99   203           4.4572980195         121.2892453364      DE        A2 (4)
  100   162           4.4859357111         122.0685165416      PH        B2 (3)
  101   110           4.4859357111         122.0685165416      PH        B1 (2)
  102    41           4.6986262211         127.8561195562     SG+        A1 (1)
  103   111           4.8902674164         133.0709415968      PI        B1 (2)
  104   163           4.8902674164         133.0709415969      PI        B2 (3)
  105    42           5.1002130223         138.7838519710     SG+        A1 (1)
  106    43           5.2034328647         141.5926066775      DE        A1 (1)
  107   204           5.2034328647         141.5926066776      DE        A2 (4)
  108   112           5.3282457273         144.9889373359      PI        B1 (2)
  109   164           5.3282457273         144.9889373359      PI        B2 (3)
  110   205           5.9267607000         161.2753577282      PI        A2 (4)
  111    44           5.9267607000         161.2753577282      PI        A1 (1)
  112   113           5.9942788983         163.1126213070      PI        B1 (2)
  113   165           5.9942788983         163.1126213071      PI        B2 (3)
  114    45           6.1585254458         167.5819970854     SG+        A1 (1)
  115   166           6.3010231451         171.4595566127      PH        B2 (3)
  116   114           6.3010231451         171.4595566127      PH        B1 (2)
  117    46           6.3364521507         172.4236288697     SG+        A1 (1)
  118    47           6.3414375109         172.5592874165      DE        A1 (1)
  119   206           6.3414375109         172.5592874166      DE        A2 (4)
  120   115           6.4026966393         174.2262330461      PI        B1 (2)
  121   167           6.4026966393         174.2262330461      PI        B2 (3)
  122   116           6.5219748952         177.4719593994      PH        B1 (2)
  123   168           6.5219748952         177.4719593994      PH        B2 (3)
  124   207           6.7463514822         183.5775567333      DE        A2 (4)
  125    48           6.7463514822         183.5775567336      DE        A1 (1)
  126    49           7.1475308190         194.4942014791     SG+        A1 (1)
  127   169           7.9276047846         215.7210932369      PI        B2 (3)
  128   117           7.9276047846         215.7210932369      PI        B1 (2)
  129   208           8.0685416121         219.5561792851      DE        A2 (4)
  130    50           8.0685416121         219.5561792851      DE        A1 (1)
  131    51           8.5011626648         231.3283966176     SG+        A1 (1)
  132    52           8.8397362554         240.5414523996     SG+        A1 (1)
  133   118           8.9511764624         243.5738946003      PI        B1 (2)
  134   170           8.9511764624         243.5738946005      PI        B2 (3)
  135    53           9.8635024972         268.3995481188     SG+        A1 (1)
  136   171          10.1830802664         277.0957013221      PI        B2 (3)
  137   119          10.1830802664         277.0957013222      PI        B1 (2)
  138    54          10.6055933833         288.5928677374      PI        A1 (1)
  139   209          10.6055933833         288.5928677374      PI        A2 (4)
  140   120          11.0399514054         300.4123504105      PH        B1 (2)
  141   172          11.0399514054         300.4123504105      PH        B2 (3)
  142    55          11.3398915742         308.5741373393      DE        A1 (1)
  143   210          11.3398915742         308.5741373394      DE        A2 (4)
  144    56          11.3762734640         309.5641388922     SG+        A1 (1)
  145   121          11.4582754734         311.7955270088      PI        B1 (2)
  146   173          11.4582754734         311.7955270088      PI        B2 (3)
  147   122          11.8721802703         323.0584491303      PH        B1 (2)
  148   174          11.8721802703         323.0584491303      PH        B2 (3)
  149   211          12.4606821276         339.0723987993      DE        A2 (4)
  150    57          12.4606821276         339.0723987997      DE        A1 (1)
  151    58          12.7894604585         348.0189120143     SG+        A1 (1)
  152    59          13.1245241164         357.1364576742      DE        A1 (1)
  153   212          13.1245241164         357.1364576743      DE        A2 (4)
  154   123          13.1856345555         358.7993572617      PI        B1 (2)
  155   175          13.1856345555         358.7993572617      PI        B2 (3)
  156    60          14.1115217991         383.9940300336     SG+        A1 (1)
  157   176          15.1317203405         411.7550436865      PI        B2 (3)
  158   124          15.1317203405         411.7550436866      PI        B1 (2)
  159    61          15.6587610801         426.0965513198     SG+        A1 (1)
  160    62          18.8619775635         513.2605031631     SG+        A1 (1)
  161   125          19.6763549380         535.4208381334      PI        B1 (2)
  162   177          19.6763549380         535.4208381336      PI        B2 (3)
  163    63          21.5453902898         586.2798756786     SG+        A1 (1)
  164   213          26.7481866819         727.8551630552      DE        A2 (4)
  165    64          26.7481866819         727.8551630556      DE        A1 (1)
  166   126          27.7475255510         755.0485561686      PI        B1 (2)
  167   178          27.7475255510         755.0485561686      PI        B2 (3)
  168    65          29.0021438166         789.1884548154     SG+        A1 (1)
  169   179          33.9855591702         924.7940806443      PI        B2 (3)
  170   127          33.9855591702         924.7940806450      PI        B1 (2)
  171    66          36.0615177372         981.2837851317     SG+        A1 (1)
  172    67          37.4620776589        1019.3949581361     SG+        A1 (1)
  173    68          47.2132442016        1284.7376895281      DE        A1 (1)
  174   214          47.2132442016        1284.7376895281      DE        A2 (4)
  175   128          48.1712817851        1310.8072175250      PI        B1 (2)
  176   180          48.1712817851        1310.8072175251      PI        B2 (3)
  177    69          48.8086202787        1328.1500796280     SG+        A1 (1)
  178    70          64.8973691510        1765.9471936193     SG+        A1 (1)
  179   129          67.1077146151        1826.0937514883      PI        B1 (2)
  180   181          67.1077146151        1826.0937514884      PI        B2 (3)
  181    71          68.5261115161        1864.6902933749     SG+        A1 (1)
  182   130          98.7649421342        2687.5307068936      PH        B1 (2)
  183   182          98.7649421342        2687.5307068937      PH        B2 (3)
  184   215          98.8126962504        2688.8301624563      DE        A2 (4)
  185    72          98.8126962504        2688.8301624563      DE        A1 (1)
  186   183          98.8745476744        2690.5132252698      PI        B2 (3)
  187   131          98.8745476744        2690.5132252699      PI        B1 (2)
  188    73          98.9237419337        2691.8518691198     SG+        A1 (1)
  189   184         103.3006646522        2810.9539913255      PH        B2 (3)
  190   132         103.3006646522        2810.9539913255      PH        B1 (2)
  191    74         103.3705746106        2812.8563380069      DE        A1 (1)
  192   216         103.3705746106        2812.8563380073      DE        A2 (4)
  193   133         103.4488184537        2814.9854612219      PI        B1 (2)
  194   185         103.4488184537        2814.9854612219      PI        B2 (3)
  195    75         103.5551557968        2817.8790474331     SG+        A1 (1)
  196   217         115.3467726412        3138.7452542934      DE        A2 (4)
  197    76         115.3467726412        3138.7452542934      DE        A1 (1)
  198   134         115.8362550795        3152.0647485877      PI        B1 (2)
  199   186         115.8362550795        3152.0647485878      PI        B2 (3)
  200    77         116.3376332667        3165.7079426683     SG+        A1 (1)
  201   187         117.2113716742        3189.4835734659      PI        B2 (3)
  202   135         117.2113716742        3189.4835734664      PI        B1 (2)
  203    78         119.1027719919        3240.9511926738     SG+        A1 (1)
  204    79         123.3905335501        3357.6271163634     SG+        A1 (1)
  205    80         198.6444348180        5405.3898761093      DE        A1 (1)
  206   218         198.6444348180        5405.3898761094      DE        A2 (4)
  207   136         199.1738905404        5419.7970987636      PI        B1 (2)
  208   188         199.1738905404        5419.7970987641      PI        B2 (3)
  209    81         199.5279744913        5429.4322129071     SG+        A1 (1)
  210    82         217.3069424618        5913.2225268100     SG+        A1 (1)
  211   137         225.4998415958        6136.1626463031      PI        B1 (2)
  212   189         225.4998415958        6136.1626463031      PI        B2 (3)
  213    83         226.6440810599        6167.2989850626     SG+        A1 (1)
  214   190         395.6325390330       10765.7087051414      PI        B2 (3)
  215   138         395.6325390330       10765.7087051417      PI        B1 (2)
  216    84         397.0043796153       10803.0383851908     SG+        A1 (1)
  217    85         509.8194413741       13872.8922840034     SG+        A1 (1)
  218    86         896.1761063892       24386.1916248755     SG+        A1 (1)


  VSCF finished.

 @CHECKOUT-I, Total execution time (CPU/WALL):       52.94/      10.52 seconds.
--executable xvscf finished with status     0 in       10.54 seconds (walltime).
 --invoking executable--
/nfs/workspaces/public/cfour_mpi/bin/xvtran
 @GETMEM-I,  Allocated    3814 MB of main memory.
  Full RHF integral transformation
  Transformation of IIII integrals :
  1 pass through the AO integral file was required.
     4688964 AO integrals were read.
     8903112 MO integrals were written to HF2.
  Transformation of IIJJ integrals :
  1 pass through the AO integral file was required.
    10578200 AO integrals were read.
    14726600 MO integrals were written to HF2.
  Transformation of IJIJ integrals :
  1 pass through the AO integral file was required.
    20066443 AO integrals were read.
    27964661 MO integrals were written to HF2.
  Transformation of IJKL integrals :
  1 pass through the AO integral file was required.
    14816224 AO integrals were read.
    18920539 MO integrals were written to HF2.
  Summary of active molecular orbitals: 
------------------------------------------------------------------------
 
  Index      Eigenvalue    Symmetry    Index      Eigenvalue    Symmetry
------------------------------------------------------------------------
     1       -20.6525038        1       110         4.2144627        2
     2       -11.2846466        1       111         4.4859357        2
     3        -1.6396085        1       112         4.8902674        2
     4        -0.8187320        1       113         5.3282457        2
     5        -0.5309062        1       114         5.9942789        2
     6        -0.7239859        2       115         6.3010231        2
     7        -0.7239859        3       116         6.4026966        2
     8         0.0575670        1       117         6.5219749        2
     9         0.0759044        1       118         7.9276048        2
    10         0.1566080        1       119         8.9511765        2
    11         0.2268780        1       120        10.1830803        2
    12         0.2270886        1       121        11.0399514        2
    13         0.3019889        1       122        11.4582755        2
    14         0.3980221        1       123        11.8721803        2
    15         0.5080087        1       124        13.1856346        2
    16         0.5218097        1       125        15.1317203        2
    17         0.6613552        1       126        19.6763549        2
    18         0.7699415        1       127        27.7475256        2
    19         0.7930285        1       128        33.9855592        2
    20         0.8784115        1       129        48.1712818        2
    21         0.9057746        1       130        67.1077146        2
    22         0.9610203        1       131        98.7649421        2
    23         1.3425570        1       132        98.8745477        2
    24         1.4977274        1       133       103.3006647        2
    25         1.5592765        1       134       103.4488185        2
    26         1.6568074        1       135       115.8362551        2
    27         1.7634443        1       136       117.2113717        2
    28         1.7753742        1       137       199.1738905        2
    29         2.1149011        1       138       225.4998416        2
    30         2.2266256        1       139       395.6325390        2
    31         2.2353143        1       140         0.0644950        3
    32         2.3440919        1       141         0.1550137        3
    33         2.3886606        1       142         0.1985554        3
    34         2.6045088        1       143         0.3418064        3
    35         3.1392040        1       144         0.4050318        3
    36         3.1542993        1       145         0.6182088        3
    37         3.3752769        1       146         0.7500104        3
    38         3.7679056        1       147         0.8448373        3
    39         3.9987806        1       148         0.8707881        3
    40         4.1809340        1       149         1.1220897        3
    41         4.3400959        1       150         1.4584030        3
    42         4.4572980        1       151         1.5277211        3
    43         4.6986262        1       152         1.8641851        3
    44         5.1002130        1       153         1.9923328        3
    45         5.2034329        1       154         2.2631443        3
    46         5.9267607        1       155         2.3542506        3
    47         6.1585254        1       156         2.4275382        3
    48         6.3364522        1       157         2.6111296        3
    49         6.3414375        1       158         3.0239049        3
    50         6.7463515        1       159         3.7497344        3
    51         7.1475308        1       160         4.0636399        3
    52         8.0685416        1       161         4.2144627        3
    53         8.5011627        1       162         4.4859357        3
    54         8.8397363        1       163         4.8902674        3
    55         9.8635025        1       164         5.3282457        3
    56        10.6055934        1       165         5.9942789        3
    57        11.3398916        1       166         6.3010231        3
    58        11.3762735        1       167         6.4026966        3
    59        12.4606821        1       168         6.5219749        3
    60        12.7894605        1       169         7.9276048        3
    61        13.1245241        1       170         8.9511765        3
    62        14.1115218        1       171        10.1830803        3
    63        15.6587611        1       172        11.0399514        3
    64        18.8619776        1       173        11.4582755        3
    65        21.5453903        1       174        11.8721803        3
    66        26.7481867        1       175        13.1856346        3
    67        29.0021438        1       176        15.1317203        3
    68        36.0615177        1       177        19.6763549        3
    69        37.4620777        1       178        27.7475256        3
    70        47.2132442        1       179        33.9855592        3
    71        48.8086203        1       180        48.1712818        3
    72        64.8973692        1       181        67.1077146        3
    73        68.5261115        1       182        98.7649421        3
    74        98.8126963        1       183        98.8745477        3
    75        98.9237419        1       184       103.3006647        3
    76       103.3705746        1       185       103.4488185        3
    77       103.5551558        1       186       115.8362551        3
    78       115.3467726        1       187       117.2113717        3
    79       116.3376333        1       188       199.1738905        3
    80       119.1027720        1       189       225.4998416        3
    81       123.3905336        1       190       395.6325390        3
    82       198.6444348        1       191         0.2270886        4
    83       199.5279745        1       192         0.5218097        4
    84       217.3069425        1       193         0.7699415        4
    85       226.6440811        1       194         0.9057746        4
    86       397.0043796        1       195         1.4977274        4
    87       509.8194414        1       196         1.7753742        4
    88       896.1761064        1       197         2.1149011        4
    89         0.0644950        2       198         2.2353143        4
    90         0.1550137        2       199         2.3886606        4
    91         0.1985554        2       200         3.1392040        4
    92         0.3418064        2       201         3.7679056        4
    93         0.4050318        2       202         4.1809340        4
    94         0.6182088        2       203         4.4572980        4
    95         0.7500104        2       204         5.2034329        4
    96         0.8448373        2       205         5.9267607        4
    97         0.8707881        2       206         6.3414375        4
    98         1.1220897        2       207         6.7463515        4
    99         1.4584030        2       208         8.0685416        4
   100         1.5277211        2       209        10.6055934        4
   101         1.8641851        2       210        11.3398916        4
   102         1.9923328        2       211        12.4606821        4
   103         2.2631443        2       212        13.1245241        4
   104         2.3542506        2       213        26.7481867        4
   105         2.4275382        2       214        47.2132442        4
   106         2.6111296        2       215        98.8126963        4
   107         3.0239049        2       216       103.3705746        4
   108         3.7497344        2       217       115.3467726        4
   109         4.0636399        2       218       198.6444348        4
------------------------------------------------------------------------
  -20.6525037620567       -11.2846465693563       -1.63960851896521     
 -0.818732010863619      -0.530906156150385      -0.723985896571318     
 -0.723985896572069       5.756699792685414E-002  7.590440475502019E-002
  0.156608028508639       0.226878012965105       0.227088618268877     
  0.301988909947544       0.398022077920133       0.508008711686178     
  0.521809650300290       0.661355199424259       0.769941479411781     
  0.793028473259487       0.878411527624821       0.905774610620941     
  0.961020314451084        1.34255698452738        1.49772740238773     
   1.55927654610990        1.65680739093583        1.76344428562161     
   1.77537418504745        2.11490108417197        2.22662557183641     
   2.23531429182605        2.34409185219003        2.38866059115308     
   2.60450878283466        3.13920399349209        3.15429934681410     
   3.37527687217722        3.76790556773185        3.99878062645681     
   4.18093401919018        4.34009586969206        4.45729801948786     
   4.69862622111867        5.10021302228356        5.20343286469902     
   5.92676070001630        6.15852544584134        6.33645215074451     
   6.34143751091052        6.74635148221109        7.14753081899834     
   8.06854161207847        8.50116266479960        8.83973625536620     
   9.86350249722241        10.6055933832978        11.3398915741753     
   11.3762734640011        12.4606821276017        12.7894604584596     
[...]
 Convergence information after     6 iterations: 
 Largest element of residual vector : -0.37761928E-03.
 Largest element of DIIS residual   : -0.96485007E-04.
 Convergence information after     7 iterations: 
 Largest element of residual vector : -0.65802683E-04.
 Largest element of DIIS residual   : -0.29114075E-04.
 Convergence information after     8 iterations: 
 Largest element of residual vector : -0.17936120E-04.
 Largest element of DIIS residual   :  0.11420320E-04.
 Convergence information after     9 iterations: 
 Largest element of residual vector :  0.57675498E-05.
 Largest element of DIIS residual   :  0.27031605E-05.
 Convergence information after    10 iterations: 
 Largest element of residual vector :  0.21473535E-05.
 Largest element of DIIS residual   :  0.11931984E-05.
 Convergence information after    11 iterations: 
 Largest element of residual vector :  0.61339926E-06.
 Largest element of DIIS residual   :  0.33699590E-06.
 Convergence information after    12 iterations: 
 Largest element of residual vector :  0.24915861E-06.
 Largest element of DIIS residual   :  0.16338049E-06.
 Convergence information after    13 iterations: 
 Largest element of residual vector :  0.10372755E-06.
 Largest element of DIIS residual   :  0.81290278E-07.
 Perturbed amplitude equations converged in    13 iterations.
  Dominant contributions to perturbed wavefunction:
    7    7  142   37   0.2588217433 ABAB
    7    7   37  142   0.2588217433 ABAB
    7    7  142   63   0.2093112823 ABAB
    7    7   63  142   0.2093112823 ABAB
    5    5  142   43   0.1874096574 ABAB
    5    5   43  142   0.1874096574 ABAB
    7    7  142   48   0.1845855643 ABAB
    7    7   48  142   0.1845855643 ABAB
    7    7  142   27   0.1804206298 ABAB
    7    7   27  142   0.1804206298 ABAB
    7    6   37   91   0.1777965819 ABAB
    6    7   91   37   0.1777965819 ABAB
    5    5  142   54   0.1666631143 ABAB
    5    5   54  142   0.1666631143 ABAB
    7    7  142   43   0.1618318793 ABAB
    7    7   43  142   0.1618318793 ABAB
    7    7  143   37   0.1599990287 ABAB
    7    7   37  143   0.1599990287 ABAB
    5    5  142   30  -0.1526507444 ABAB
    5    5   30  142  -0.1526507444 ABAB
  norm of converged amps    2.92883176209406     
 Starting iterative solution of the perturbed Lambda equations.
 The DIIS procedure is used to accelerate convergence.
 Convergence criterion is 10**(-7).
 Maximum number of iterations is 100.
 Convergence information after     1 iterations: 
 Largest element of residual vector : -0.59780924E-01.
 Largest element of DIIS residual   : -0.59780924E-01.
 Convergence information after     2 iterations: 
 Largest element of residual vector :  0.56386790E-02.
 Largest element of DIIS residual   :  0.62789867E-02.
 Convergence information after     3 iterations: 
 Largest element of residual vector : -0.35662827E-02.
 Largest element of DIIS residual   : -0.31723238E-02.
 Convergence information after     4 iterations: 
 Largest element of residual vector : -0.22074897E-02.
 Largest element of DIIS residual   : -0.16490276E-02.
 Convergence information after     5 iterations: 
 Largest element of residual vector : -0.11486316E-02.
 Largest element of DIIS residual   : -0.50941905E-03.
 Convergence information after     6 iterations: 
 Largest element of residual vector : -0.35095586E-03.
 Largest element of DIIS residual   : -0.86030469E-04.
 Convergence information after     7 iterations: 
 Largest element of residual vector : -0.58585014E-04.
 Largest element of DIIS residual   : -0.24157769E-04.
 Convergence information after     8 iterations: 
 Largest element of residual vector : -0.14496556E-04.
 Largest element of DIIS residual   :  0.99777603E-05.
 Convergence information after     9 iterations: 
 Largest element of residual vector :  0.51216909E-05.
 Largest element of DIIS residual   :  0.23654649E-05.
 Convergence information after    10 iterations: 
 Largest element of residual vector :  0.18751347E-05.
 Largest element of DIIS residual   :  0.10670154E-05.
 Convergence information after    11 iterations: 
 Largest element of residual vector :  0.56243690E-06.
 Largest element of DIIS residual   :  0.32104334E-06.
 Convergence information after    12 iterations: 
 Largest element of residual vector :  0.23240751E-06.
 Largest element of DIIS residual   :  0.15121662E-06.
 Convergence information after    13 iterations: 
 Largest element of residual vector :  0.96698704E-07.
 Largest element of DIIS residual   :  0.73539492E-07.
 Perturbed Lambda equations converged in    13 iterations.
  Dominant contributions to perturbed wavefunction:
    7    7  142   37   0.2491392034 ABAB
    7    7   37  142   0.2491392034 ABAB
    7    7  142   63   0.2012572180 ABAB
    7    7   63  142   0.2012572180 ABAB
    5    5  142   43   0.1799661380 ABAB
    5    5   43  142   0.1799661380 ABAB
    7    7  142   48   0.1776545910 ABAB
    7    7   48  142   0.1776545910 ABAB
    7    7  142   27   0.1730326007 ABAB
    7    7   27  142   0.1730326007 ABAB
    7    6   37   91   0.1694544672 ABAB
    6    7   91   37   0.1694544672 ABAB
    5    5  142   54   0.1599933038 ABAB
    5    5   54  142   0.1599933038 ABAB
    7    7  143   37   0.1546578238 ABAB
    7    7   37  143   0.1546578238 ABAB
    7    7  142   43   0.1543563961 ABAB
    7    7   43  142   0.1543563961 ABAB
    5    5  142   30  -0.1467864230 ABAB
    5    5   30  142  -0.1467864230 ABAB
        The DBOC first-order density matrix is being calculated 
             (Symmetry block 3, perturbation   2)
 term   10.2726100508250     
 final tnorm  0.906353939740019     
  norm contr. I: |<0|L dT/dx|0>|^2   0.000000000000000E+000
  norm contr. II: <0|[nabla(1+L)e-T][nabla e^T]|0>   10.2726100508250     
  total norm contribution   10.2726100508250     
 oo  1.367098167215780E-002
 vv  -77.1792511036014     
 vo  1.395733122731279E-002
  Correlated perturbed 1-el contribution to DBOC  -77.1516227907019       cm**-1
  SUM_I |dc_I/dx|^2 contribution to DBOC   38.6733937515583       cm**-1
 
 
  The total diagonal Born-Oppenheimer correction (DBOC) is:      0.0041611215 a.u.
  The total diagonal Born-Oppenheimer correction (DBOC) is:        913.260616 cm-1
 
 Total CC energy including DBOC  -113.193580441810     
 First-order density matrix is being calculated  (Symmetry block 3, perturbation   2)
 Calculation of the contributions of <pq||rs> to dI(i,j)/dx required   1.7 seconds.
 Calculation of the contributions of <pq||rs> to dI(a,b)/dx required  15.6 seconds.
 Calculation of the contributions of <pq||rs> to dI(i,a)/dx required   9.3 seconds.
 First-order Z-vector equations are solved for 1 perturbation.
 Convergence reached after  17 iterations.
        U*G(pq,rs) contribution is being calculated
             (Symmetry block 3, perturbation   2)

 CCSD contribution to force constants 

        0.0000000000        0.0000000000        0.0000000000
        0.0000000000        0.0000000000        0.0000000000
        0.0000000000        0.0000000000        0.0000000000
        0.0000000000        0.0000000000        0.0000000000
        0.0000000000        0.0000000000        0.0000000000
        0.0000000000        0.0000000000        0.0000000000
        0.0000000000        0.0000000000        0.0000000000
        0.0000000000        0.0000000000        0.0000000000
        0.0000000000        0.0000000000        0.0000000000
        0.0000000000        0.0000000000        0.0000000000
        0.0000000000        0.0000000000        0.0000000000
        0.0000000000      -13.9982833140       13.9982833140

 CCSD contribution to dipole derivatives 

        0.0000000000        0.0000000000        0.0000000000
        0.0000000000        0.0000000000        0.0000000000
        0.0000000000        0.0000000000        0.0000000000
        0.0000000000        0.0000000000       -0.0373878080
        0.0000000000        0.0000000000        0.0000000000
        0.0000000000        0.0000000000        0.0000000000
 @CHECKOUT-I, Total execution time (CPU/WALL):      960.18/     253.59 seconds.
--executable xsdcc finished with status     0 in      253.64 seconds (walltime).
 --invoking executable--
/nfs/workspaces/public/cfour_mpi/bin/xanti
 @GETMEM-I,  Allocated    3814 MB of main memory.
 CCSD MO derivative gammas will be sorted to Mulliken order.
 @CHECKOUT-I, Total execution time (CPU/WALL):        8.81/      15.27 seconds.
--executable xanti finished with status     0 in       15.30 seconds (walltime).
 --invoking executable--
/nfs/workspaces/public/cfour_mpi/bin/xbcktrn
 @GETMEM-I,  Allocated    3814 MB of main memory.
 CCSD MO derivative gammas will be transformed to the AO basis.
 @CHECKOUT-I, Total execution time (CPU/WALL):       19.09/       4.67 seconds.
--executable xbcktrn finished with status     0 in        4.69 seconds (walltime).
 --invoking executable--
/nfs/workspaces/public/cfour_mpi/bin/xvdint
 @GETMEM-I,  Allocated    3814 MB of main memory.
 One- and two-electron integral derivatives are calculated
 for RHF-CC/MBPT hessians and dipole derivatives.
 Spherical gaussians are used.
  magnet F F
                    8722  records have been written to the Sort file.
  Total length of Sort file :             178609116  words.
 Evaluation of 2el integral derivatives

                      Two-electron integral gradient
                      ------------------------------

                         C #1 z     0.0000000000
                         O #2 z     0.0000000000


 C #1       0.0000000000           -1.7512696419            0.0000000000
 O #2       0.0000000000            1.7512696419            0.0000000000


 Evaluation of 2e integral derivatives required  351.51 seconds.
  contribution to Hessian
        0.0000000000        0.0000000000        0.0000000000
        0.0000000000       -1.7512696419        1.7512696419
 @CHECKOUT-I, Total execution time (CPU/WALL):      351.51/      74.19 seconds.
--executable xvdint finished with status     0 in       74.22 seconds (walltime).
 --invoking executable--
/nfs/workspaces/public/cfour_mpi/bin/xanti
 @GETMEM-I,  Allocated    3814 MB of main memory.
 CCSD MO gammas will be sorted to Mulliken order.
 @CHECKOUT-I, Total execution time (CPU/WALL):       11.05/       9.68 seconds.
--executable xanti finished with status     0 in        9.73 seconds (walltime).
 --invoking executable--
/nfs/workspaces/public/cfour_mpi/bin/xbcktrn
 @GETMEM-I,  Allocated    3814 MB of main memory.
 CCSD MO gammas will be transformed to the AO basis.
 @CHECKOUT-I, Total execution time (CPU/WALL):       28.92/       5.21 seconds.
--executable xbcktrn finished with status     0 in        5.22 seconds (walltime).
 --invoking executable--
/nfs/workspaces/public/cfour_mpi/bin/xvdint
 @GETMEM-I,  Allocated    3814 MB of main memory.
 One- and two-electron integral derivatives are calculated
 for RHF-CC/MBPT hessians and dipole derivatives.
 Spherical gaussians are used.
  magnet F F

                     Kinetic energy integral gradient
                     --------------------------------

                         C #1 z    -1.9706364566
                         O #2 z     1.9706364566


 C #1       0.0000000000            0.0000000000           -1.9706364566
 O #2       0.0000000000            0.0000000000            1.9706364566



                   Nuclear attraction integral gradient
                   ------------------------------------

                         C #1 z    27.8634712393
                         O #2 z   -27.8634712393


 C #1       0.0000000000            0.0000000000           27.8634712393
 O #2       0.0000000000            0.0000000000          -27.8634712393



                      Reorthonormalization gradient
                      -----------------------------

                         C #1 z     0.0000000000
                         O #2 z     0.0000000000


 C #1       0.0000000000            0.0000000000            0.0000000000
 O #2       0.0000000000            0.0000000000            0.0000000000



                     Kinetic energy integral Hessian
                     -------------------------------


           Symmetry 1

           C #1 z      O #2 z

 C #1 z    0.517817
 O #2 z   -0.517817    0.517817


           Symmetry 2

           C #1 x      O #2 x

 C #1 x   -3.613839
 O #2 x    3.613839   -3.613839


           Symmetry 3

           C #1 y      O #2 y

 C #1 y   -3.613839
 O #2 y    3.613839   -3.613839




           C #1 x      C #1 y      C #1 z      O #2 x      O #2 y      O #2 z

 C #1 x   -3.613839
 C #1 y    0.000000   -3.613839
 C #1 z    0.000000    0.000000    0.517817

 O #2 x    3.613839    0.000000    0.000000   -3.613839
 O #2 y    0.000000    3.613839    0.000000    0.000000   -3.613839
 O #2 z    0.000000    0.000000   -0.517817    0.000000    0.000000    0.517817




                   Nuclear attraction integral Hessian
                   -----------------------------------


           Symmetry 1

           C #1 z      O #2 z

 C #1 z  -12.400823
 O #2 z   12.400823  -12.400823


           Symmetry 2

           C #1 x      O #2 x

 C #1 x   32.207288
 O #2 x  -32.207288   32.207288


           Symmetry 3

           C #1 y      O #2 y

 C #1 y   32.207288
 O #2 y  -32.207288   32.207288




           C #1 x      C #1 y      C #1 z      O #2 x      O #2 y      O #2 z

 C #1 x   32.207288
 C #1 y    0.000000   32.207288
 C #1 z    0.000000    0.000000  -12.400823

 O #2 x  -32.207288    0.000000    0.000000   32.207288
 O #2 y    0.000000  -32.207288    0.000000    0.000000   32.207288
 O #2 z    0.000000    0.000000   12.400823    0.000000    0.000000  -12.400823




                Highest order reorthonormalization Hessian
                ------------------------------------------


           Symmetry 1

           C #1 z      O #2 z

 C #1 z    0.000000
 O #2 z    0.000000    0.000000


           Symmetry 2

           C #1 x      O #2 x

 C #1 x    0.000000
 O #2 x    0.000000    0.000000


           Symmetry 3

           C #1 y      O #2 y

 C #1 y    0.000000
 O #2 y    0.000000    0.000000




           C #1 x      C #1 y      C #1 z      O #2 x      O #2 y      O #2 z




                Electronic contributions to dipole moment
                -----------------------------------------

                               au             Debye

                    z     -0.25891630     -0.65809970

  Conversion factor used: 1 a.u. =   2.54174691 Debye 



   Electronic contributions to static part of dipole moment derivatives
   --------------------------------------------------------------------


                     Total dipole moment derivatives
                     -------------------------------


           Symmetry 1
                              Ez

               C #1 z    -5.83689349
               O #2 z    -8.16310651

           Symmetry 2
                              Ex

               C #1 x    -5.89687821
               O #2 x    -8.10312179

           Symmetry 3
                              Ey

               C #1 y    -5.89687821
               O #2 y    -8.10312179



                       Ex          Ey          Ez

      C #1    x   -5.896878    0.000000    0.000000
      C #1    y    0.000000   -5.896878    0.000000
      C #1    z    0.000000    0.000000   -5.836893

      O #2    x   -8.103122    0.000000    0.000000
      O #2    y    0.000000   -8.103122    0.000000
      O #2    z    0.000000    0.000000   -8.163107

 Evaluation of 1e integral derivatives required    1.73 seconds.
                    8815  records have been written to the Sort file.
  Total length of Sort file :             180513570  words.
 Evaluation of 2el integral derivatives

                      Two-electron integral gradient
                      ------------------------------

                         C #1 z   -11.8341378547
                         O #2 z    11.8341378547


 C #1       0.0000000000            0.0000000000          -11.8341378547
 O #2       0.0000000000            0.0000000000           11.8341378547


 Evaluation of 2e integral derivatives required  664.97 seconds.

                            Molecular gradient
                            ------------------

                         C #1 z    -0.4634528117
                         O #2 z     0.4634528117


 C #1       0.0000000000            0.0000000000           -0.4634528117
 O #2       0.0000000000            0.0000000000            0.4634528117


  Molecular gradient norm 0.655E+00

                            Molecular hessian
                            -----------------


           Symmetry 1

           C #1 z      O #2 z

 C #1 z  102.549250
 O #2 z -102.549250  102.549250


           Symmetry 2

           C #1 x      O #2 x

 C #1 x   14.794870
 O #2 x  -14.794870   14.794870


           Symmetry 3

           C #1 y      O #2 y

 C #1 y   14.794870
 O #2 y  -14.794870   14.794870




           C #1 x      C #1 y      C #1 z      O #2 x      O #2 y      O #2 z

 C #1 x   14.794870
 C #1 y    0.000000   14.794870
 C #1 z    0.000000    0.000000  102.549250

 O #2 x  -14.794870    0.000000    0.000000   14.794870
 O #2 y    0.000000  -14.794870    0.000000    0.000000   14.794870
 O #2 z    0.000000    0.000000 -102.549250    0.000000    0.000000  102.549250




                           Total dipole moment
                           -------------------

                               au             Debye

                    z     -0.26089782     -0.66313624

  Conversion factor used: 1 a.u. =   2.54174691 Debye 



                     Total dipole moment derivatives
                     -------------------------------


           Symmetry 1
                              Ez

               C #1 z     0.65187401
               O #2 z    -0.65187401

           Symmetry 2
                              Ex

               C #1 x    -0.14449445
               O #2 x     0.14449445

           Symmetry 3
                              Ey

               C #1 y    -0.14449445
               O #2 y     0.14449445



                       Ex          Ey          Ez

      C #1    x   -0.144494    0.000000    0.000000
      C #1    y    0.000000   -0.144494    0.000000
      C #1    z    0.000000    0.000000    0.651874

      O #2    x    0.144494    0.000000    0.000000
      O #2    y    0.000000    0.144494    0.000000
      O #2    z    0.000000    0.000000   -0.651874

 @CHECKOUT-I, Total execution time (CPU/WALL):      666.69/     113.42 seconds.
--executable xvdint finished with status     0 in      113.43 seconds (walltime).
 --invoking executable--
/nfs/workspaces/public/cfour_mpi/bin/xjoda
  @GTFLGS-I, Hessian will be transformed to curvilinear coordinates.
  @GTFLGS-I, Hessian will be transformed to curvilinear coordinates.
  igrd and ihes are                      0                     1
  gradient from JOBARC 
   0.000000000000000   0.000000000000000  -0.463452811694023
   0.000000000000000   0.000000000000000   0.463452811694023
 
  @PROJFCM-I, Projecting force constant matrix onto totally symmetric subspace.
  Largest difference between matrix elements of symmetrized
  and unsymmetrized FCM :    -0.1490008117E-10.
  read isotopes from ZMAT file 
 
  Summary of diagonal Born-Oppenheimer correction at the correlated level
  The total diagonal Born-Oppenheimer correction (DBOC) is:      0.0041611215 a.u.
  The total diagonal Born-Oppenheimer correction (DBOC) is:        913.260616 cm-1
  The total diagonal Born-Oppenheimer correction (DBOC) is:            10.925 kJ/mole
  hellooooooo 
  readis is  F
 
 @CHECKOUT-I, Total execution time (CPU/WALL):        0.01/       0.05 seconds.
--executable xjoda finished with status     0 in        0.08 seconds (walltime).
  The final electronic energy is      -113.193580441810440 a.u. 
  This computation required                         2513.51 seconds (walltime).
