 --invoking executable--
/nfs/workspaces/public/cfour_mpi/bin/xjoda


   *************************************************************************
         <<<     CCCCCC     CCCCCC   |||     CCCCCC     CCCCCC   >>>
       <<<      CCC        CCC       |||    CCC        CCC         >>>
      <<<      CCC        CCC        |||   CCC        CCC            >>>
    <<<        CCC        CCC        |||   CCC        CCC              >>>
      <<<      CCC        CCC        |||   CCC        CCC            >>>
       <<<      CCC        CCC       |||    CCC        CCC         >>>
         <<<     CCCCCC     CCCCCC   |||     CCCCCC     CCCCCC   >>>
   *************************************************************************

     ****************************************************************
     * CFOUR Coupled-Cluster techniques for Computational Chemistry *
     ****************************************************************
 

   Department of Chemistry                Institut fuer Physikalische Chemie
   University of Florida                  Universitaet Mainz
   Gainesville, FL 32611, USA             D-55099 Mainz, Germany

   Department of Chemistry                Fakultaet fuer Chemie und Biowiss.
   Johns Hopkins University               Karlsruher Institut fuer Technologie
   Baltimore, MD 21218, USA               D-76131 Karlsruhe, Germany

   Department of Chemistry                Department of Physical Chemistry
   Southern Methodist University          Eotvos Lorand University
   Dallas, TX 75275, USA                  H-1053 Budapest, Hungary

 
                       Version 2.1
 
                     vincent.theory.phys.ucl.ac.uk                     
                     Tue 25 Feb 01:36:18 GMT 2025                      
                     integer*8 version is running
 
********************************************************************************
*                          Input from ZMAT file                                *
********************************************************************************
Carbon Monoxide DBOC calculation                                                
C                                                                               
O 1 r                                                                           
                                                                                
r=1.1482758620689655                                                            
                                                                                
                                                                                
*CFOUR(CALC=CCSD,BASIS=AUG-PCVQZ,SCF_CONV=10                                    
CC_CONV=14,DBOC=ON,MEMORY=500000000                                             
ZFIELD=-200)                                                                    
                                                                                
%isotopes                                                                       
12                                                                              
16                                                                              
********************************************************************************
  @GTFLGS-I, Hessian will be transformed to curvilinear coordinates.
    -------------------------------------------------------------------
                    CFOUR Control Parameters 
    -------------------------------------------------------------------
        External           Internal           Value            Units
          Name               Name
    -------------------------------------------------------------------
       ABCDTYPE             IABCDT         STANDARD    [  0]    ***   
       ANHARMONIC           IANHAR         OFF         [  0]    ***   
       ANH_ALGORIT          IANALG         STANDARD    [  0]    ***   
       ANH_DERIVAT          IANDER         SECOND      [  1]    ***   
       ANH_MODE             ANHMOD         VIBRATION   [  0]    ***   
       ANH_STEPSIZ          ICUBST             50000          x 10-6  
       ANH_SYMMETR          IANHSM         ABELIAN     [  0]    ***   
       AO_LADDERS           IAOLAD         SINGLEPASS  [  1]    ***   
       AV_SCF               IAVSCF         OFF         [  0]    ***   
       BASIS                IBASIS         AUG-PCVQZ   [ 52]    ***   
       BOTHVECTORS          BOTHVC         OFF         [  0]    ***   
       BOX_POTENT           IPIAB          OFF         [  0]    ***   
       BREIT                IBREIT         OFF         [  0]    ***   
       BRUCK_CONV           IBRTOL          10D-  4             ***   
       BRUECKNER            IBRKNR         OFF         [  0]    ***   
       BUFFERSIZE           IBUFFS              4096            ***   
       CACHE_RECS           ICHREC             10               ***   
       CALCLEVEL            ICLLVL         CCSD        [ 10]    ***   
       CCORBOPT             ICCORB         OFF         [  0]  x 0.01  
       CC_CONV              ICCCNV          10D- 14             ***   
       CC_EXPORDER          ICCEOR              5               ***   
       CC_EXTRAPOL          ICCEXT         DIIS        [  1]    ***   
       CC_GUESS             ICCGES         MP2         [  0]    ***   
       CC_MAXCYC            ICCCYC            100              cycles 
       CC_PROGRAM           ICCPRO         VCC         [  0]    ***   
       CHARGE               ICHRGE              0               ***   
       CHOLESKY             ICHOLE         OFF         [  0]    ***   
       CIS_CONV             ICISTL              5               ***   
       COMM_SIZE            IPSIZE            ***               ***   
       CONSTANT             ICONST         OLD         [  1]    ***   
       CONTINUUM            ICONTU         NONE        [  0]    ***   
       CONTRACTION          ICNTYP         GENERAL     [  1]    ***   
       COORDINATES          ICOORD         INTERNAL    [  0]    ***   
       CPHF_CONVER          ICPHFT          10D- 16             ***   
       CPHF_MAXCYC          ICPHFC             64              cycles 
       CUBIC                ICUBIC         OFF         [  0]    ***   
       CURVILINEAR          ICURVY         ON          [  1]    ***   
       DBOC                 IDBOC          ON          [  1]    ***   
       DCT                  IDCT           OFF         [  0]    ***   
       DERIV_LEV            IDRLVL         SECOND      [  2]    ***   
       DEVMEM_SIZE          IDVMEM          50000000           MByte  
       DIAG_MRCC            IEOMST          10D-  0             ***   
       DIFF_TYPE            IDIFTY         RELAXED     [  0]    ***   
       DIRECT               IDIRCT         OFF         [  0]    ***   
       DROPMO               IDRPMO      NONE         
       ECP                  IECP           OFF         [  0]    ***   
       EIGENVECTOR          IVEC                1               ***   
       EL_ANHARM            IELANH         OFF         [  0]    ***   
       EOMFOLLOW            IEOMSR         ENERGY      [  0]    ***   
       EOMIP                IEOMIP         OFF         [  0]    ***   
       EOMLEVEL             HBARFM         SAME        [  0]    ***   
       EOM_MRCC             IMRCCE         NEW         [  1]    ***   
       EOM_NONIT            EOMNON         OFF         [  0]    ***   
       EOM_NSING            IEOMSI          10D-  0             ***   
       EOM_NSTATES          IMRCCD         DAVIDSON    [  0]    ***   
       EOM_NTRIP            IEOMTR          10D-  0             ***   
       EOM_ORDER            IEXORD         ENERGY      [  0]    ***   
       EOM_PROPSTA          IEOMST              0               ***   
       ESTATE_CONV          IEXTOL          10D-  5             ***   
       ESTATE_DIAG          IEXDIG         ITERATIVE   [  0]    ***   
       ESTATE_LOCK          IESLOC         ON          [  1]    ***   
       ESTATE_MAXC          IEXMXC             40               ***   
       ESTATE_PROP          IEXPRP         OFF         [  0]    ***   
       EVAL_HESS            IRECAL              0            # of cyc.
       EXCITATION           IEXCIT              0               ***   
       EXCITE               IEXCIT         NONE        [  0]    ***   
       EXTERN_POT           IEXPOT         OFF         [  0]    ***   
       FCGRADNEW            IFCGNW         OFF         [  0]    ***   
       FC_FIELD             IFINFC              0             x 10-6  
       FD_CALTYPE           IFDCAL         GRADONLY    [  0]    ***   
       FD_PROJECT           IFDPRJ         OFF         [  1]    ***   
       FD_STEPSIZE          IDISFD              0            10-4 bohr
       FD_USEGROUP          IFDGRP         FULL        [  0]    ***   
       FILE_RECSIZ          IFLREC              4096           words  
       FINITE_PERT          IFIPER              0             x 10-6  
       FIXGEOM              IFIXGM         OFF         [  0]    ***   
       FOCK                 IFOCK          AO          [  1]    ***   
       FREQ_ALGORI          IVIALG         STANDARD    [  0]    ***   
       FROZEN_CORE          IFROCO         OFF         [  0]    ***   
       GAMMA_ABCD           IGABCD         STORE       [  0]    ***   
       GAMMA_ABCI           IGABCI         STORE       [  0]    ***   
       GENBAS_1             IGNBS1              0               ***   
       GENBAS_2             IGNBS2              0               ***   
       GENBAS_3             IGNBS3              0               ***   
       GENBAS_4             IGNBS4              0               ***   
       GEO_CONV             ICONTL              5              H/bohr 
       GEO_MAXCYC           IOPTCY             50               ***   
       GEO_MAXSTEP          IMXSTP            300            millibohr
       GEO_METHOD           INR            SINGLE_POINT[  5]    ***   
       GIAO                 IGIAO          OFF         [  1]    ***   
       GIMIC                IGIMIC         OFF         [  0]    ***   
       GRID                 IGRID          OFF         [  0]    ***   
       GRID_ALGO            IGALGO         SERIAL      [  0]    ***   
       GUESS                IGUESS         MOREAD      [  0]    ***   
       HBAR                 IHBAR          OFF         [  0]    ***   
       HESS_TYPE            IHESTP         SCF         [  0]    ***   
       HF2_FILE             IHF2Fl         USE         [  1]    ***   
       HFSTABILITY          ISTABL         OFF         [  0]    ***   
       INCORE               INCORE         OFF         [  0]    ***   
       INPUT_MRCC           IMRCC          ON          [  1]    ***   
       INTEGRALS            INTTYP         VMOL        [  1]    ***   
       JODA_PRINT           IJPRNT              0               ***   
       KEYWORD_OUT          IDMPKW         NO          [  0]    ***   
       LINDEP_TOL           ILINDP              8               ***   
       LINEQ_CONV           IZTACN          10D-  7           cycles  
       LINEQ_EXPOR          ILMAXD              5               ***   
       LINEQ_MAXCY          ILMAXC            100               ***   
       LINEQ_TYPE           ILTYPE         DIIS        [  1]    ***   
       LOCK_ORBOCC          ILOCOC         OFF         [  0]    ***   
       MEMORY_SIZE          IMEMSZ         500000000           words  
       MEM_UNIT             IMEMU          INTEGERWORDS[  0]    ***   
       MRCC                 IMRCCC         OFF         [  0]    ***   
       MULTIPLICTY          IMULTP              1               ***   
       NACOUPLING           IVCOUP         OFF         [  0]    ***   
       NEGEVAL              IDIE           ABORT       [  0]    ***   
       NEWNORM              INEWNO         OFF         [  0]    ***   
       NON-HF               INONHF         OFF         [  0]    ***   
       NTOP_TAMP            ITOPT2             15               ***   
       NUC_MODEL            INUCMO         POINT       [  0]    ***   
       OCCUPATION           IOCCU   ESTIMATED BY SCF 
       OPEN-SHELL           IOPEN          SPIN-ORBITAL[  0]    ***   
       OPTVIB               IOPTVB         OFF         [  0]    ***   
       ORBITALS             IORBTP         STANDARD    [  0]    ***   
       PARALLEL             IPARAL         ON          [  1]    ***   
       PARA_INT             IPINTS         ON          [  1]    ***   
       PARA_PRINT           IPPRIN              0               ***   
       PERT_ORB             IPTORB         STANDARD    [  0]    ***   
       POINTS               IGRDFD              0               ***   
       PRINT                IPRNT               0               ***   
       PROPS                IPROPS         OFF         [  0]    ***   
       PROP_INTEGR          IINTYP         INTERNAL    [  0]    ***   
       PSI                  IPSI           OFF         [  0]    ***   
       QC_ALG               IQCALG         FLM         [  0]    ***   
       QC_LINALG            IQCLIN         TRIDIAG     [  2]    ***   
       QC_MAXCYC            IQCMAX          10D-100           cycles  
       QC_MAXSCFCY          IQCMSC          10D- 15           cycles  
       QC_RTRUST            IQCRTR          10D-  0           x 10-3  
       QC_SKIPSCF           IQCSKI         OFF         [  0]    ***   
       QC_START             IQCSTA          10D-  1             ***   
       QRHFGUESS            IQGUES         OFF         [  0]    ***   
       QUARTIC              IQUART         OFF         [  0]    ***   
       RAMAN_INT            IRAMIN         OFF         [  0]    ***   
       RAMAN_ORB            IRAMRE         UNRELAXED   [  0]    ***   
       RDO                  IRDOFM         ON          [  1]    ***   
       REDUCE_REPR          REDREP         Ir          [  0]    ***   
       REFERENCE            IREFNC         RHF         [  0]    ***   
       RELATIVIST           IRELAT         OFF         [  0]    ***   
       RELAX_DENS           IRDENS         ON          [  1]    ***   
       RESET_FLAGS          IRESET         OFF         [  0]    ***   
       RESTART_CC           ICCRES         OFF         [  0]    ***   
       ROT_EVEC             ROTVEC              0               ***   
       SAVE_INTS            ISVINT         OFF         [  0]    ***   
       SCALE_ON             ISTCRT              0               ***   
       SCF_CONV             ISCFCV          10D- 10             ***   
       SCF_DAMPING          IDAMP               0             x 10-3  
       SCF_EXPORDE          IRPPOR              6               ***   
       SCF_EXPSTAR          IRPPLS              8               ***   
       SCF_EXTRAPO          IRPP           ON          [  1]    ***   
       SCF_MAXCYC           ISCFCY            150              cycles 
       SCF_NOSTOP           ISCFST         OFF         [  0]    ***   
       SCF_PRINT            ISCFPR              0               ***   
       SCF_PROG             ISCFPR         SCF         [  0]    ***   
       SD_FIELD             IFINSD              0             x 10-6  
       SOPERT               IPERSO         OFF         [  0]    ***   
       SPHERICAL            IDFGHI         ON          [  1]    ***   
       SPINORBIT            ISOCAL         OFF         [  0]    ***   
       SPINROTATIO          ISRCON         OFF         [  0]    ***   
       SPIN_FLIP            ISPFLP         OFF         [  0]    ***   
       SPIN_ORBIT           ISPORB         OFF         [  0]    ***   
       SPIN_SCAL            ISCSMP         OFF         [  0]    ***   
       STEEPSCALE           ISTPSC              1000          x 10-3  
       SUBGROUP             ISUBGP         DEFAULT     [  0]    ***   
       SUBGRPAXIS           ISBXYZ         X           [  0]    ***   
       SYMMETRY             ISYM           ON          [  0]    ***   
       SYM_CHECK            ISYMCK         OVERRIDE    [  1]    ***   
       T3_EXTRAPOL          IT3EXT         OFF         [  0]    ***   
       T4_EXTRAPOL          IT4EXP         OFF         [  0]    ***   
       TAMP_SUM             IEVERY              5               ***   
       TESTSUITE            ITESTS         OFF         [  0]    ***   
       THERMOCH             ITHERM         OFF         [  0]    ***   
       TOL_CHOLESK          ITOLCH          10D-  4             ***   
       TRANGRAD             IRESRM         OFF         [  0]    ***   
       TRANS_INV            ITRAIN         IGNORE      [  1]    ***   
       TREAT_PERT           ITREAT         SIMULTANEOUS[  0]    ***   
       TRIP_ALGORI          ITRALG         NORMAL      [  0]    ***   
       UIJ_THRESHO          IUIJTH              1               ***   
       UNITS                IUNITS         ANGSTROM    [  0]    ***   
       UNOS                 IUNOS          OFF         [  0]    ***   
       UPDATE_HESS          IHUPDT         ON          [  1]    ***   
       VIBPHASE             ISETPH         STANDARD    [  0]    ***   
       VIBRATION            IVIB           ANALYTIC    [  1]    ***   
       VIB_ALGORIT          IGEALG         STANDARD    [  0]    ***   
       VNATORB              IVNORB         OFF         [  0]    ***   
       VTRAN                IVTRAN         FULL/PARTIAL[  0]    ***   
       XFIELD               IXEFLD              0             x 10-6  
       XFORM_TOL            IXFTOL          10D- 11             ***   
       YFIELD               IYEFLD              0             x 10-6  
       ZFIELD               IZEFLD            ***             x 10-6  
       ZSCALE_EXP           IZEXPS         OFF         [  0]    ***   
    -------------------------------------------------------------------
   2 entries found in Z-matrix 
   Job Title : Carbon Monoxide DBOC calculation                                                
   There are  1 unique internal coordinates.
   Of these,  0 will be optimized.
   User supplied Z-matrix: 
--------------------------------------------------------------------------------
       SYMBOL    BOND      LENGTH    ANGLE     ANGLE     DIHED     ANGLE
                  TO      (ANGST)    WRT      (DEG)      WRT      (DEG)
--------------------------------------------------------------------------------
        C    
        O          1         r    
                  *Initial values for internal coordinates* 
                      Name             Value
                        r               1.1482758621
--------------------------------------------------------------------------------
  read isotopes from ZMAT file 
   Rotational constants (in cm-1): 
          1.8647476087             1.8647476087
   Rotational constants (in MHz): 
      55903.7347489792         55903.7347489792
********************************************************************************
   The full molecular point group is CXv .
   The largest Abelian subgroup of the full molecular point group is C2v .
   The computational point group is C2v .
********************************************************************************
--------------------------------------------------------------------------------
   Analysis of internal coordinates specified by Z-matrix 
--------------------------------------------------------------------------------
   *The nuclear repulsion energy is   22.120556252252253 a.u.
   *There is   1 degree of freedom within the tot. symm. molecular subspace.
   *Z-matrix requests optimization of   0 coordinates.
   *The optimization is constrained.
   *The following   1 parameters can have non-zero 
    derivatives within the totally symmetric subspace:
             r    [ 1]
   *The following   0 parameters are to be optimized:

   *The following coordinates must be varied in an  unconstrained optimization.
             r    [ 1]
--------------------------------------------------------------------------------


 ----------------------------------------------------------------
         Coordinates used in calculation (QCOMP) 
 ----------------------------------------------------------------
 Z-matrix   Atomic            Coordinates (in bohr)
  Symbol    Number           X              Y              Z
 ----------------------------------------------------------------
     C         6        -0.00000000     0.00000000     1.23978955
     O         8         0.00000000     0.00000000    -0.93013780
 ----------------------------------------------------------------
 
   Interatomic distance matrix (Angstroms) 
 
                 C             O    
                [ 1]        [ 2]
  C    [ 1]     0.00000
  O    [ 2]     1.14828     0.00000
 rotcon2
   Rotational constants (in cm-1): 
          1.8647476087             0.0000000000
   Rotational constants (in MHz): 
      55903.7347489792             0.0000000000
  ECPDATA file not present.   Using default ECPDATA. 
  @GTFLGS-I, Hessian will be transformed to curvilinear coordinates.
  There are  218 basis functions.
 @CHECKOUT-I, Total execution time (CPU/WALL):        0.11/       0.16 seconds.
--executable xjoda finished with status     0 in        0.17 seconds (walltime).
 --invoking executable--
/nfs/workspaces/public/cfour_mpi/bin/xvmol
 SERIAL VERSION OF MOLECULE STARTED
********************************************************************************
                    INPUT FROM MOL FILE
********************************************************************************
INTGRL        1    0    1    0    0    0    0    0    0                         
         *** CFOUR Program System (Release V0.1) ***                            
Carbon Monoxide DBOC calculation                                                
    2    2 X  Y       0.10E-08              0    0                              
   9999.00      3.00                                                            
          6.00000000    1    5    1    1    1    1    1                         
C #1  -0.000000000000000   0.000000000000000   1.239789553523708                
   16    9                                                                      
   33980.0000000000       9.100000000000000E-005 -1.900000000000000E-005        
  0.000000000000000E+000  0.000000000000000E+000  0.000000000000000E+000        
  0.000000000000000E+000  0.000000000000000E+000  0.000000000000000E+000        
  0.000000000000000E+000                                                        
   5089.00000000000       7.040000000000000E-004 -1.510000000000000E-004        
  0.000000000000000E+000  0.000000000000000E+000  0.000000000000000E+000        
  0.000000000000000E+000  0.000000000000000E+000  0.000000000000000E+000        
  0.000000000000000E+000                                                        
   1157.00000000000       3.693000000000000E-003 -7.850000000000000E-004        
  0.000000000000000E+000  0.000000000000000E+000  0.000000000000000E+000        
  0.000000000000000E+000  0.000000000000000E+000  0.000000000000000E+000        
  0.000000000000000E+000                                                        
   326.600000000000       1.536000000000000E-002 -3.324000000000000E-003        
  0.000000000000000E+000  0.000000000000000E+000  0.000000000000000E+000        
  0.000000000000000E+000  0.000000000000000E+000  0.000000000000000E+000        
  0.000000000000000E+000                                                        
   106.100000000000       5.292900000000000E-002 -1.151200000000000E-002        
  0.000000000000000E+000  0.000000000000000E+000  0.000000000000000E+000        
  0.000000000000000E+000  0.000000000000000E+000  0.000000000000000E+000        
  0.000000000000000E+000                                                        
   38.1100000000000       0.147043000000000      -3.416000000000000E-002        
  0.000000000000000E+000  0.000000000000000E+000  0.000000000000000E+000        
  0.000000000000000E+000  0.000000000000000E+000  0.000000000000000E+000        
  0.000000000000000E+000                                                        
   14.7500000000000       0.305631000000000      -7.717300000000001E-002        
  0.000000000000000E+000  0.000000000000000E+000  0.000000000000000E+000        
  0.000000000000000E+000  0.000000000000000E+000  0.000000000000000E+000        
  0.000000000000000E+000                                                        
   6.03500000000000       0.399345000000000      -0.141493000000000             
  0.000000000000000E+000  0.000000000000000E+000  0.000000000000000E+000        
  0.000000000000000E+000  0.000000000000000E+000  0.000000000000000E+000        
  0.000000000000000E+000                                                        
   2.53000000000000       0.217051000000000      -0.118019000000000             
  0.000000000000000E+000  0.000000000000000E+000  0.000000000000000E+000        
  0.000000000000000E+000  0.000000000000000E+000  0.000000000000000E+000        
  0.000000000000000E+000                                                        
  0.735500000000000       1.589400000000000E-002  0.273806000000000             
   1.00000000000000       0.000000000000000E+000  0.000000000000000E+000        
  0.000000000000000E+000  0.000000000000000E+000  0.000000000000000E+000        
  0.000000000000000E+000                                                        
  0.290500000000000      -3.084000000000000E-003  0.586510000000000             
  0.000000000000000E+000   1.00000000000000       0.000000000000000E+000        
  0.000000000000000E+000  0.000000000000000E+000  0.000000000000000E+000        
  0.000000000000000E+000                                                        
  0.111100000000000       9.779999999999999E-004  0.285430000000000             
  0.000000000000000E+000  0.000000000000000E+000   1.00000000000000             
  0.000000000000000E+000  0.000000000000000E+000  0.000000000000000E+000        
  0.000000000000000E+000                                                        
   7.21600000000000       0.000000000000000E+000  0.000000000000000E+000        
  0.000000000000000E+000  0.000000000000000E+000  0.000000000000000E+000        
   1.00000000000000       0.000000000000000E+000  0.000000000000000E+000        
  0.000000000000000E+000                                                        
   19.5700000000000       0.000000000000000E+000  0.000000000000000E+000        
  0.000000000000000E+000  0.000000000000000E+000  0.000000000000000E+000        
  0.000000000000000E+000   1.00000000000000       0.000000000000000E+000        
  0.000000000000000E+000                                                        
   53.0730000000000       0.000000000000000E+000  0.000000000000000E+000        
  0.000000000000000E+000  0.000000000000000E+000  0.000000000000000E+000        
  0.000000000000000E+000  0.000000000000000E+000   1.00000000000000             
  0.000000000000000E+000                                                        
  4.145000000000000E-002  0.000000000000000E+000  0.000000000000000E+000        
  0.000000000000000E+000  0.000000000000000E+000  0.000000000000000E+000        
  0.000000000000000E+000  0.000000000000000E+000  0.000000000000000E+000        
   1.00000000000000                                                             
   10    8                                                                      
   34.5100000000000       5.378000000000000E-003  0.000000000000000E+000        
  0.000000000000000E+000  0.000000000000000E+000  0.000000000000000E+000        
  0.000000000000000E+000  0.000000000000000E+000  0.000000000000000E+000        
   7.91500000000000       3.613200000000000E-002  0.000000000000000E+000        
  0.000000000000000E+000  0.000000000000000E+000  0.000000000000000E+000        
  0.000000000000000E+000  0.000000000000000E+000  0.000000000000000E+000        
   2.36800000000000       0.142493000000000       0.000000000000000E+000        
  0.000000000000000E+000  0.000000000000000E+000  0.000000000000000E+000        
  0.000000000000000E+000  0.000000000000000E+000  0.000000000000000E+000        
  0.813200000000000       0.342150000000000        1.00000000000000             
  0.000000000000000E+000  0.000000000000000E+000  0.000000000000000E+000        
  0.000000000000000E+000  0.000000000000000E+000  0.000000000000000E+000        
  0.289000000000000       0.463864000000000       0.000000000000000E+000        
   1.00000000000000       0.000000000000000E+000  0.000000000000000E+000        
  0.000000000000000E+000  0.000000000000000E+000  0.000000000000000E+000        
  0.100700000000000       0.250028000000000       0.000000000000000E+000        
  0.000000000000000E+000   1.00000000000000       0.000000000000000E+000        
  0.000000000000000E+000  0.000000000000000E+000  0.000000000000000E+000        
   8.18200000000000       0.000000000000000E+000  0.000000000000000E+000        
  0.000000000000000E+000  0.000000000000000E+000   1.00000000000000             
  0.000000000000000E+000  0.000000000000000E+000  0.000000000000000E+000        
   24.1860000000000       0.000000000000000E+000  0.000000000000000E+000        
  0.000000000000000E+000  0.000000000000000E+000  0.000000000000000E+000        
   1.00000000000000       0.000000000000000E+000  0.000000000000000E+000        
   71.4940000000000       0.000000000000000E+000  0.000000000000000E+000        
  0.000000000000000E+000  0.000000000000000E+000  0.000000000000000E+000        
  0.000000000000000E+000   1.00000000000000       0.000000000000000E+000        
  3.218000000000000E-002  0.000000000000000E+000  0.000000000000000E+000        
  0.000000000000000E+000  0.000000000000000E+000  0.000000000000000E+000        
  0.000000000000000E+000  0.000000000000000E+000   1.00000000000000             
    6    6                                                                      
   1.84800000000000        1.00000000000000       0.000000000000000E+000        
  0.000000000000000E+000  0.000000000000000E+000  0.000000000000000E+000        
  0.000000000000000E+000                                                        
  0.649000000000000       0.000000000000000E+000   1.00000000000000             
  0.000000000000000E+000  0.000000000000000E+000  0.000000000000000E+000        
  0.000000000000000E+000                                                        
  0.228000000000000       0.000000000000000E+000  0.000000000000000E+000        
   1.00000000000000       0.000000000000000E+000  0.000000000000000E+000        
  0.000000000000000E+000                                                        
   8.65600000000000       0.000000000000000E+000  0.000000000000000E+000        
  0.000000000000000E+000   1.00000000000000       0.000000000000000E+000        
  0.000000000000000E+000                                                        
   33.2130000000000       0.000000000000000E+000  0.000000000000000E+000        
  0.000000000000000E+000  0.000000000000000E+000   1.00000000000000             
  0.000000000000000E+000                                                        
  7.660000000000000E-002  0.000000000000000E+000  0.000000000000000E+000        
  0.000000000000000E+000  0.000000000000000E+000  0.000000000000000E+000        
   1.00000000000000                                                             
    4    4                                                                      
   1.41900000000000        1.00000000000000       0.000000000000000E+000        
  0.000000000000000E+000  0.000000000000000E+000                                
  0.485000000000000       0.000000000000000E+000   1.00000000000000             
  0.000000000000000E+000  0.000000000000000E+000                                
   24.6940000000000       0.000000000000000E+000  0.000000000000000E+000        
   1.00000000000000       0.000000000000000E+000                                
  0.187000000000000       0.000000000000000E+000  0.000000000000000E+000        
  0.000000000000000E+000   1.00000000000000                                     
    2    2                                                                      
   1.01100000000000        1.00000000000000       0.000000000000000E+000        
  0.424000000000000       0.000000000000000E+000   1.00000000000000             
          8.00000000    1    5    1    1    1    1    1                         
O #2   0.000000000000000   0.000000000000000  -0.930137796070531                
   16    9                                                                      
   61420.0000000000       9.000000000000001E-005 -2.000000000000000E-005        
  0.000000000000000E+000  0.000000000000000E+000  0.000000000000000E+000        
  0.000000000000000E+000  0.000000000000000E+000  0.000000000000000E+000        
  0.000000000000000E+000                                                        
   9199.00000000000       6.980000000000001E-004 -1.590000000000000E-004        
  0.000000000000000E+000  0.000000000000000E+000  0.000000000000000E+000        
  0.000000000000000E+000  0.000000000000000E+000  0.000000000000000E+000        
  0.000000000000000E+000                                                        
   2091.00000000000       3.664000000000000E-003 -8.290000000000000E-004        
  0.000000000000000E+000  0.000000000000000E+000  0.000000000000000E+000        
  0.000000000000000E+000  0.000000000000000E+000  0.000000000000000E+000        
  0.000000000000000E+000                                                        
   590.900000000000       1.521800000000000E-002 -3.508000000000000E-003        
  0.000000000000000E+000  0.000000000000000E+000  0.000000000000000E+000        
  0.000000000000000E+000  0.000000000000000E+000  0.000000000000000E+000        
  0.000000000000000E+000                                                        
   192.300000000000       5.242300000000000E-002 -1.215600000000000E-002        
  0.000000000000000E+000  0.000000000000000E+000  0.000000000000000E+000        
  0.000000000000000E+000  0.000000000000000E+000  0.000000000000000E+000        
  0.000000000000000E+000                                                        
   69.3200000000000       0.145921000000000      -3.626100000000000E-002        
  0.000000000000000E+000  0.000000000000000E+000  0.000000000000000E+000        
  0.000000000000000E+000  0.000000000000000E+000  0.000000000000000E+000        
  0.000000000000000E+000                                                        
   26.9700000000000       0.305258000000000      -8.299200000000000E-002        
  0.000000000000000E+000  0.000000000000000E+000  0.000000000000000E+000        
  0.000000000000000E+000  0.000000000000000E+000  0.000000000000000E+000        
  0.000000000000000E+000                                                        
   11.1000000000000       0.398508000000000      -0.152090000000000             
  0.000000000000000E+000  0.000000000000000E+000  0.000000000000000E+000        
  0.000000000000000E+000  0.000000000000000E+000  0.000000000000000E+000        
  0.000000000000000E+000                                                        
   4.68200000000000       0.216980000000000      -0.115331000000000             
  0.000000000000000E+000  0.000000000000000E+000  0.000000000000000E+000        
  0.000000000000000E+000  0.000000000000000E+000  0.000000000000000E+000        
  0.000000000000000E+000                                                        
   1.42800000000000       1.759400000000000E-002  0.288979000000000             
   1.00000000000000       0.000000000000000E+000  0.000000000000000E+000        
  0.000000000000000E+000  0.000000000000000E+000  0.000000000000000E+000        
  0.000000000000000E+000                                                        
  0.554700000000000      -2.502000000000000E-003  0.586128000000000             
  0.000000000000000E+000   1.00000000000000       0.000000000000000E+000        
  0.000000000000000E+000  0.000000000000000E+000  0.000000000000000E+000        
  0.000000000000000E+000                                                        
  0.206700000000000       9.540000000000000E-004  0.277624000000000             
  0.000000000000000E+000  0.000000000000000E+000   1.00000000000000             
  0.000000000000000E+000  0.000000000000000E+000  0.000000000000000E+000        
  0.000000000000000E+000                                                        
   12.9740000000000       0.000000000000000E+000  0.000000000000000E+000        
  0.000000000000000E+000  0.000000000000000E+000  0.000000000000000E+000        
   1.00000000000000       0.000000000000000E+000  0.000000000000000E+000        
  0.000000000000000E+000                                                        
   34.9000000000000       0.000000000000000E+000  0.000000000000000E+000        
  0.000000000000000E+000  0.000000000000000E+000  0.000000000000000E+000        
  0.000000000000000E+000   1.00000000000000       0.000000000000000E+000        
  0.000000000000000E+000                                                        
   93.8810000000000       0.000000000000000E+000  0.000000000000000E+000        
  0.000000000000000E+000  0.000000000000000E+000  0.000000000000000E+000        
  0.000000000000000E+000  0.000000000000000E+000   1.00000000000000             
  0.000000000000000E+000                                                        
  6.959000000000000E-002  0.000000000000000E+000  0.000000000000000E+000        
  0.000000000000000E+000  0.000000000000000E+000  0.000000000000000E+000        
  0.000000000000000E+000  0.000000000000000E+000  0.000000000000000E+000        
   1.00000000000000                                                             
   10    8                                                                      
   63.4200000000000       6.044000000000000E-003  0.000000000000000E+000        
  0.000000000000000E+000  0.000000000000000E+000  0.000000000000000E+000        
  0.000000000000000E+000  0.000000000000000E+000  0.000000000000000E+000        
   14.6600000000000       4.179900000000000E-002  0.000000000000000E+000        
  0.000000000000000E+000  0.000000000000000E+000  0.000000000000000E+000        
  0.000000000000000E+000  0.000000000000000E+000  0.000000000000000E+000        
   4.45900000000000       0.161143000000000       0.000000000000000E+000        
  0.000000000000000E+000  0.000000000000000E+000  0.000000000000000E+000        
  0.000000000000000E+000  0.000000000000000E+000  0.000000000000000E+000        
   1.53100000000000       0.356731000000000        1.00000000000000             
  0.000000000000000E+000  0.000000000000000E+000  0.000000000000000E+000        
  0.000000000000000E+000  0.000000000000000E+000  0.000000000000000E+000        
  0.530200000000000       0.448309000000000       0.000000000000000E+000        
   1.00000000000000       0.000000000000000E+000  0.000000000000000E+000        
  0.000000000000000E+000  0.000000000000000E+000  0.000000000000000E+000        
  0.175000000000000       0.244940000000000       0.000000000000000E+000        
  0.000000000000000E+000   1.00000000000000       0.000000000000000E+000        
  0.000000000000000E+000  0.000000000000000E+000  0.000000000000000E+000        
   14.4750000000000       0.000000000000000E+000  0.000000000000000E+000        
  0.000000000000000E+000  0.000000000000000E+000   1.00000000000000             
  0.000000000000000E+000  0.000000000000000E+000  0.000000000000000E+000        
   42.7300000000000       0.000000000000000E+000  0.000000000000000E+000        
  0.000000000000000E+000  0.000000000000000E+000  0.000000000000000E+000        
   1.00000000000000       0.000000000000000E+000  0.000000000000000E+000        
   126.140000000000       0.000000000000000E+000  0.000000000000000E+000        
  0.000000000000000E+000  0.000000000000000E+000  0.000000000000000E+000        
  0.000000000000000E+000   1.00000000000000       0.000000000000000E+000        
  5.348000000000000E-002  0.000000000000000E+000  0.000000000000000E+000        
  0.000000000000000E+000  0.000000000000000E+000  0.000000000000000E+000        
  0.000000000000000E+000  0.000000000000000E+000   1.00000000000000             
    6    6                                                                      
   3.77500000000000        1.00000000000000       0.000000000000000E+000        
  0.000000000000000E+000  0.000000000000000E+000  0.000000000000000E+000        
  0.000000000000000E+000                                                        
   1.30000000000000       0.000000000000000E+000   1.00000000000000             
  0.000000000000000E+000  0.000000000000000E+000  0.000000000000000E+000        
  0.000000000000000E+000                                                        
  0.444000000000000       0.000000000000000E+000  0.000000000000000E+000        
   1.00000000000000       0.000000000000000E+000  0.000000000000000E+000        
  0.000000000000000E+000                                                        
   14.9270000000000       0.000000000000000E+000  0.000000000000000E+000        
  0.000000000000000E+000   1.00000000000000       0.000000000000000E+000        
  0.000000000000000E+000                                                        
   57.5440000000000       0.000000000000000E+000  0.000000000000000E+000        
  0.000000000000000E+000  0.000000000000000E+000   1.00000000000000             
  0.000000000000000E+000                                                        
  0.154000000000000       0.000000000000000E+000  0.000000000000000E+000        
  0.000000000000000E+000  0.000000000000000E+000  0.000000000000000E+000        
   1.00000000000000                                                             
    4    4                                                                      
   2.66600000000000        1.00000000000000       0.000000000000000E+000        
  0.000000000000000E+000  0.000000000000000E+000                                
  0.859000000000000       0.000000000000000E+000   1.00000000000000             
  0.000000000000000E+000  0.000000000000000E+000                                
   26.4830000000000       0.000000000000000E+000  0.000000000000000E+000        
   1.00000000000000       0.000000000000000E+000                                
  0.324000000000000       0.000000000000000E+000  0.000000000000000E+000        
  0.000000000000000E+000   1.00000000000000                                     
    2    2                                                                      
   1.84600000000000        1.00000000000000       0.000000000000000E+000        
  0.714000000000000       0.000000000000000E+000   1.00000000000000             
FINISH                                                                          
 
********************************************************************************
 ONE- AND TWO-ELECTRON INTEGRALS OVER SYMMETRY-ADAPTED AOS ARE CALCULATED.

  SPHERICAL HARMONICS ARE USED.
  
  INTEGRALS LESS THAN  0.10E-13 ARE NEGLECTED.

  NUCLEAR REPULSION ENERGY :   22.1205562523 A.U.
  @MOLECU-I, ONE ELECTRON INTEGRALS (CPU/WALL):        0.06/       0.09 SECONDS.
  @TWOEL-I,    4587150 INTEGRALS OF SYMMETRY TYPE  I I I I
  @TWOEL-I,   19695843 INTEGRALS OF SYMMETRY TYPE  I J I J
  @TWOEL-I,   10379244 INTEGRALS OF SYMMETRY TYPE  I I J J
  @TWOEL-I,   14572659 INTEGRALS OF SYMMETRY TYPE  I J K L
  @TWOEL-I, TOTAL NUMBER OF 2-E INTEGRALS   49234896.
  @MOLECU-I, TWO ELECTRON INTEGRALS (CPU/WALL):      194.51/      27.74 SECONDS.
 @CHECKOUT-I, Total execution time (CPU/WALL):      194.58/      27.86 seconds.

Running with 14 threads/proc

--executable xvmol finished with status     0 in       27.88 seconds (walltime).
 --invoking executable--
/nfs/workspaces/public/cfour_mpi/bin/xvmol2ja
 @GETMEM-I,  Allocated    3814 MB of main memory.
 @CHECKOUT-I, Total execution time (CPU/WALL):        0.13/       0.07 seconds.
--executable xvmol2ja finished with status     0 in        0.08 seconds (walltime).
 --invoking executable--
/nfs/workspaces/public/cfour_mpi/bin/xvprop
 @GETMEM-I,  Allocated    3814 MB of main memory.
   Property integrals will be calculated.
    --------------------------------------------------------------
                                   Property evaluated at 
    Property type                X             Y             Z
    --------------------------------------------------------------
    Dipole moment               ----          ----          ----  
    Quadrupole moment           ----          ----          ----  
    Octopole moment             ----          ----          ----  
    Relativisitic corr.         ----          ----          ----  
    Second moment            0.0000000     0.0000000     0.0000000
    Electron density         0.0000000     0.0000000     1.2397896
    Electron density         0.0000000     0.0000000    -0.9301378
    Field gradient           0.0000000     0.0000000     1.2397896
    Field gradient           0.0000000     0.0000000    -0.9301378
    Potential                0.0000000     0.0000000     1.2397896
    Potential                0.0000000     0.0000000    -0.9301378
    --------------------------------------------------------------
 @CHECKOUT-I, Total execution time (CPU/WALL):        1.34/       1.37 seconds.
--executable xvprop finished with status     0 in        1.38 seconds (walltime).
 --invoking executable--
/nfs/workspaces/public/cfour_mpi/bin/xvscf
  There are  218 functions in the AO basis.

  There are 4 irreducible representations.

       Irrep        # of functions
         1                 86
         2                 52
         3                 52
         4                 28


  Parameters for SCF calculation: 
        SCF reference function:  RHF  
  Maximum number of iterations:  150
     Full symmetry point group: CXv 
     Computational point group: C2v 
        Initial density matrix: MOREAD                 
     SCF convergence tolerance: 10**(-10)
  DIIS convergence acceleration:  ON
          Latest start for DIIS:   8
                     DIIS order:   6

  Memory information:    2523578 words required.
  Fock matrices are constructed from AO integral file.
 @GETMEM-I,  Allocated      19 MB of main memory.
  Initialization and symmetry analysis required      0.001 seconds.

  Adding electric field perturbation to one-electron Hamiltonian.
  Field direction     : Z
  Field strength      : -0.0002000 a.u.

  @INITGES-I, Occupancies from core Hamiltonian:

          Alpha population by irrep:   5    1    1    0
           Beta population by irrep:   5    1    1    0


 total no. of electrons in initial guess :  0.000000000000000E+000
  --------------------------------------------------------------------
  Iteration         Total Energy            Largest Density Difference
  --------------------------------------------------------------------
       0            22.120555779242768              0.0000000000D+00
   current occupation vector 
     5  1  1  0
     5  1  1  0
       1           -91.940764001806031              0.1859370388D+02
   current occupation vector 
     5  1  1  0
     5  1  1  0
       2           -96.884488831980633              0.1858929741D+02
   current occupation vector 
     5  1  1  0
     5  1  1  0
       3          -103.408921547271646              0.1690338726D+02
   current occupation vector 
     5  1  1  0
     5  1  1  0
       4          -100.323385979489345              0.7517066671D+01
   current occupation vector 
     5  1  1  0
     5  1  1  0
       5          -103.230048768076728              0.7033963256D+01
   current occupation vector 
     5  1  1  0
     5  1  1  0
       6          -100.221395198364561              0.5828508819D+01
   current occupation vector 
     5  1  1  0
     5  1  1  0
       7          -103.093286288132646              0.5667880093D+01
   current occupation vector 
     5  1  1  0
     5  1  1  0
       8          -100.022061481785599              0.5656061258D+01
   current occupation vector 
     5  1  1  0
     5  1  1  0
       9          -110.677364276293062              0.4260171734D+01
   current occupation vector 
     5  1  1  0
     5  1  1  0
      10          -112.232317125424871              0.9244903262D+00
   current occupation vector 
     5  1  1  0
     5  1  1  0
      11          -112.766860370533109              0.5188310501D+00
   current occupation vector 
     5  1  1  0
     5  1  1  0
      12          -112.785125019461489              0.1155647890D+00
   current occupation vector 
     5  1  1  0
     5  1  1  0
      13          -112.785643001459206              0.2693074742D-01
   current occupation vector 
     5  1  1  0
     5  1  1  0
      14          -112.785741465936482              0.1482040474D-01
   current occupation vector 
     5  1  1  0
     5  1  1  0
      15          -112.785747490822146              0.4891311370D-02
   current occupation vector 
     5  1  1  0
     5  1  1  0
      16          -112.785747553280757              0.4361663836D-03
   current occupation vector 
     5  1  1  0
     5  1  1  0
      17          -112.785747555000015              0.4774931605D-04
   current occupation vector 
     5  1  1  0
     5  1  1  0
      18          -112.785747555046456              0.9061521781D-05
   current occupation vector 
     5  1  1  0
     5  1  1  0
      19          -112.785747555048673              0.1730125152D-05
   current occupation vector 
     5  1  1  0
     5  1  1  0
      20          -112.785747555049412              0.3316055592D-06
   current occupation vector 
     5  1  1  0
     5  1  1  0
      21          -112.785747555048502              0.4357024941D-07
   current occupation vector 
     5  1  1  0
     5  1  1  0
      22          -112.785747555049099              0.1092156499D-07
   current occupation vector 
     5  1  1  0
     5  1  1  0
      23          -112.785747555049383              0.6092506721D-08
   current occupation vector 
     5  1  1  0
     5  1  1  0
      24          -112.785747555049525              0.2400610266D-09
   current occupation vector 
     5  1  1  0
     5  1  1  0
      25          -112.785747555048445              0.1175826103D-09
   current occupation vector 
     5  1  1  0
     5  1  1  0
      26          -112.785747555049042              0.1270499261D-09
   current occupation vector 
     5  1  1  0
     5  1  1  0

  SCF has converged.

 Density matrix saved to file den.dat
 total electron number:   14.0000000000000     
     E(SCF)=      -112.785747555048104              0.9883516228D-10

  Eigenvector printing suppressed.

 @PUTMOS-I, Writing converged MOs to NEWMOS. 
 @PUTMOS-I, Symmetry   1 Full Blocks 21 Partial Blocksize   2
 @PUTMOS-I, Symmetry   2 Full Blocks 13 Partial Blocksize   0
 @PUTMOS-I, Symmetry   3 Full Blocks 13 Partial Blocksize   0
 @PUTMOS-I, Symmetry   4 Full Blocks  7 Partial Blocksize   0
 @PUTFOCK-I, Writing converged Fock matrix to NEWFOCK. 
 @PUTFOCK-I, Symmetry   1 Full Blocks 21 Partial Blocksize   2
 @PUTFOCK-I, Symmetry   2 Full Blocks 13 Partial Blocksize   0
 @PUTFOCK-I, Symmetry   3 Full Blocks 13 Partial Blocksize   0
 @PUTFOCK-I, Symmetry   4 Full Blocks  7 Partial Blocksize   0


 
  ORBITAL EIGENVALUES (ALPHA)  (1H = 27.2113834 eV)

       MO #        E(hartree)               E(eV)           FULLSYM    COMPSYM
       ----   --------------------   --------------------   -------   ---------
    1     1         -20.6660062896        -562.3506204938     SG+        A1 (1)
    2     2         -11.3695012123        -309.3798565541     SG+        A1 (1)
    3     3          -1.5080019776         -41.0348199797     SG+        A1 (1)
    4     4          -0.8029112067         -21.8483246808     SG+        A1 (1)
    5    87          -0.6317515390         -17.1908333405      PI        B1 (2)
    6   139          -0.6317515390         -17.1908333405      PI        B2 (3)
    7     5          -0.5574039937         -15.1677337803     SG+        A1 (1)
  +++++++++++++++++++++++++++++++++++++++++++++++++++++++++++++++++++++++++++++
    8     6           0.0608692827           1.6563373890     SG+        A1 (1)
    9   140           0.0616630282           1.6779363012      PI        B2 (3)
   10    88           0.0616630282           1.6779363012      PI        B1 (2)
   11     7           0.0733228410           1.9952159373     SG+        A1 (1)
   12   141           0.1362566550           3.7077320791      PI        B2 (3)
   13    89           0.1362566550           3.7077320791      PI        B1 (2)
   14     8           0.1567352299           4.2649824343     SG+        A1 (1)
   15   142           0.1664811660           4.5301828381      PI        B2 (3)
   16    90           0.1664811660           4.5301828381      PI        B1 (2)
   17   191           0.2275750534           6.1926320295      DE        A2 (4)
   18     9           0.2275750534           6.1926320295      DE        A1 (1)
   19    10           0.2282361833           6.2106222895     SG+        A1 (1)
   20    11           0.3007871037           8.1848332002     SG+        A1 (1)
   21   143           0.3181624251           8.6576397330      PI        B2 (3)
   22    91           0.3181624251           8.6576397330      PI        B1 (2)
   23    12           0.3904920297          10.6258283335     SG+        A1 (1)
   24   144           0.3955059250          10.7622633630      PI        B2 (3)
   25    92           0.3955059250          10.7622633631      PI        B1 (2)
   26    13           0.5087494606          13.8437766277     SG+        A1 (1)
   27   192           0.5360030294          14.5853839357      DE        A2 (4)
   28    14           0.5360030294          14.5853839358      DE        A1 (1)
   29   145           0.6240097847          16.9801694961      PI        B2 (3)
   30    93           0.6240097847          16.9801694961      PI        B1 (2)
   31    15           0.6392220903          17.3941173768     SG+        A1 (1)
   32    94           0.7481456802          20.3580789420      PH        B1 (2)
   33   146           0.7481456802          20.3580789420      PH        B2 (3)
   34   193           0.7675699057          20.8866389895      DE        A2 (4)
   35    16           0.7675699057          20.8866389895      DE        A1 (1)
   36    17           0.7794397818          21.2096347409     SG+        A1 (1)
   37   147           0.8205908465          22.3294121377      PI        B2 (3)
   38    95           0.8205908465          22.3294121377      PI        B1 (2)
   39    18           0.8710642106          23.7028622004     SG+        A1 (1)
   40   148           0.8825814816          24.0162630781      PI        B2 (3)
   41    96           0.8825814816          24.0162630781      PI        B1 (2)
   42   194           0.8896654099          24.2090265677      DE        A2 (4)
   43    19           0.8896654099          24.2090265678      DE        A1 (1)
   44    20           0.9000271294          24.4909832875     SG+        A1 (1)
   45   149           1.0720592783          29.1722160487      PI        B2 (3)
   46    97           1.0720592783          29.1722160488      PI        B1 (2)
   47    21           1.1811550025          32.1408616289     SG+        A1 (1)
   48    98           1.4461731610          39.3523723465      PH        B1 (2)
   49   150           1.4461731610          39.3523723465      PH        B2 (3)
   50    22           1.4662152081          39.8977441750     SG+        A1 (1)
   51   195           1.5209306469          41.3866269567      DE        A2 (4)
   52    23           1.5209306469          41.3866269567      DE        A1 (1)
   53    99           1.5569799474          42.3675782948      PI        B1 (2)
   54   151           1.5569799474          42.3675782948      PI        B2 (3)
   55    24           1.6679116935          45.3861845685     SG+        A1 (1)
   56   196           1.7665238223          48.0695570130      DE        A2 (4)
   57    25           1.7665238223          48.0695570131      DE        A1 (1)
   58    26           1.7772918504          48.3625699543     SG+        A1 (1)
   59   100           1.7900532125          48.7098242714      PI        B1 (2)
   60   152           1.7900532125          48.7098242714      PI        B2 (3)
   61   153           1.9774238145          53.8084375619      PI        B2 (3)
   62   101           1.9774238145          53.8084375620      PI        B1 (2)
   63   197           2.1040981723          57.2554220773      PI        A2 (4)
   64    27           2.1040981723          57.2554220773      PI        A1 (1)
   65    28           2.1229246960          57.7677178312     SG+        A1 (1)
   66   198           2.1917284563          59.6399633326      DE        A2 (4)
   67    29           2.1917284563          59.6399633326      DE        A1 (1)
   68   154           2.2499874633          61.2252715092      PH        B2 (3)
   69   102           2.2499874633          61.2252715092      PH        B1 (2)
   70    30           2.3137351570          62.9599344438     SG+        A1 (1)
   71   155           2.3206066667          63.1469177276      PI        B2 (3)
   72   103           2.3206066667          63.1469177276      PI        B1 (2)
   73   156           2.3556654555          64.1009158712      PH        B2 (3)
   74   104           2.3556654555          64.1009158712      PH        B1 (2)
   75   199           2.3610362541          64.2470627304      DE        A2 (4)
   76    31           2.3610362541          64.2470627305      DE        A1 (1)
   77    32           2.4831693617          67.5704735473     SG+        A1 (1)
   78   105           2.5936976923          70.5781023299      PI        B1 (2)
   79   157           2.5936976923          70.5781023299      PI        B2 (3)
   80   158           2.8136659191          76.5637420854      PI        B2 (3)
   81   106           2.8136659191          76.5637420854      PI        B1 (2)
   82    33           2.9146299761          79.3111137498     SG+        A1 (1)
   83   200           2.9923724053          81.4265927966      DE        A2 (4)
   84    34           2.9923724053          81.4265927966      DE        A1 (1)
   85    35           3.4796849118          94.6870402463     SG+        A1 (1)
   86   201           3.7202366246         101.2327851320      PI        A2 (4)
   87    36           3.7202366246         101.2327851320      PI        A1 (1)
   88   159           3.7441730720         101.8841289794      PI        B2 (3)
   89   107           3.7441730721         101.8841289795      PI        B1 (2)
   90    37           3.9400771047         107.2149487212     SG+        A1 (1)
   91   108           4.0844485825         111.1434963567      PH        B1 (2)
   92   160           4.0844485825         111.1434963567      PH        B2 (3)
   93   202           4.1780628599         113.6908703492      DE        A2 (4)
   94    38           4.1780628599         113.6908703492      DE        A1 (1)
   95   161           4.2095402500         114.5474136813      PI        B2 (3)
   96   109           4.2095402500         114.5474136813      PI        B1 (2)
   97   110           4.2627126577         115.9943084536      PH        B1 (2)
   98   162           4.2627126577         115.9943084536      PH        B2 (3)
   99    39           4.2662600597         116.0908381696     SG+        A1 (1)
  100   203           4.3731160767         118.9985382164      DE        A2 (4)
  101    40           4.3731160767         118.9985382164      DE        A1 (1)
  102    41           4.5037291157         122.5526996966     SG+        A1 (1)
  103   163           4.7691707471         129.7757337003      PI        B2 (3)
  104   111           4.7691707471         129.7757337004      PI        B1 (2)
  105    42           5.0396763206         137.1365645719     SG+        A1 (1)
  106   164           5.0996673294         138.7690029139      PI        B2 (3)
  107   112           5.0996673294         138.7690029140      PI        B1 (2)
  108   204           5.1395374979         139.8539253541      DE        A2 (4)
  109    43           5.1395374979         139.8539253542      DE        A1 (1)
  110    44           5.7809868938         157.3086507963     SG+        A1 (1)
  111   113           5.7932307878         157.6418240905      PI        B1 (2)
  112   165           5.7932307878         157.6418240908      PI        B2 (3)
  113   205           5.8978622193         160.4889900903      PI        A2 (4)
  114    45           5.8978622193         160.4889900903      PI        A1 (1)
  115   114           6.1170352119         166.4529904216      PH        B1 (2)
  116   166           6.1170352119         166.4529904216      PH        B2 (3)
  117    46           6.2353532994         169.6725892647     SG+        A1 (1)
  118   206           6.2990690354         171.4063825852      DE        A2 (4)
  119    47           6.2990690354         171.4063825852      DE        A1 (1)
  120   167           6.3225362687         172.0449584673      PI        B2 (3)
  121   115           6.3225362687         172.0449584673      PI        B1 (2)
  122   116           6.4396058582         175.2305839530      PH        B1 (2)
  123   168           6.4396058582         175.2305839530      PH        B2 (3)
  124   207           6.5807569297         179.0714998775      DE        A2 (4)
  125    48           6.5807569297         179.0714998775      DE        A1 (1)
  126    49           7.0113107839         190.7874658780     SG+        A1 (1)
  127   208           7.2751513760         197.9669333847      DE        A2 (4)
  128    50           7.2751513760         197.9669333848      DE        A1 (1)
  129   169           7.4459606480         202.6148899741      PI        B2 (3)
  130   117           7.4459606480         202.6148899742      PI        B1 (2)
  131    51           7.7625352304         211.2293223112     SG+        A1 (1)
  132    52           8.2055966966         223.2856377378     SG+        A1 (1)
  133   118           8.4274276810         229.3219657028      PI        B1 (2)
  134   170           8.4274276810         229.3219657031      PI        B2 (3)
  135   171          10.1222351108         275.4400204646      PI        B2 (3)
  136   119          10.1222351108         275.4400204650      PI        B1 (2)
  137    53          10.5658431556         287.5112090517     SG+        A1 (1)
  138   209          10.6027729585         288.5161200771      PI        A2 (4)
  139    54          10.6027729585         288.5161200771      PI        A1 (1)
  140   172          10.8690565706         295.7620655396      PH        B2 (3)
  141   120          10.8690565706         295.7620655396      PH        B1 (2)
  142   210          11.1175226890         302.5231723474      DE        A2 (4)
  143    55          11.1175226890         302.5231723474      DE        A1 (1)
  144    56          11.1298901550         302.8597082064     SG+        A1 (1)
  145   121          11.3620974058         309.1783887365      PI        B1 (2)
  146   173          11.3620974058         309.1783887365      PI        B2 (3)
  147    57          11.5441865857         314.1332872246     SG+        A1 (1)
  148   122          11.8548142028         322.5858944074      PH        B1 (2)
  149   174          11.8548142028         322.5858944074      PH        B2 (3)
  150    58          12.2724348564         333.9499301290      DE        A1 (1)
  151   211          12.2724348564         333.9499301292      DE        A2 (4)
  152   175          12.6166977046         343.3177984812      PI        B2 (3)
  153   123          12.6166977046         343.3177984812      PI        B1 (2)
  154   212          12.8647015859         350.0663271810      DE        A2 (4)
  155    59          12.8647015859         350.0663271810      DE        A1 (1)
  156    60          13.2438142600         360.3825075084     SG+        A1 (1)
  157   124          14.0775725712         383.0702245762      PI        B1 (2)
  158   176          14.0775725712         383.0702245763      PI        B2 (3)
  159    61          15.4813480340         421.2688969018     SG+        A1 (1)
  160    62          18.0208503149         490.3722671127     SG+        A1 (1)
  161   125          19.3755476143         527.2354547175      PI        B1 (2)
  162   177          19.3755476143         527.2354547177      PI        B2 (3)
  163    63          20.6242714780         561.2149585325     SG+        A1 (1)
  164   213          26.5183917110         721.6021239980      DE        A2 (4)
  165    64          26.5183917110         721.6021239981      DE        A1 (1)
  166   178          26.9863128710         734.3349060840      PI        B2 (3)
  167   126          26.9863128710         734.3349060840      PI        B1 (2)
  168    65          28.1561826805         766.1686819994     SG+        A1 (1)
  169   179          33.7888218193         919.4405851595      PI        B2 (3)
  170   127          33.7888218193         919.4405851600      PI        B1 (2)
  171    66          34.9591442727         951.2866781405     SG+        A1 (1)
  172    67          36.7523764754        1000.0830071319     SG+        A1 (1)
  173   214          47.1179324634        1282.1441252776      DE        A2 (4)
  174    68          47.1179324634        1282.1441252776      DE        A1 (1)
  175   180          47.6720457977        1297.2223156627      PI        B2 (3)
  176   128          47.6720457977        1297.2223156627      PI        B1 (2)
  177    69          48.5376466990        1320.7765136611     SG+        A1 (1)
  178    70          64.2033540860        1747.0620835988     SG+        A1 (1)
  179   181          66.8247875433        1818.3949144645      PI        B2 (3)
  180   129          66.8247875433        1818.3949144646      PI        B1 (2)
  181    71          67.7948635302        1844.7920240714     SG+        A1 (1)
  182   182          98.6670862330        2684.8679124484      PH        B2 (3)
  183   130          98.6670862330        2684.8679124484      PH        B1 (2)
  184   215          98.6883519160        2685.4465810996      DE        A2 (4)
  185    72          98.6883519160        2685.4465810996      DE        A1 (1)
  186   131          98.7538604735        2687.2291595748      PI        B1 (2)
  187   183          98.7538604735        2687.2291595749      PI        B2 (3)
  188    73          98.7658720231        2687.5560104554     SG+        A1 (1)
  189   132         103.2834404485        2810.4852969147      PH        B1 (2)
  190   184         103.2834404485        2810.4852969147      PH        B2 (3)
  191    74         103.3316401139        2811.7968764894      DE        A1 (1)
  192   216         103.3316401139        2811.7968764902      DE        A2 (4)
  193   133         103.3595314457        2812.5558382138      PI        B1 (2)
  194   185         103.3595314457        2812.5558382139      PI        B2 (3)
  195    75         103.4167628842        2814.1131848291     SG+        A1 (1)
  196   217         115.1753312003        3134.0800955142      DE        A2 (4)
  197    76         115.1753312003        3134.0800955143      DE        A1 (1)
  198   186         115.4040879146        3140.3048821721      PI        B2 (3)
  199   134         115.4040879146        3140.3048821721      PI        B1 (2)
  200    77         116.0009142324        3156.5453519293     SG+        A1 (1)
  201   187         117.0386964579        3184.7848419524      PI        B2 (3)
  202   135         117.0386964579        3184.7848419528      PI        B1 (2)
  203    78         118.0080881147        3211.1633299900     SG+        A1 (1)
  204    79         122.8802058761        3343.7403943662     SG+        A1 (1)
  205   218         198.5760532282        5403.5291184513      DE        A2 (4)
  206    80         198.5760532282        5403.5291184514      DE        A1 (1)
  207   188         198.8755725926        5411.6794547114      PI        B2 (3)
  208   136         198.8755725926        5411.6794547118      PI        B1 (2)
  209    81         199.3076516808        5423.4369244392     SG+        A1 (1)
  210    82         216.6824956641        5896.2304655840     SG+        A1 (1)
  211   189         225.2398711194        6129.0884899970      PI        B2 (3)
  212   137         225.2398711194        6129.0884899972      PI        B1 (2)
  213    83         226.0357153642        6150.7445128673     SG+        A1 (1)
  214   190         395.4970174160       10762.0209744623      PI        B2 (3)
  215   138         395.4970174160       10762.0209744629      PI        B1 (2)
  216    84         396.3015886679       10783.9144712721     SG+        A1 (1)
  217    85         509.4246244744       13862.1487699727     SG+        A1 (1)
  218    86         895.5121661711       24368.1248930474     SG+        A1 (1)


  VSCF finished.

 @CHECKOUT-I, Total execution time (CPU/WALL):       49.21/      10.84 seconds.
--executable xvscf finished with status     0 in       10.86 seconds (walltime).
 --invoking executable--
/nfs/workspaces/public/cfour_mpi/bin/xvtran
 @GETMEM-I,  Allocated    3814 MB of main memory.
  Full RHF integral transformation
  Transformation of IIII integrals :
  1 pass through the AO integral file was required.
     4587150 AO integrals were read.
     8816739 MO integrals were written to HF2.
  Transformation of IIJJ integrals :
  1 pass through the AO integral file was required.
    10379244 AO integrals were read.
    14632088 MO integrals were written to HF2.
  Transformation of IJIJ integrals :
  1 pass through the AO integral file was required.
    19695843 AO integrals were read.
    27534869 MO integrals were written to HF2.
  Transformation of IJKL integrals :
  1 pass through the AO integral file was required.
    14572659 AO integrals were read.
    18614076 MO integrals were written to HF2.
  Summary of active molecular orbitals: 
------------------------------------------------------------------------
 
  Index      Eigenvalue    Symmetry    Index      Eigenvalue    Symmetry
------------------------------------------------------------------------
     1       -20.6660063        1       110         4.2095403        2
     2       -11.3695012        1       111         4.2627127        2
     3        -1.5080020        1       112         4.7691707        2
     4        -0.8029112        1       113         5.0996673        2
     5        -0.5574040        1       114         5.7932308        2
     6        -0.6317515        2       115         6.1170352        2
     7        -0.6317515        3       116         6.3225363        2
     8         0.0608693        1       117         6.4396059        2
     9         0.0733228        1       118         7.4459606        2
    10         0.1567352        1       119         8.4274277        2
    11         0.2275751        1       120        10.1222351        2
    12         0.2282362        1       121        10.8690566        2
    13         0.3007871        1       122        11.3620974        2
    14         0.3904920        1       123        11.8548142        2
    15         0.5087495        1       124        12.6166977        2
    16         0.5360030        1       125        14.0775726        2
    17         0.6392221        1       126        19.3755476        2
    18         0.7675699        1       127        26.9863129        2
    19         0.7794398        1       128        33.7888218        2
    20         0.8710642        1       129        47.6720458        2
    21         0.8896654        1       130        66.8247875        2
    22         0.9000271        1       131        98.6670862        2
    23         1.1811550        1       132        98.7538605        2
    24         1.4662152        1       133       103.2834404        2
    25         1.5209306        1       134       103.3595314        2
    26         1.6679117        1       135       115.4040879        2
    27         1.7665238        1       136       117.0386965        2
    28         1.7772919        1       137       198.8755726        2
    29         2.1040982        1       138       225.2398711        2
    30         2.1229247        1       139       395.4970174        2
    31         2.1917285        1       140         0.0616630        3
    32         2.3137352        1       141         0.1362567        3
    33         2.3610363        1       142         0.1664812        3
    34         2.4831694        1       143         0.3181624        3
    35         2.9146300        1       144         0.3955059        3
    36         2.9923724        1       145         0.6240098        3
    37         3.4796849        1       146         0.7481457        3
    38         3.7202366        1       147         0.8205908        3
    39         3.9400771        1       148         0.8825815        3
    40         4.1780629        1       149         1.0720593        3
    41         4.2662601        1       150         1.4461732        3
    42         4.3731161        1       151         1.5569799        3
    43         4.5037291        1       152         1.7900532        3
    44         5.0396763        1       153         1.9774238        3
    45         5.1395375        1       154         2.2499875        3
    46         5.7809869        1       155         2.3206067        3
    47         5.8978622        1       156         2.3556655        3
    48         6.2353533        1       157         2.5936977        3
    49         6.2990690        1       158         2.8136659        3
    50         6.5807569        1       159         3.7441731        3
    51         7.0113108        1       160         4.0844486        3
    52         7.2751514        1       161         4.2095403        3
    53         7.7625352        1       162         4.2627127        3
    54         8.2055967        1       163         4.7691707        3
    55        10.5658432        1       164         5.0996673        3
    56        10.6027730        1       165         5.7932308        3
    57        11.1175227        1       166         6.1170352        3
    58        11.1298902        1       167         6.3225363        3
    59        11.5441866        1       168         6.4396059        3
    60        12.2724349        1       169         7.4459606        3
    61        12.8647016        1       170         8.4274277        3
    62        13.2438143        1       171        10.1222351        3
    63        15.4813480        1       172        10.8690566        3
    64        18.0208503        1       173        11.3620974        3
    65        20.6242715        1       174        11.8548142        3
    66        26.5183917        1       175        12.6166977        3
    67        28.1561827        1       176        14.0775726        3
    68        34.9591443        1       177        19.3755476        3
    69        36.7523765        1       178        26.9863129        3
    70        47.1179325        1       179        33.7888218        3
    71        48.5376467        1       180        47.6720458        3
    72        64.2033541        1       181        66.8247875        3
    73        67.7948635        1       182        98.6670862        3
    74        98.6883519        1       183        98.7538605        3
    75        98.7658720        1       184       103.2834404        3
    76       103.3316401        1       185       103.3595314        3
    77       103.4167629        1       186       115.4040879        3
    78       115.1753312        1       187       117.0386965        3
    79       116.0009142        1       188       198.8755726        3
    80       118.0080881        1       189       225.2398711        3
    81       122.8802059        1       190       395.4970174        3
    82       198.5760532        1       191         0.2275751        4
    83       199.3076517        1       192         0.5360030        4
    84       216.6824957        1       193         0.7675699        4
    85       226.0357154        1       194         0.8896654        4
    86       396.3015887        1       195         1.5209306        4
    87       509.4246245        1       196         1.7665238        4
    88       895.5121662        1       197         2.1040982        4
    89         0.0616630        2       198         2.1917285        4
    90         0.1362567        2       199         2.3610363        4
    91         0.1664812        2       200         2.9923724        4
    92         0.3181624        2       201         3.7202366        4
    93         0.3955059        2       202         4.1780629        4
    94         0.6240098        2       203         4.3731161        4
    95         0.7481457        2       204         5.1395375        4
    96         0.8205908        2       205         5.8978622        4
    97         0.8825815        2       206         6.2990690        4
    98         1.0720593        2       207         6.5807569        4
    99         1.4461732        2       208         7.2751514        4
   100         1.5569799        2       209        10.6027730        4
   101         1.7900532        2       210        11.1175227        4
   102         1.9774238        2       211        12.2724349        4
   103         2.2499875        2       212        12.8647016        4
   104         2.3206067        2       213        26.5183917        4
   105         2.3556655        2       214        47.1179325        4
   106         2.5936977        2       215        98.6883519        4
   107         2.8136659        2       216       103.3316401        4
   108         3.7441731        2       217       115.1753312        4
   109         4.0844486        2       218       198.5760532        4
------------------------------------------------------------------------
  -20.6660062896267       -11.3695012122798       -1.50800197757238     
 -0.802911206669330      -0.557403993663006      -0.631751538972159     
 -0.631751538972150       6.086928270659283E-002  7.332284095794847E-002
  0.156735229945774       0.227575053368852       0.228236183299241     
  0.300787103687080       0.390492029652842       0.508749460628907     
  0.536003029370736       0.639222090294699       0.767569905671474     
  0.779439781840696       0.871064210590742       0.889665409947468     
  0.900027129362227        1.18115500253937        1.46621520811621     
   1.52093064686808        1.66791169347418        1.76652382227155     
   1.77729185037851        2.10409817228489        2.12292469596428     
   2.19172845628446        2.31373515702364        2.36103625405773     
   2.48316936165965        2.91462997613599        2.99237240531612     
   3.47968491180427        3.72023662464754        3.94007710468850     
   4.17806285986927        4.26626005973559        4.37311607672310     
   4.50372911568156        5.03967632060419        5.13953749790693     
   5.78098689375361        5.89786221932036        6.23535329940846     
   6.29906903539469        6.58075692974610        7.01131078392574     
   7.27515137597938        7.76253523042820        8.20559669663238     
   10.5658431556137        10.6027729585074        11.1175226889568     
   11.1298901549575        11.5441865856995        12.2724348563974     
   12.8647015859175        13.2438142600433        15.4813480339932     
   18.0208503148971        20.6242714779631        26.5183917109513     
   28.1561826804962        34.9591442727056        36.7523764753503     
[...]
 Convergence information after     9 iterations: 
 Largest element of residual vector : -0.95647420E-05.
 Largest element of DIIS residual   : -0.49762119E-05.
 Convergence information after    10 iterations: 
 Largest element of residual vector :  0.57732550E-05.
 Largest element of DIIS residual   :  0.39167257E-05.
 Convergence information after    11 iterations: 
 Largest element of residual vector :  0.23200826E-05.
 Largest element of DIIS residual   :  0.79885176E-06.
 Convergence information after    12 iterations: 
 Largest element of residual vector :  0.95668259E-06.
 Largest element of DIIS residual   :  0.44252445E-06.
 Convergence information after    13 iterations: 
 Largest element of residual vector :  0.34117329E-06.
 Largest element of DIIS residual   :  0.21669973E-06.
 Convergence information after    14 iterations: 
 Largest element of residual vector :  0.17535364E-06.
 Largest element of DIIS residual   :  0.89432683E-07.
 Perturbed amplitude equations converged in    14 iterations.
  Dominant contributions to perturbed wavefunction:
    7    7  141   28   0.2292738161 ABAB
    7    7   28  141   0.2292738161 ABAB
    7    7  141   37   0.2076814955 ABAB
    7    7   37  141   0.2076814955 ABAB
    7    7  141   55   0.1782822520 ABAB
    7    7   55  141   0.1782822520 ABAB
    7    7  141   53  -0.1513735486 ABAB
    7    7   53  141  -0.1513735486 ABAB
    7    6   28   90   0.1504101333 ABAB
    6    7   90   28   0.1504101333 ABAB
    7    7  141   39   0.1441860386 ABAB
    7    7   39  141   0.1441860386 ABAB
    5    5  141   44   0.1440783986 ABAB
    5    5   44  141   0.1440783986 ABAB
    7    7  141   44   0.1434058404 ABAB
    7    7   44  141   0.1434058404 ABAB
    7    7  142   28   0.1417561764 ABAB
    7    7   28  142   0.1417561764 ABAB
    7    6   37   90   0.1365698832 ABAB
    6    7   90   37   0.1365698832 ABAB
  norm of converged amps    2.39786187557332     
 Starting iterative solution of the perturbed Lambda equations.
 The DIIS procedure is used to accelerate convergence.
 Convergence criterion is 10**(-7).
 Maximum number of iterations is 100.
 Convergence information after     1 iterations: 
 Largest element of residual vector : -0.67688531E-01.
 Largest element of DIIS residual   : -0.67688531E-01.
 Convergence information after     2 iterations: 
 Largest element of residual vector :  0.79352999E-02.
 Largest element of DIIS residual   :  0.50191110E-02.
 Convergence information after     3 iterations: 
 Largest element of residual vector : -0.46519885E-02.
 Largest element of DIIS residual   : -0.40559632E-02.
 Convergence information after     4 iterations: 
 Largest element of residual vector : -0.28820749E-02.
 Largest element of DIIS residual   : -0.22922552E-02.
 Convergence information after     5 iterations: 
 Largest element of residual vector : -0.17131003E-02.
 Largest element of DIIS residual   : -0.80742926E-03.
 Convergence information after     6 iterations: 
 Largest element of residual vector : -0.56260783E-03.
 Largest element of DIIS residual   :  0.13387891E-03.
 Convergence information after     7 iterations: 
 Largest element of residual vector : -0.11347116E-03.
 Largest element of DIIS residual   : -0.48374982E-04.
 Convergence information after     8 iterations: 
 Largest element of residual vector : -0.22361044E-04.
 Largest element of DIIS residual   :  0.21629348E-04.
 Convergence information after     9 iterations: 
 Largest element of residual vector : -0.76397373E-05.
 Largest element of DIIS residual   : -0.48869921E-05.
 Convergence information after    10 iterations: 
 Largest element of residual vector :  0.46069111E-05.
 Largest element of DIIS residual   :  0.33592983E-05.
 Convergence information after    11 iterations: 
 Largest element of residual vector :  0.18042127E-05.
 Largest element of DIIS residual   :  0.76233375E-06.
 Convergence information after    12 iterations: 
 Largest element of residual vector :  0.85492804E-06.
 Largest element of DIIS residual   :  0.56381663E-06.
 Convergence information after    13 iterations: 
 Largest element of residual vector :  0.42123877E-06.
 Largest element of DIIS residual   :  0.31060728E-06.
 Convergence information after    14 iterations: 
 Largest element of residual vector :  0.24444515E-06.
 Largest element of DIIS residual   :  0.12180564E-06.
 Convergence information after    15 iterations: 
 Largest element of residual vector :  0.83908313E-07.
 Largest element of DIIS residual   :  0.38612351E-07.
 Perturbed Lambda equations converged in    15 iterations.
  Dominant contributions to perturbed wavefunction:
    7    7  141   28   0.2156791641 ABAB
    7    7   28  141   0.2156791641 ABAB
    7    7  141   37   0.1964862435 ABAB
    7    7   37  141   0.1964862435 ABAB
    7    7  141   55   0.1660954967 ABAB
    7    7   55  141   0.1660954967 ABAB
    7    7  141   53  -0.1419507211 ABAB
    7    7   53  141  -0.1419507211 ABAB
    7    6   28   90   0.1394405656 ABAB
    6    7   90   28   0.1394405656 ABAB
    5    5  141   44   0.1381937151 ABAB
    5    5   44  141   0.1381937151 ABAB
    7    7  142   28   0.1351244351 ABAB
    7    7   28  142   0.1351244351 ABAB
    7    7  141   39   0.1343449342 ABAB
    7    7   39  141   0.1343449342 ABAB
    7    7  141   44   0.1319633808 ABAB
    7    7   44  141   0.1319633808 ABAB
    7    6   37   90   0.1275862333 ABAB
    6    7   90   37   0.1275862333 ABAB
        The DBOC first-order density matrix is being calculated 
             (Symmetry block 3, perturbation   2)
 term   6.72210023046143     
 final tnorm  0.884898392257876     
  norm contr. I: |<0|L dT/dx|0>|^2   0.000000000000000E+000
  norm contr. II: <0|[nabla(1+L)e-T][nabla e^T]|0>   6.72210023046143     
  total norm contribution   6.72210023046143     
 oo  1.155914783219152E-002
 vv  -50.4665917605445     
 vo  4.251551501856586E-002
  Correlated perturbed 1-el contribution to DBOC  -50.4125170976938       cm**-1
  SUM_I |dc_I/dx|^2 contribution to DBOC   25.3067553196179       cm**-1
 
 
  The total diagonal Born-Oppenheimer correction (DBOC) is:      0.0041420256 a.u.
  The total diagonal Born-Oppenheimer correction (DBOC) is:        909.069538 cm-1
 
 Total CC energy including DBOC  -113.280207564289     
 First-order density matrix is being calculated  (Symmetry block 3, perturbation   2)
 Calculation of the contributions of <pq||rs> to dI(i,j)/dx required   2.0 seconds.
 Calculation of the contributions of <pq||rs> to dI(a,b)/dx required  16.1 seconds.
 Calculation of the contributions of <pq||rs> to dI(i,a)/dx required   9.5 seconds.
 First-order Z-vector equations are solved for 1 perturbation.
 Convergence reached after  18 iterations.
        U*G(pq,rs) contribution is being calculated
             (Symmetry block 3, perturbation   2)

 CCSD contribution to force constants 

        0.0000000000        0.0000000000        0.0000000000
        0.0000000000        0.0000000000        0.0000000000
        0.0000000000        0.0000000000        0.0000000000
        0.0000000000        0.0000000000        0.0000000000
        0.0000000000        0.0000000000        0.0000000000
        0.0000000000        0.0000000000        0.0000000000
        0.0000000000        0.0000000000        0.0000000000
        0.0000000000        0.0000000000        0.0000000000
        0.0000000000        0.0000000000        0.0000000000
        0.0000000000        0.0000000000        0.0000000000
        0.0000000000        0.0000000000        0.0000000000
        0.0000000000       -0.9886807715        0.9886807715

 CCSD contribution to dipole derivatives 

        0.0000000000        0.0000000000        0.0000000000
        0.0000000000        0.0000000000        0.0000000000
        0.0000000000        0.0000000000        0.0000000000
        0.0000000000        0.0000000000       -0.0453136605
        0.0000000000        0.0000000000        0.0000000000
        0.0000000000        0.0000000000        0.0000000000
 @CHECKOUT-I, Total execution time (CPU/WALL):     1065.02/     241.31 seconds.
--executable xsdcc finished with status     0 in      241.35 seconds (walltime).
 --invoking executable--
/nfs/workspaces/public/cfour_mpi/bin/xanti
 @GETMEM-I,  Allocated    3814 MB of main memory.
 CCSD MO derivative gammas will be sorted to Mulliken order.
 @CHECKOUT-I, Total execution time (CPU/WALL):        8.79/      15.47 seconds.
--executable xanti finished with status     0 in       15.49 seconds (walltime).
 --invoking executable--
/nfs/workspaces/public/cfour_mpi/bin/xbcktrn
 @GETMEM-I,  Allocated    3814 MB of main memory.
 CCSD MO derivative gammas will be transformed to the AO basis.
 @CHECKOUT-I, Total execution time (CPU/WALL):       20.54/       3.30 seconds.
--executable xbcktrn finished with status     0 in        3.32 seconds (walltime).
 --invoking executable--
/nfs/workspaces/public/cfour_mpi/bin/xvdint
 @GETMEM-I,  Allocated    3814 MB of main memory.
 One- and two-electron integral derivatives are calculated
 for RHF-CC/MBPT hessians and dipole derivatives.
 Spherical gaussians are used.
  magnet F F
                    8722  records have been written to the Sort file.
  Total length of Sort file :             178609116  words.
 Evaluation of 2el integral derivatives

                      Two-electron integral gradient
                      ------------------------------

                         C #1 z     0.0000000000
                         O #2 z     0.0000000000


 C #1       0.0000000000           -0.5768246912            0.0000000000
 O #2       0.0000000000            0.5768246912            0.0000000000


 Evaluation of 2e integral derivatives required  340.23 seconds.
  contribution to Hessian
        0.0000000000        0.0000000000        0.0000000000
        0.0000000000       -0.5768246912        0.5768246912
 @CHECKOUT-I, Total execution time (CPU/WALL):      340.22/      67.72 seconds.
--executable xvdint finished with status     0 in       67.75 seconds (walltime).
 --invoking executable--
/nfs/workspaces/public/cfour_mpi/bin/xanti
 @GETMEM-I,  Allocated    3814 MB of main memory.
 CCSD MO gammas will be sorted to Mulliken order.
 @CHECKOUT-I, Total execution time (CPU/WALL):       11.51/      10.15 seconds.
--executable xanti finished with status     0 in       10.16 seconds (walltime).
 --invoking executable--
/nfs/workspaces/public/cfour_mpi/bin/xbcktrn
 @GETMEM-I,  Allocated    3814 MB of main memory.
 CCSD MO gammas will be transformed to the AO basis.
 @CHECKOUT-I, Total execution time (CPU/WALL):       29.36/       4.65 seconds.
--executable xbcktrn finished with status     0 in        4.66 seconds (walltime).
 --invoking executable--
/nfs/workspaces/public/cfour_mpi/bin/xvdint
 @GETMEM-I,  Allocated    3814 MB of main memory.
 One- and two-electron integral derivatives are calculated
 for RHF-CC/MBPT hessians and dipole derivatives.
 Spherical gaussians are used.
  magnet F F

                     Kinetic energy integral gradient
                     --------------------------------

                         C #1 z    -1.4459940473
                         O #2 z     1.4459940473


 C #1       0.0000000000            0.0000000000           -1.4459940473
 O #2       0.0000000000            0.0000000000            1.4459940473



                   Nuclear attraction integral gradient
                   ------------------------------------

                         C #1 z    23.1502220263
                         O #2 z   -23.1502220263


 C #1       0.0000000000            0.0000000000           23.1502220263
 O #2       0.0000000000            0.0000000000          -23.1502220263



                      Reorthonormalization gradient
                      -----------------------------

                         C #1 z     0.0000000000
                         O #2 z     0.0000000000


 C #1       0.0000000000            0.0000000000            0.0000000000
 O #2       0.0000000000            0.0000000000            0.0000000000



                     Kinetic energy integral Hessian
                     -------------------------------


           Symmetry 1

           C #1 z      O #2 z

 C #1 z    1.098308
 O #2 z   -1.098308    1.098308


           Symmetry 2

           C #1 x      O #2 x

 C #1 x   -1.867773
 O #2 x    1.867773   -1.867773


           Symmetry 3

           C #1 y      O #2 y

 C #1 y   -1.867773
 O #2 y    1.867773   -1.867773




           C #1 x      C #1 y      C #1 z      O #2 x      O #2 y      O #2 z

 C #1 x   -1.867773
 C #1 y    0.000000   -1.867773
 C #1 z    0.000000    0.000000    1.098308

 O #2 x    1.867773    0.000000    0.000000   -1.867773
 O #2 y    0.000000    1.867773    0.000000    0.000000   -1.867773
 O #2 z    0.000000    0.000000   -1.098308    0.000000    0.000000    1.098308




                   Nuclear attraction integral Hessian
                   -----------------------------------


           Symmetry 1

           C #1 z      O #2 z

 C #1 z  -13.228542
 O #2 z   13.228542  -13.228542


           Symmetry 2

           C #1 x      O #2 x

 C #1 x   20.206997
 O #2 x  -20.206997   20.206997


           Symmetry 3

           C #1 y      O #2 y

 C #1 y   20.206997
 O #2 y  -20.206997   20.206997




           C #1 x      C #1 y      C #1 z      O #2 x      O #2 y      O #2 z

 C #1 x   20.206997
 C #1 y    0.000000   20.206997
 C #1 z    0.000000    0.000000  -13.228542

 O #2 x  -20.206997    0.000000    0.000000   20.206997
 O #2 y    0.000000  -20.206997    0.000000    0.000000   20.206997
 O #2 z    0.000000    0.000000   13.228542    0.000000    0.000000  -13.228542




                Highest order reorthonormalization Hessian
                ------------------------------------------


           Symmetry 1

           C #1 z      O #2 z

 C #1 z    0.000000
 O #2 z    0.000000    0.000000


           Symmetry 2

           C #1 x      O #2 x

 C #1 x    0.000000
 O #2 x    0.000000    0.000000


           Symmetry 3

           C #1 y      O #2 y

 C #1 y    0.000000
 O #2 y    0.000000    0.000000




           C #1 x      C #1 y      C #1 z      O #2 x      O #2 y      O #2 z




                Electronic contributions to dipole moment
                -----------------------------------------

                               au             Debye

                    z     -0.02545833     -0.06470863

  Conversion factor used: 1 a.u. =   2.54174691 Debye 



   Electronic contributions to static part of dipole moment derivatives
   --------------------------------------------------------------------


                     Total dipole moment derivatives
                     -------------------------------


           Symmetry 1
                              Ez

               C #1 z    -5.72706103
               O #2 z    -8.27293897

           Symmetry 2
                              Ex

               C #1 x    -5.78643723
               O #2 x    -8.21356277

           Symmetry 3
                              Ey

               C #1 y    -5.78643723
               O #2 y    -8.21356277



                       Ex          Ey          Ez

      C #1    x   -5.786437    0.000000    0.000000
      C #1    y    0.000000   -5.786437    0.000000
      C #1    z    0.000000    0.000000   -5.727061

      O #2    x   -8.213563    0.000000    0.000000
      O #2    y    0.000000   -8.213563    0.000000
      O #2    z    0.000000    0.000000   -8.272939

 Evaluation of 1e integral derivatives required    1.68 seconds.
                    8815  records have been written to the Sort file.
  Total length of Sort file :             180513570  words.
 Evaluation of 2el integral derivatives

                      Two-electron integral gradient
                      ------------------------------

                         C #1 z   -11.0114326317
                         O #2 z    11.0114326317


 C #1       0.0000000000            0.0000000000          -11.0114326317
 O #2       0.0000000000            0.0000000000           11.0114326317


 Evaluation of 2e integral derivatives required  690.61 seconds.

                            Molecular gradient
                            ------------------

                         C #1 z     0.4986493284
                         O #2 z    -0.4986493284


 C #1       0.0000000000            0.0000000000            0.4986493284
 O #2       0.0000000000            0.0000000000           -0.4986493284


  Molecular gradient norm 0.705E+00

                            Molecular hessian
                            -----------------


           Symmetry 1

           C #1 z      O #2 z

 C #1 z   62.567444
 O #2 z  -62.567444   62.567444


           Symmetry 2

           C #1 x      O #2 x

 C #1 x    1.705086
 O #2 x   -1.705086    1.705086


           Symmetry 3

           C #1 y      O #2 y

 C #1 y    1.705086
 O #2 y   -1.705086    1.705086




           C #1 x      C #1 y      C #1 z      O #2 x      O #2 y      O #2 z

 C #1 x    1.705086
 C #1 y    0.000000    1.705086
 C #1 z    0.000000    0.000000   62.567444

 O #2 x   -1.705086    0.000000    0.000000    1.705086
 O #2 y    0.000000   -1.705086    0.000000    0.000000    1.705086
 O #2 z    0.000000    0.000000  -62.567444    0.000000    0.000000   62.567444




                           Total dipole moment
                           -------------------

                               au             Debye

                    z     -0.02782338     -0.07071998

  Conversion factor used: 1 a.u. =   2.54174691 Debye 



                     Total dipole moment derivatives
                     -------------------------------


           Symmetry 1
                              Ez

               C #1 z     0.71433258
               O #2 z    -0.71433258

           Symmetry 2
                              Ex

               C #1 x    -0.01349735
               O #2 x     0.01349735

           Symmetry 3
                              Ey

               C #1 y    -0.01349735
               O #2 y     0.01349735



                       Ex          Ey          Ez

      C #1    x   -0.013497    0.000000    0.000000
      C #1    y    0.000000   -0.013497    0.000000
      C #1    z    0.000000    0.000000    0.714333

      O #2    x    0.013497    0.000000    0.000000
      O #2    y    0.000000    0.013497    0.000000
      O #2    z    0.000000    0.000000   -0.714333

 @CHECKOUT-I, Total execution time (CPU/WALL):      692.29/     115.85 seconds.
--executable xvdint finished with status     0 in      115.87 seconds (walltime).
 --invoking executable--
/nfs/workspaces/public/cfour_mpi/bin/xjoda
  @GTFLGS-I, Hessian will be transformed to curvilinear coordinates.
  @GTFLGS-I, Hessian will be transformed to curvilinear coordinates.
  igrd and ihes are                      0                     1
  gradient from JOBARC 
   0.000000000000000   0.000000000000000   0.498649328376864
   0.000000000000000   0.000000000000000  -0.498649328376864
 
  @PROJFCM-I, Projecting force constant matrix onto totally symmetric subspace.
  Largest difference between matrix elements of symmetrized
  and unsymmetrized FCM :     0.2543720790E-10.
  read isotopes from ZMAT file 
 
  Summary of diagonal Born-Oppenheimer correction at the correlated level
  The total diagonal Born-Oppenheimer correction (DBOC) is:      0.0041420256 a.u.
  The total diagonal Born-Oppenheimer correction (DBOC) is:        909.069538 cm-1
  The total diagonal Born-Oppenheimer correction (DBOC) is:            10.875 kJ/mole
  hellooooooo 
  readis is  F
 
 @CHECKOUT-I, Total execution time (CPU/WALL):        0.01/       0.03 seconds.
--executable xjoda finished with status     0 in        0.05 seconds (walltime).
  The final electronic energy is      -113.280207564289171 a.u. 
  This computation required                         2577.46 seconds (walltime).
