 --invoking executable--
/nfs/workspaces/public/cfour_mpi/bin/xjoda


   *************************************************************************
         <<<     CCCCCC     CCCCCC   |||     CCCCCC     CCCCCC   >>>
       <<<      CCC        CCC       |||    CCC        CCC         >>>
      <<<      CCC        CCC        |||   CCC        CCC            >>>
    <<<        CCC        CCC        |||   CCC        CCC              >>>
      <<<      CCC        CCC        |||   CCC        CCC            >>>
       <<<      CCC        CCC       |||    CCC        CCC         >>>
         <<<     CCCCCC     CCCCCC   |||     CCCCCC     CCCCCC   >>>
   *************************************************************************

     ****************************************************************
     * CFOUR Coupled-Cluster techniques for Computational Chemistry *
     ****************************************************************
 

   Department of Chemistry                Institut fuer Physikalische Chemie
   University of Florida                  Universitaet Mainz
   Gainesville, FL 32611, USA             D-55099 Mainz, Germany

   Department of Chemistry                Fakultaet fuer Chemie und Biowiss.
   Johns Hopkins University               Karlsruher Institut fuer Technologie
   Baltimore, MD 21218, USA               D-76131 Karlsruhe, Germany

   Department of Chemistry                Department of Physical Chemistry
   Southern Methodist University          Eotvos Lorand University
   Dallas, TX 75275, USA                  H-1053 Budapest, Hungary

 
                       Version 2.1
 
                     vincent.theory.phys.ucl.ac.uk                     
                     Tue 25 Feb 15:56:41 GMT 2025                      
                     integer*8 version is running
 
********************************************************************************
*                          Input from ZMAT file                                *
********************************************************************************
Carbon Monoxide DBOC calculation                                                
C                                                                               
O 1 r                                                                           
                                                                                
r=1.4896551724137932                                                            
                                                                                
                                                                                
*CFOUR(CALC=CCSD,BASIS=AUG-PCVQZ,SCF_CONV=10                                    
CC_CONV=14,DBOC=ON,MEMORY=500000000                                             
ZFIELD=200)                                                                     
                                                                                
%isotopes                                                                       
12                                                                              
16                                                                              
********************************************************************************
  @GTFLGS-I, Hessian will be transformed to curvilinear coordinates.
    -------------------------------------------------------------------
                    CFOUR Control Parameters 
    -------------------------------------------------------------------
        External           Internal           Value            Units
          Name               Name
    -------------------------------------------------------------------
       ABCDTYPE             IABCDT         STANDARD    [  0]    ***   
       ANHARMONIC           IANHAR         OFF         [  0]    ***   
       ANH_ALGORIT          IANALG         STANDARD    [  0]    ***   
       ANH_DERIVAT          IANDER         SECOND      [  1]    ***   
       ANH_MODE             ANHMOD         VIBRATION   [  0]    ***   
       ANH_STEPSIZ          ICUBST             50000          x 10-6  
       ANH_SYMMETR          IANHSM         ABELIAN     [  0]    ***   
       AO_LADDERS           IAOLAD         SINGLEPASS  [  1]    ***   
       AV_SCF               IAVSCF         OFF         [  0]    ***   
       BASIS                IBASIS         AUG-PCVQZ   [ 52]    ***   
       BOTHVECTORS          BOTHVC         OFF         [  0]    ***   
       BOX_POTENT           IPIAB          OFF         [  0]    ***   
       BREIT                IBREIT         OFF         [  0]    ***   
       BRUCK_CONV           IBRTOL          10D-  4             ***   
       BRUECKNER            IBRKNR         OFF         [  0]    ***   
       BUFFERSIZE           IBUFFS              4096            ***   
       CACHE_RECS           ICHREC             10               ***   
       CALCLEVEL            ICLLVL         CCSD        [ 10]    ***   
       CCORBOPT             ICCORB         OFF         [  0]  x 0.01  
       CC_CONV              ICCCNV          10D- 14             ***   
       CC_EXPORDER          ICCEOR              5               ***   
       CC_EXTRAPOL          ICCEXT         DIIS        [  1]    ***   
       CC_GUESS             ICCGES         MP2         [  0]    ***   
       CC_MAXCYC            ICCCYC            100              cycles 
       CC_PROGRAM           ICCPRO         VCC         [  0]    ***   
       CHARGE               ICHRGE              0               ***   
       CHOLESKY             ICHOLE         OFF         [  0]    ***   
       CIS_CONV             ICISTL              5               ***   
       COMM_SIZE            IPSIZE            ***               ***   
       CONSTANT             ICONST         OLD         [  1]    ***   
       CONTINUUM            ICONTU         NONE        [  0]    ***   
       CONTRACTION          ICNTYP         GENERAL     [  1]    ***   
       COORDINATES          ICOORD         INTERNAL    [  0]    ***   
       CPHF_CONVER          ICPHFT          10D- 16             ***   
       CPHF_MAXCYC          ICPHFC             64              cycles 
       CUBIC                ICUBIC         OFF         [  0]    ***   
       CURVILINEAR          ICURVY         ON          [  1]    ***   
       DBOC                 IDBOC          ON          [  1]    ***   
       DCT                  IDCT           OFF         [  0]    ***   
       DERIV_LEV            IDRLVL         SECOND      [  2]    ***   
       DEVMEM_SIZE          IDVMEM          50000000           MByte  
       DIAG_MRCC            IEOMST          10D-  0             ***   
       DIFF_TYPE            IDIFTY         RELAXED     [  0]    ***   
       DIRECT               IDIRCT         OFF         [  0]    ***   
       DROPMO               IDRPMO      NONE         
       ECP                  IECP           OFF         [  0]    ***   
       EIGENVECTOR          IVEC                1               ***   
       EL_ANHARM            IELANH         OFF         [  0]    ***   
       EOMFOLLOW            IEOMSR         ENERGY      [  0]    ***   
       EOMIP                IEOMIP         OFF         [  0]    ***   
       EOMLEVEL             HBARFM         SAME        [  0]    ***   
       EOM_MRCC             IMRCCE         NEW         [  1]    ***   
       EOM_NONIT            EOMNON         OFF         [  0]    ***   
       EOM_NSING            IEOMSI          10D-  0             ***   
       EOM_NSTATES          IMRCCD         DAVIDSON    [  0]    ***   
       EOM_NTRIP            IEOMTR          10D-  0             ***   
       EOM_ORDER            IEXORD         ENERGY      [  0]    ***   
       EOM_PROPSTA          IEOMST              0               ***   
       ESTATE_CONV          IEXTOL          10D-  5             ***   
       ESTATE_DIAG          IEXDIG         ITERATIVE   [  0]    ***   
       ESTATE_LOCK          IESLOC         ON          [  1]    ***   
       ESTATE_MAXC          IEXMXC             40               ***   
       ESTATE_PROP          IEXPRP         OFF         [  0]    ***   
       EVAL_HESS            IRECAL              0            # of cyc.
       EXCITATION           IEXCIT              0               ***   
       EXCITE               IEXCIT         NONE        [  0]    ***   
       EXTERN_POT           IEXPOT         OFF         [  0]    ***   
       FCGRADNEW            IFCGNW         OFF         [  0]    ***   
       FC_FIELD             IFINFC              0             x 10-6  
       FD_CALTYPE           IFDCAL         GRADONLY    [  0]    ***   
       FD_PROJECT           IFDPRJ         OFF         [  1]    ***   
       FD_STEPSIZE          IDISFD              0            10-4 bohr
       FD_USEGROUP          IFDGRP         FULL        [  0]    ***   
       FILE_RECSIZ          IFLREC              4096           words  
       FINITE_PERT          IFIPER              0             x 10-6  
       FIXGEOM              IFIXGM         OFF         [  0]    ***   
       FOCK                 IFOCK          AO          [  1]    ***   
       FREQ_ALGORI          IVIALG         STANDARD    [  0]    ***   
       FROZEN_CORE          IFROCO         OFF         [  0]    ***   
       GAMMA_ABCD           IGABCD         STORE       [  0]    ***   
       GAMMA_ABCI           IGABCI         STORE       [  0]    ***   
       GENBAS_1             IGNBS1              0               ***   
       GENBAS_2             IGNBS2              0               ***   
       GENBAS_3             IGNBS3              0               ***   
       GENBAS_4             IGNBS4              0               ***   
       GEO_CONV             ICONTL              5              H/bohr 
       GEO_MAXCYC           IOPTCY             50               ***   
       GEO_MAXSTEP          IMXSTP            300            millibohr
       GEO_METHOD           INR            SINGLE_POINT[  5]    ***   
       GIAO                 IGIAO          OFF         [  1]    ***   
       GIMIC                IGIMIC         OFF         [  0]    ***   
       GRID                 IGRID          OFF         [  0]    ***   
       GRID_ALGO            IGALGO         SERIAL      [  0]    ***   
       GUESS                IGUESS         MOREAD      [  0]    ***   
       HBAR                 IHBAR          OFF         [  0]    ***   
       HESS_TYPE            IHESTP         SCF         [  0]    ***   
       HF2_FILE             IHF2Fl         USE         [  1]    ***   
       HFSTABILITY          ISTABL         OFF         [  0]    ***   
       INCORE               INCORE         OFF         [  0]    ***   
       INPUT_MRCC           IMRCC          ON          [  1]    ***   
       INTEGRALS            INTTYP         VMOL        [  1]    ***   
       JODA_PRINT           IJPRNT              0               ***   
       KEYWORD_OUT          IDMPKW         NO          [  0]    ***   
       LINDEP_TOL           ILINDP              8               ***   
       LINEQ_CONV           IZTACN          10D-  7           cycles  
       LINEQ_EXPOR          ILMAXD              5               ***   
       LINEQ_MAXCY          ILMAXC            100               ***   
       LINEQ_TYPE           ILTYPE         DIIS        [  1]    ***   
       LOCK_ORBOCC          ILOCOC         OFF         [  0]    ***   
       MEMORY_SIZE          IMEMSZ         500000000           words  
       MEM_UNIT             IMEMU          INTEGERWORDS[  0]    ***   
       MRCC                 IMRCCC         OFF         [  0]    ***   
       MULTIPLICTY          IMULTP              1               ***   
       NACOUPLING           IVCOUP         OFF         [  0]    ***   
       NEGEVAL              IDIE           ABORT       [  0]    ***   
       NEWNORM              INEWNO         OFF         [  0]    ***   
       NON-HF               INONHF         OFF         [  0]    ***   
       NTOP_TAMP            ITOPT2             15               ***   
       NUC_MODEL            INUCMO         POINT       [  0]    ***   
       OCCUPATION           IOCCU   ESTIMATED BY SCF 
       OPEN-SHELL           IOPEN          SPIN-ORBITAL[  0]    ***   
       OPTVIB               IOPTVB         OFF         [  0]    ***   
       ORBITALS             IORBTP         STANDARD    [  0]    ***   
       PARALLEL             IPARAL         ON          [  1]    ***   
       PARA_INT             IPINTS         ON          [  1]    ***   
       PARA_PRINT           IPPRIN              0               ***   
       PERT_ORB             IPTORB         STANDARD    [  0]    ***   
       POINTS               IGRDFD              0               ***   
       PRINT                IPRNT               0               ***   
       PROPS                IPROPS         OFF         [  0]    ***   
       PROP_INTEGR          IINTYP         INTERNAL    [  0]    ***   
       PSI                  IPSI           OFF         [  0]    ***   
       QC_ALG               IQCALG         FLM         [  0]    ***   
       QC_LINALG            IQCLIN         TRIDIAG     [  2]    ***   
       QC_MAXCYC            IQCMAX          10D-100           cycles  
       QC_MAXSCFCY          IQCMSC          10D- 15           cycles  
       QC_RTRUST            IQCRTR          10D-  0           x 10-3  
       QC_SKIPSCF           IQCSKI         OFF         [  0]    ***   
       QC_START             IQCSTA          10D-  1             ***   
       QRHFGUESS            IQGUES         OFF         [  0]    ***   
       QUARTIC              IQUART         OFF         [  0]    ***   
       RAMAN_INT            IRAMIN         OFF         [  0]    ***   
       RAMAN_ORB            IRAMRE         UNRELAXED   [  0]    ***   
       RDO                  IRDOFM         ON          [  1]    ***   
       REDUCE_REPR          REDREP         Ir          [  0]    ***   
       REFERENCE            IREFNC         RHF         [  0]    ***   
       RELATIVIST           IRELAT         OFF         [  0]    ***   
       RELAX_DENS           IRDENS         ON          [  1]    ***   
       RESET_FLAGS          IRESET         OFF         [  0]    ***   
       RESTART_CC           ICCRES         OFF         [  0]    ***   
       ROT_EVEC             ROTVEC              0               ***   
       SAVE_INTS            ISVINT         OFF         [  0]    ***   
       SCALE_ON             ISTCRT              0               ***   
       SCF_CONV             ISCFCV          10D- 10             ***   
       SCF_DAMPING          IDAMP               0             x 10-3  
       SCF_EXPORDE          IRPPOR              6               ***   
       SCF_EXPSTAR          IRPPLS              8               ***   
       SCF_EXTRAPO          IRPP           ON          [  1]    ***   
       SCF_MAXCYC           ISCFCY            150              cycles 
       SCF_NOSTOP           ISCFST         OFF         [  0]    ***   
       SCF_PRINT            ISCFPR              0               ***   
       SCF_PROG             ISCFPR         SCF         [  0]    ***   
       SD_FIELD             IFINSD              0             x 10-6  
       SOPERT               IPERSO         OFF         [  0]    ***   
       SPHERICAL            IDFGHI         ON          [  1]    ***   
       SPINORBIT            ISOCAL         OFF         [  0]    ***   
       SPINROTATIO          ISRCON         OFF         [  0]    ***   
       SPIN_FLIP            ISPFLP         OFF         [  0]    ***   
       SPIN_ORBIT           ISPORB         OFF         [  0]    ***   
       SPIN_SCAL            ISCSMP         OFF         [  0]    ***   
       STEEPSCALE           ISTPSC              1000          x 10-3  
       SUBGROUP             ISUBGP         DEFAULT     [  0]    ***   
       SUBGRPAXIS           ISBXYZ         X           [  0]    ***   
       SYMMETRY             ISYM           ON          [  0]    ***   
       SYM_CHECK            ISYMCK         OVERRIDE    [  1]    ***   
       T3_EXTRAPOL          IT3EXT         OFF         [  0]    ***   
       T4_EXTRAPOL          IT4EXP         OFF         [  0]    ***   
       TAMP_SUM             IEVERY              5               ***   
       TESTSUITE            ITESTS         OFF         [  0]    ***   
       THERMOCH             ITHERM         OFF         [  0]    ***   
       TOL_CHOLESK          ITOLCH          10D-  4             ***   
       TRANGRAD             IRESRM         OFF         [  0]    ***   
       TRANS_INV            ITRAIN         IGNORE      [  1]    ***   
       TREAT_PERT           ITREAT         SIMULTANEOUS[  0]    ***   
       TRIP_ALGORI          ITRALG         NORMAL      [  0]    ***   
       UIJ_THRESHO          IUIJTH              1               ***   
       UNITS                IUNITS         ANGSTROM    [  0]    ***   
       UNOS                 IUNOS          OFF         [  0]    ***   
       UPDATE_HESS          IHUPDT         ON          [  1]    ***   
       VIBPHASE             ISETPH         STANDARD    [  0]    ***   
       VIBRATION            IVIB           ANALYTIC    [  1]    ***   
       VIB_ALGORIT          IGEALG         STANDARD    [  0]    ***   
       VNATORB              IVNORB         OFF         [  0]    ***   
       VTRAN                IVTRAN         FULL/PARTIAL[  0]    ***   
       XFIELD               IXEFLD              0             x 10-6  
       XFORM_TOL            IXFTOL          10D- 11             ***   
       YFIELD               IYEFLD              0             x 10-6  
       ZFIELD               IZEFLD            200             x 10-6  
       ZSCALE_EXP           IZEXPS         OFF         [  0]    ***   
    -------------------------------------------------------------------
   2 entries found in Z-matrix 
   Job Title : Carbon Monoxide DBOC calculation                                                
   There are  1 unique internal coordinates.
   Of these,  0 will be optimized.
   User supplied Z-matrix: 
--------------------------------------------------------------------------------
       SYMBOL    BOND      LENGTH    ANGLE     ANGLE     DIHED     ANGLE
                  TO      (ANGST)    WRT      (DEG)      WRT      (DEG)
--------------------------------------------------------------------------------
        C    
        O          1         r    
                  *Initial values for internal coordinates* 
                      Name             Value
                        r               1.4896551724
--------------------------------------------------------------------------------
  read isotopes from ZMAT file 
   Rotational constants (in cm-1): 
          1.1080032449             1.1080032449
   Rotational constants (in MHz): 
      33217.1062809690         33217.1062809690
********************************************************************************
   The full molecular point group is CXv .
   The largest Abelian subgroup of the full molecular point group is C2v .
   The computational point group is C2v .
********************************************************************************
--------------------------------------------------------------------------------
   Analysis of internal coordinates specified by Z-matrix 
--------------------------------------------------------------------------------
   *The nuclear repulsion energy is   17.051262111111111 a.u.
   *There is   1 degree of freedom within the tot. symm. molecular subspace.
   *Z-matrix requests optimization of   0 coordinates.
   *The optimization is constrained.
   *The following   1 parameters can have non-zero 
    derivatives within the totally symmetric subspace:
             r    [ 1]
   *The following   0 parameters are to be optimized:

   *The following coordinates must be varied in an  unconstrained optimization.
             r    [ 1]
--------------------------------------------------------------------------------


 ----------------------------------------------------------------
         Coordinates used in calculation (QCOMP) 
 ----------------------------------------------------------------
 Z-matrix   Atomic            Coordinates (in bohr)
  Symbol    Number           X              Y              Z
 ----------------------------------------------------------------
     C         6        -0.00000000     0.00000000     1.60837564
     O         8         0.00000000     0.00000000    -1.20666525
 ----------------------------------------------------------------
 
   Interatomic distance matrix (Angstroms) 
 
                 C             O    
                [ 1]        [ 2]
  C    [ 1]     0.00000
  O    [ 2]     1.48966     0.00000
 rotcon2
   Rotational constants (in cm-1): 
          1.1080032449             0.0000000000
   Rotational constants (in MHz): 
      33217.1062809690             0.0000000000
  ECPDATA file not present.   Using default ECPDATA. 
  @GTFLGS-I, Hessian will be transformed to curvilinear coordinates.
  There are  218 basis functions.
 @CHECKOUT-I, Total execution time (CPU/WALL):        0.13/       0.16 seconds.
--executable xjoda finished with status     0 in        0.18 seconds (walltime).
 --invoking executable--
/nfs/workspaces/public/cfour_mpi/bin/xvmol
 SERIAL VERSION OF MOLECULE STARTED
********************************************************************************
                    INPUT FROM MOL FILE
********************************************************************************
INTGRL        1    0    1    0    0    0    0    0    0                         
         *** CFOUR Program System (Release V0.1) ***                            
Carbon Monoxide DBOC calculation                                                
    2    2 X  Y       0.10E-08              0    0                              
   9999.00      3.00                                                            
          6.00000000    1    5    1    1    1    1    1                         
C #1  -0.000000000000000   0.000000000000000   1.608375637003729                
   16    9                                                                      
   33980.0000000000       9.100000000000000E-005 -1.900000000000000E-005        
  0.000000000000000E+000  0.000000000000000E+000  0.000000000000000E+000        
  0.000000000000000E+000  0.000000000000000E+000  0.000000000000000E+000        
  0.000000000000000E+000                                                        
   5089.00000000000       7.040000000000000E-004 -1.510000000000000E-004        
  0.000000000000000E+000  0.000000000000000E+000  0.000000000000000E+000        
  0.000000000000000E+000  0.000000000000000E+000  0.000000000000000E+000        
  0.000000000000000E+000                                                        
   1157.00000000000       3.693000000000000E-003 -7.850000000000000E-004        
  0.000000000000000E+000  0.000000000000000E+000  0.000000000000000E+000        
  0.000000000000000E+000  0.000000000000000E+000  0.000000000000000E+000        
  0.000000000000000E+000                                                        
   326.600000000000       1.536000000000000E-002 -3.324000000000000E-003        
  0.000000000000000E+000  0.000000000000000E+000  0.000000000000000E+000        
  0.000000000000000E+000  0.000000000000000E+000  0.000000000000000E+000        
  0.000000000000000E+000                                                        
   106.100000000000       5.292900000000000E-002 -1.151200000000000E-002        
  0.000000000000000E+000  0.000000000000000E+000  0.000000000000000E+000        
  0.000000000000000E+000  0.000000000000000E+000  0.000000000000000E+000        
  0.000000000000000E+000                                                        
   38.1100000000000       0.147043000000000      -3.416000000000000E-002        
  0.000000000000000E+000  0.000000000000000E+000  0.000000000000000E+000        
  0.000000000000000E+000  0.000000000000000E+000  0.000000000000000E+000        
  0.000000000000000E+000                                                        
   14.7500000000000       0.305631000000000      -7.717300000000001E-002        
  0.000000000000000E+000  0.000000000000000E+000  0.000000000000000E+000        
  0.000000000000000E+000  0.000000000000000E+000  0.000000000000000E+000        
  0.000000000000000E+000                                                        
   6.03500000000000       0.399345000000000      -0.141493000000000             
  0.000000000000000E+000  0.000000000000000E+000  0.000000000000000E+000        
  0.000000000000000E+000  0.000000000000000E+000  0.000000000000000E+000        
  0.000000000000000E+000                                                        
   2.53000000000000       0.217051000000000      -0.118019000000000             
  0.000000000000000E+000  0.000000000000000E+000  0.000000000000000E+000        
  0.000000000000000E+000  0.000000000000000E+000  0.000000000000000E+000        
  0.000000000000000E+000                                                        
  0.735500000000000       1.589400000000000E-002  0.273806000000000             
   1.00000000000000       0.000000000000000E+000  0.000000000000000E+000        
  0.000000000000000E+000  0.000000000000000E+000  0.000000000000000E+000        
  0.000000000000000E+000                                                        
  0.290500000000000      -3.084000000000000E-003  0.586510000000000             
  0.000000000000000E+000   1.00000000000000       0.000000000000000E+000        
  0.000000000000000E+000  0.000000000000000E+000  0.000000000000000E+000        
  0.000000000000000E+000                                                        
  0.111100000000000       9.779999999999999E-004  0.285430000000000             
  0.000000000000000E+000  0.000000000000000E+000   1.00000000000000             
  0.000000000000000E+000  0.000000000000000E+000  0.000000000000000E+000        
  0.000000000000000E+000                                                        
   7.21600000000000       0.000000000000000E+000  0.000000000000000E+000        
  0.000000000000000E+000  0.000000000000000E+000  0.000000000000000E+000        
   1.00000000000000       0.000000000000000E+000  0.000000000000000E+000        
  0.000000000000000E+000                                                        
   19.5700000000000       0.000000000000000E+000  0.000000000000000E+000        
  0.000000000000000E+000  0.000000000000000E+000  0.000000000000000E+000        
  0.000000000000000E+000   1.00000000000000       0.000000000000000E+000        
  0.000000000000000E+000                                                        
   53.0730000000000       0.000000000000000E+000  0.000000000000000E+000        
  0.000000000000000E+000  0.000000000000000E+000  0.000000000000000E+000        
  0.000000000000000E+000  0.000000000000000E+000   1.00000000000000             
  0.000000000000000E+000                                                        
  4.145000000000000E-002  0.000000000000000E+000  0.000000000000000E+000        
  0.000000000000000E+000  0.000000000000000E+000  0.000000000000000E+000        
  0.000000000000000E+000  0.000000000000000E+000  0.000000000000000E+000        
   1.00000000000000                                                             
   10    8                                                                      
   34.5100000000000       5.378000000000000E-003  0.000000000000000E+000        
  0.000000000000000E+000  0.000000000000000E+000  0.000000000000000E+000        
  0.000000000000000E+000  0.000000000000000E+000  0.000000000000000E+000        
   7.91500000000000       3.613200000000000E-002  0.000000000000000E+000        
  0.000000000000000E+000  0.000000000000000E+000  0.000000000000000E+000        
  0.000000000000000E+000  0.000000000000000E+000  0.000000000000000E+000        
   2.36800000000000       0.142493000000000       0.000000000000000E+000        
  0.000000000000000E+000  0.000000000000000E+000  0.000000000000000E+000        
  0.000000000000000E+000  0.000000000000000E+000  0.000000000000000E+000        
  0.813200000000000       0.342150000000000        1.00000000000000             
  0.000000000000000E+000  0.000000000000000E+000  0.000000000000000E+000        
  0.000000000000000E+000  0.000000000000000E+000  0.000000000000000E+000        
  0.289000000000000       0.463864000000000       0.000000000000000E+000        
   1.00000000000000       0.000000000000000E+000  0.000000000000000E+000        
  0.000000000000000E+000  0.000000000000000E+000  0.000000000000000E+000        
  0.100700000000000       0.250028000000000       0.000000000000000E+000        
  0.000000000000000E+000   1.00000000000000       0.000000000000000E+000        
  0.000000000000000E+000  0.000000000000000E+000  0.000000000000000E+000        
   8.18200000000000       0.000000000000000E+000  0.000000000000000E+000        
  0.000000000000000E+000  0.000000000000000E+000   1.00000000000000             
  0.000000000000000E+000  0.000000000000000E+000  0.000000000000000E+000        
   24.1860000000000       0.000000000000000E+000  0.000000000000000E+000        
  0.000000000000000E+000  0.000000000000000E+000  0.000000000000000E+000        
   1.00000000000000       0.000000000000000E+000  0.000000000000000E+000        
   71.4940000000000       0.000000000000000E+000  0.000000000000000E+000        
  0.000000000000000E+000  0.000000000000000E+000  0.000000000000000E+000        
  0.000000000000000E+000   1.00000000000000       0.000000000000000E+000        
  3.218000000000000E-002  0.000000000000000E+000  0.000000000000000E+000        
  0.000000000000000E+000  0.000000000000000E+000  0.000000000000000E+000        
  0.000000000000000E+000  0.000000000000000E+000   1.00000000000000             
    6    6                                                                      
   1.84800000000000        1.00000000000000       0.000000000000000E+000        
  0.000000000000000E+000  0.000000000000000E+000  0.000000000000000E+000        
  0.000000000000000E+000                                                        
  0.649000000000000       0.000000000000000E+000   1.00000000000000             
  0.000000000000000E+000  0.000000000000000E+000  0.000000000000000E+000        
  0.000000000000000E+000                                                        
  0.228000000000000       0.000000000000000E+000  0.000000000000000E+000        
   1.00000000000000       0.000000000000000E+000  0.000000000000000E+000        
  0.000000000000000E+000                                                        
   8.65600000000000       0.000000000000000E+000  0.000000000000000E+000        
  0.000000000000000E+000   1.00000000000000       0.000000000000000E+000        
  0.000000000000000E+000                                                        
   33.2130000000000       0.000000000000000E+000  0.000000000000000E+000        
  0.000000000000000E+000  0.000000000000000E+000   1.00000000000000             
  0.000000000000000E+000                                                        
  7.660000000000000E-002  0.000000000000000E+000  0.000000000000000E+000        
  0.000000000000000E+000  0.000000000000000E+000  0.000000000000000E+000        
   1.00000000000000                                                             
    4    4                                                                      
   1.41900000000000        1.00000000000000       0.000000000000000E+000        
  0.000000000000000E+000  0.000000000000000E+000                                
  0.485000000000000       0.000000000000000E+000   1.00000000000000             
  0.000000000000000E+000  0.000000000000000E+000                                
   24.6940000000000       0.000000000000000E+000  0.000000000000000E+000        
   1.00000000000000       0.000000000000000E+000                                
  0.187000000000000       0.000000000000000E+000  0.000000000000000E+000        
  0.000000000000000E+000   1.00000000000000                                     
    2    2                                                                      
   1.01100000000000        1.00000000000000       0.000000000000000E+000        
  0.424000000000000       0.000000000000000E+000   1.00000000000000             
          8.00000000    1    5    1    1    1    1    1                         
O #2   0.000000000000000   0.000000000000000  -1.206665248956365                
   16    9                                                                      
   61420.0000000000       9.000000000000001E-005 -2.000000000000000E-005        
  0.000000000000000E+000  0.000000000000000E+000  0.000000000000000E+000        
  0.000000000000000E+000  0.000000000000000E+000  0.000000000000000E+000        
  0.000000000000000E+000                                                        
   9199.00000000000       6.980000000000001E-004 -1.590000000000000E-004        
  0.000000000000000E+000  0.000000000000000E+000  0.000000000000000E+000        
  0.000000000000000E+000  0.000000000000000E+000  0.000000000000000E+000        
  0.000000000000000E+000                                                        
   2091.00000000000       3.664000000000000E-003 -8.290000000000000E-004        
  0.000000000000000E+000  0.000000000000000E+000  0.000000000000000E+000        
  0.000000000000000E+000  0.000000000000000E+000  0.000000000000000E+000        
  0.000000000000000E+000                                                        
   590.900000000000       1.521800000000000E-002 -3.508000000000000E-003        
  0.000000000000000E+000  0.000000000000000E+000  0.000000000000000E+000        
  0.000000000000000E+000  0.000000000000000E+000  0.000000000000000E+000        
  0.000000000000000E+000                                                        
   192.300000000000       5.242300000000000E-002 -1.215600000000000E-002        
  0.000000000000000E+000  0.000000000000000E+000  0.000000000000000E+000        
  0.000000000000000E+000  0.000000000000000E+000  0.000000000000000E+000        
  0.000000000000000E+000                                                        
   69.3200000000000       0.145921000000000      -3.626100000000000E-002        
  0.000000000000000E+000  0.000000000000000E+000  0.000000000000000E+000        
  0.000000000000000E+000  0.000000000000000E+000  0.000000000000000E+000        
  0.000000000000000E+000                                                        
   26.9700000000000       0.305258000000000      -8.299200000000000E-002        
  0.000000000000000E+000  0.000000000000000E+000  0.000000000000000E+000        
  0.000000000000000E+000  0.000000000000000E+000  0.000000000000000E+000        
  0.000000000000000E+000                                                        
   11.1000000000000       0.398508000000000      -0.152090000000000             
  0.000000000000000E+000  0.000000000000000E+000  0.000000000000000E+000        
  0.000000000000000E+000  0.000000000000000E+000  0.000000000000000E+000        
  0.000000000000000E+000                                                        
   4.68200000000000       0.216980000000000      -0.115331000000000             
  0.000000000000000E+000  0.000000000000000E+000  0.000000000000000E+000        
  0.000000000000000E+000  0.000000000000000E+000  0.000000000000000E+000        
  0.000000000000000E+000                                                        
   1.42800000000000       1.759400000000000E-002  0.288979000000000             
   1.00000000000000       0.000000000000000E+000  0.000000000000000E+000        
  0.000000000000000E+000  0.000000000000000E+000  0.000000000000000E+000        
  0.000000000000000E+000                                                        
  0.554700000000000      -2.502000000000000E-003  0.586128000000000             
  0.000000000000000E+000   1.00000000000000       0.000000000000000E+000        
  0.000000000000000E+000  0.000000000000000E+000  0.000000000000000E+000        
  0.000000000000000E+000                                                        
  0.206700000000000       9.540000000000000E-004  0.277624000000000             
  0.000000000000000E+000  0.000000000000000E+000   1.00000000000000             
  0.000000000000000E+000  0.000000000000000E+000  0.000000000000000E+000        
  0.000000000000000E+000                                                        
   12.9740000000000       0.000000000000000E+000  0.000000000000000E+000        
  0.000000000000000E+000  0.000000000000000E+000  0.000000000000000E+000        
   1.00000000000000       0.000000000000000E+000  0.000000000000000E+000        
  0.000000000000000E+000                                                        
   34.9000000000000       0.000000000000000E+000  0.000000000000000E+000        
  0.000000000000000E+000  0.000000000000000E+000  0.000000000000000E+000        
  0.000000000000000E+000   1.00000000000000       0.000000000000000E+000        
  0.000000000000000E+000                                                        
   93.8810000000000       0.000000000000000E+000  0.000000000000000E+000        
  0.000000000000000E+000  0.000000000000000E+000  0.000000000000000E+000        
  0.000000000000000E+000  0.000000000000000E+000   1.00000000000000             
  0.000000000000000E+000                                                        
  6.959000000000000E-002  0.000000000000000E+000  0.000000000000000E+000        
  0.000000000000000E+000  0.000000000000000E+000  0.000000000000000E+000        
  0.000000000000000E+000  0.000000000000000E+000  0.000000000000000E+000        
   1.00000000000000                                                             
   10    8                                                                      
   63.4200000000000       6.044000000000000E-003  0.000000000000000E+000        
  0.000000000000000E+000  0.000000000000000E+000  0.000000000000000E+000        
  0.000000000000000E+000  0.000000000000000E+000  0.000000000000000E+000        
   14.6600000000000       4.179900000000000E-002  0.000000000000000E+000        
  0.000000000000000E+000  0.000000000000000E+000  0.000000000000000E+000        
  0.000000000000000E+000  0.000000000000000E+000  0.000000000000000E+000        
   4.45900000000000       0.161143000000000       0.000000000000000E+000        
  0.000000000000000E+000  0.000000000000000E+000  0.000000000000000E+000        
  0.000000000000000E+000  0.000000000000000E+000  0.000000000000000E+000        
   1.53100000000000       0.356731000000000        1.00000000000000             
  0.000000000000000E+000  0.000000000000000E+000  0.000000000000000E+000        
  0.000000000000000E+000  0.000000000000000E+000  0.000000000000000E+000        
  0.530200000000000       0.448309000000000       0.000000000000000E+000        
   1.00000000000000       0.000000000000000E+000  0.000000000000000E+000        
  0.000000000000000E+000  0.000000000000000E+000  0.000000000000000E+000        
  0.175000000000000       0.244940000000000       0.000000000000000E+000        
  0.000000000000000E+000   1.00000000000000       0.000000000000000E+000        
  0.000000000000000E+000  0.000000000000000E+000  0.000000000000000E+000        
   14.4750000000000       0.000000000000000E+000  0.000000000000000E+000        
  0.000000000000000E+000  0.000000000000000E+000   1.00000000000000             
  0.000000000000000E+000  0.000000000000000E+000  0.000000000000000E+000        
   42.7300000000000       0.000000000000000E+000  0.000000000000000E+000        
  0.000000000000000E+000  0.000000000000000E+000  0.000000000000000E+000        
   1.00000000000000       0.000000000000000E+000  0.000000000000000E+000        
   126.140000000000       0.000000000000000E+000  0.000000000000000E+000        
  0.000000000000000E+000  0.000000000000000E+000  0.000000000000000E+000        
  0.000000000000000E+000   1.00000000000000       0.000000000000000E+000        
  5.348000000000000E-002  0.000000000000000E+000  0.000000000000000E+000        
  0.000000000000000E+000  0.000000000000000E+000  0.000000000000000E+000        
  0.000000000000000E+000  0.000000000000000E+000   1.00000000000000             
    6    6                                                                      
   3.77500000000000        1.00000000000000       0.000000000000000E+000        
  0.000000000000000E+000  0.000000000000000E+000  0.000000000000000E+000        
  0.000000000000000E+000                                                        
   1.30000000000000       0.000000000000000E+000   1.00000000000000             
  0.000000000000000E+000  0.000000000000000E+000  0.000000000000000E+000        
  0.000000000000000E+000                                                        
  0.444000000000000       0.000000000000000E+000  0.000000000000000E+000        
   1.00000000000000       0.000000000000000E+000  0.000000000000000E+000        
  0.000000000000000E+000                                                        
   14.9270000000000       0.000000000000000E+000  0.000000000000000E+000        
  0.000000000000000E+000   1.00000000000000       0.000000000000000E+000        
  0.000000000000000E+000                                                        
   57.5440000000000       0.000000000000000E+000  0.000000000000000E+000        
  0.000000000000000E+000  0.000000000000000E+000   1.00000000000000             
  0.000000000000000E+000                                                        
  0.154000000000000       0.000000000000000E+000  0.000000000000000E+000        
  0.000000000000000E+000  0.000000000000000E+000  0.000000000000000E+000        
   1.00000000000000                                                             
    4    4                                                                      
   2.66600000000000        1.00000000000000       0.000000000000000E+000        
  0.000000000000000E+000  0.000000000000000E+000                                
  0.859000000000000       0.000000000000000E+000   1.00000000000000             
  0.000000000000000E+000  0.000000000000000E+000                                
   26.4830000000000       0.000000000000000E+000  0.000000000000000E+000        
   1.00000000000000       0.000000000000000E+000                                
  0.324000000000000       0.000000000000000E+000  0.000000000000000E+000        
  0.000000000000000E+000   1.00000000000000                                     
    2    2                                                                      
   1.84600000000000        1.00000000000000       0.000000000000000E+000        
  0.714000000000000       0.000000000000000E+000   1.00000000000000             
FINISH                                                                          
 
********************************************************************************
 ONE- AND TWO-ELECTRON INTEGRALS OVER SYMMETRY-ADAPTED AOS ARE CALCULATED.

  SPHERICAL HARMONICS ARE USED.
  
  INTEGRALS LESS THAN  0.10E-13 ARE NEGLECTED.

  NUCLEAR REPULSION ENERGY :   17.0512621111 A.U.
  @MOLECU-I, ONE ELECTRON INTEGRALS (CPU/WALL):        0.06/       0.06 SECONDS.
  @TWOEL-I,    4472599 INTEGRALS OF SYMMETRY TYPE  I I I I
  @TWOEL-I,   19288718 INTEGRALS OF SYMMETRY TYPE  I J I J
  @TWOEL-I,   10156670 INTEGRALS OF SYMMETRY TYPE  I I J J
  @TWOEL-I,   14267474 INTEGRALS OF SYMMETRY TYPE  I J K L
  @TWOEL-I, TOTAL NUMBER OF 2-E INTEGRALS   48185461.
  @MOLECU-I, TWO ELECTRON INTEGRALS (CPU/WALL):      155.32/      21.14 SECONDS.
 @CHECKOUT-I, Total execution time (CPU/WALL):      155.41/      21.22 seconds.

Running with 14 threads/proc

--executable xvmol finished with status     0 in       21.25 seconds (walltime).
 --invoking executable--
/nfs/workspaces/public/cfour_mpi/bin/xvmol2ja
 @GETMEM-I,  Allocated    3814 MB of main memory.
 @CHECKOUT-I, Total execution time (CPU/WALL):        0.15/       0.03 seconds.
--executable xvmol2ja finished with status     0 in        0.05 seconds (walltime).
 --invoking executable--
/nfs/workspaces/public/cfour_mpi/bin/xvprop
 @GETMEM-I,  Allocated    3814 MB of main memory.
   Property integrals will be calculated.
    --------------------------------------------------------------
                                   Property evaluated at 
    Property type                X             Y             Z
    --------------------------------------------------------------
    Dipole moment               ----          ----          ----  
    Quadrupole moment           ----          ----          ----  
    Octopole moment             ----          ----          ----  
    Relativisitic corr.         ----          ----          ----  
    Second moment            0.0000000     0.0000000     0.0000000
    Electron density         0.0000000     0.0000000     1.6083756
    Electron density         0.0000000     0.0000000    -1.2066652
    Field gradient           0.0000000     0.0000000     1.6083756
    Field gradient           0.0000000     0.0000000    -1.2066652
    Potential                0.0000000     0.0000000     1.6083756
    Potential                0.0000000     0.0000000    -1.2066652
    --------------------------------------------------------------
 @CHECKOUT-I, Total execution time (CPU/WALL):        1.29/       1.31 seconds.
--executable xvprop finished with status     0 in        1.32 seconds (walltime).
 --invoking executable--
/nfs/workspaces/public/cfour_mpi/bin/xvscf
  There are  218 functions in the AO basis.

  There are 4 irreducible representations.

       Irrep        # of functions
         1                 86
         2                 52
         3                 52
         4                 28


  Parameters for SCF calculation: 
        SCF reference function:  RHF  
  Maximum number of iterations:  150
     Full symmetry point group: CXv 
     Computational point group: C2v 
        Initial density matrix: MOREAD                 
     SCF convergence tolerance: 10**(-10)
  DIIS convergence acceleration:  ON
          Latest start for DIIS:   8
                     DIIS order:   6

  Memory information:    2523578 words required.
  Fock matrices are constructed from AO integral file.
 @GETMEM-I,  Allocated      19 MB of main memory.
  Initialization and symmetry analysis required      0.001 seconds.

  Adding electric field perturbation to one-electron Hamiltonian.
  Field direction     : Z
  Field strength      :  0.0002000 a.u.

  @INITGES-I, Occupancies from core Hamiltonian:

          Alpha population by irrep:   5    1    1    0
           Beta population by irrep:   5    1    1    0


 total no. of electrons in initial guess :  0.000000000000000E+000
  --------------------------------------------------------------------
  Iteration         Total Energy            Largest Density Difference
  --------------------------------------------------------------------
       0            17.051262724745037              0.0000000000D+00
   current occupation vector 
     5  1  1  0
     5  1  1  0
       1           -93.401394933457141              0.1752808092D+02
   current occupation vector 
     5  1  1  0
     5  1  1  0
       2           -98.244570216545668              0.1752804936D+02
   current occupation vector 
     5  1  1  0
     5  1  1  0
       3          -102.006280653691135              0.6178400269D+01
   current occupation vector 
     5  1  1  0
     5  1  1  0
       4           -97.021578927462002              0.6178284929D+01
   current occupation vector 
     5  1  1  0
     5  1  1  0
       5          -100.784370732382911              0.6742170811D+01
   current occupation vector 
     5  1  1  0
     5  1  1  0
       6           -96.007659281346776              0.6740741616D+01
   current occupation vector 
     5  1  1  0
     5  1  1  0
       7          -100.747378648075767              0.6812953602D+01
   current occupation vector 
     5  1  1  0
     5  1  1  0
       8           -95.968663095792920              0.6813142896D+01
   current occupation vector 
     5  1  1  0
     5  1  1  0
       9          -107.493459706998721              0.5439952343D+01
   current occupation vector 
     5  1  1  0
     5  1  1  0
      10          -109.504332183642106              0.9255240923D+00
   current occupation vector 
     5  1  1  0
     5  1  1  0
      11          -112.320204560005777              0.1544260813D+01
   current occupation vector 
     5  1  1  0
     5  1  1  0
      12          -112.596213915249763              0.5115377734D+00
   current occupation vector 
     5  1  1  0
     5  1  1  0
      13          -112.600918733606306              0.1255738279D+00
   current occupation vector 
     5  1  1  0
     5  1  1  0
      14          -112.602423906204137              0.5568893324D-01
   current occupation vector 
     5  1  1  0
     5  1  1  0
      15          -112.602527640845494              0.1558707519D-01
   current occupation vector 
     5  1  1  0
     5  1  1  0
      16          -112.602572400872077              0.1264921136D-01
   current occupation vector 
     5  1  1  0
     5  1  1  0
      17          -112.602582702273878              0.5729076629D-02
   current occupation vector 
     5  1  1  0
     5  1  1  0
      18          -112.602584355930418              0.3281360132D-02
   current occupation vector 
     5  1  1  0
     5  1  1  0
      19          -112.602584364757831              0.2444378905D-03
   current occupation vector 
     5  1  1  0
     5  1  1  0
      20          -112.602584365013001              0.1328299068D-04
   current occupation vector 
     5  1  1  0
     5  1  1  0
      21          -112.602584365018487              0.4507500951D-05
   current occupation vector 
     5  1  1  0
     5  1  1  0
      22          -112.602584365017748              0.4906226936D-06
   current occupation vector 
     5  1  1  0
     5  1  1  0
      23          -112.602584365018799              0.8311717359D-07
   current occupation vector 
     5  1  1  0
     5  1  1  0
      24          -112.602584365018259              0.2559165990D-07
   current occupation vector 
     5  1  1  0
     5  1  1  0
      25          -112.602584365021357              0.2969009483D-08
   current occupation vector 
     5  1  1  0
     5  1  1  0
      26          -112.602584365018117              0.9219052188D-09
   current occupation vector 
     5  1  1  0
     5  1  1  0
      27          -112.602584365017606              0.8664147177D-09
   current occupation vector 
     5  1  1  0
     5  1  1  0
      28          -112.602584365017833              0.1420392692D-09
   current occupation vector 
     5  1  1  0
     5  1  1  0

  SCF has converged.

 Density matrix saved to file den.dat
 total electron number:   13.9999999999998     
     E(SCF)=      -112.602584365017663              0.6870792824D-10

  Eigenvector printing suppressed.

 @PUTMOS-I, Writing converged MOs to NEWMOS. 
 @PUTMOS-I, Symmetry   1 Full Blocks 21 Partial Blocksize   2
 @PUTMOS-I, Symmetry   2 Full Blocks 13 Partial Blocksize   0
 @PUTMOS-I, Symmetry   3 Full Blocks 13 Partial Blocksize   0
 @PUTMOS-I, Symmetry   4 Full Blocks  7 Partial Blocksize   0
 @PUTFOCK-I, Writing converged Fock matrix to NEWFOCK. 
 @PUTFOCK-I, Symmetry   1 Full Blocks 21 Partial Blocksize   2
 @PUTFOCK-I, Symmetry   2 Full Blocks 13 Partial Blocksize   0
 @PUTFOCK-I, Symmetry   3 Full Blocks 13 Partial Blocksize   0
 @PUTFOCK-I, Symmetry   4 Full Blocks  7 Partial Blocksize   0


 
  ORBITAL EIGENVALUES (ALPHA)  (1H = 27.2113834 eV)

       MO #        E(hartree)               E(eV)           FULLSYM    COMPSYM
       ----   --------------------   --------------------   -------   ---------
    1     1         -20.6549735000        -562.0504030248     SG+        A1 (1)
    2     2         -11.4961814392        -312.8270007788     SG+        A1 (1)
    3     3          -1.3191758892         -35.8966008928     SG+        A1 (1)
    4     4          -0.7971676399         -21.6920342836     SG+        A1 (1)
    5     5          -0.5508902476         -14.9904857382     SG+        A1 (1)
    6   139          -0.5205813178         -14.1657378287      PI        B2 (3)
    7    87          -0.5205813178         -14.1657378287      PI        B1 (2)
  +++++++++++++++++++++++++++++++++++++++++++++++++++++++++++++++++++++++++++++
    8    88           0.0147242635           0.4006675805      PI        B1 (2)
    9   140           0.0147242635           0.4006675805      PI        B2 (3)
   10     6           0.0633578830           1.7240556446     SG+        A1 (1)
   11     7           0.0683046756           1.8586647149     SG+        A1 (1)
   12    89           0.0852830060           2.3206685730      PI        B1 (2)
   13   141           0.0852830060           2.3206685730      PI        B2 (3)
   14     8           0.1566660399           4.2630996767     SG+        A1 (1)
   15    90           0.1754117492           4.7731963614      PI        B1 (2)
   16   142           0.1754117492           4.7731963614      PI        B2 (3)
   17     9           0.2174884506           5.9181616143     SG+        A1 (1)
   18    10           0.2242629309           6.1025045956      DE        A1 (1)
   19   191           0.2242629309           6.1025045956      DE        A2 (4)
   20    91           0.2918426170           7.9414413445      PI        B1 (2)
   21   143           0.2918426170           7.9414413445      PI        B2 (3)
   22    11           0.2998902376           8.1604282328     SG+        A1 (1)
   23    12           0.3454430617           9.3999835941     SG+        A1 (1)
   24    92           0.4018209747          10.9341046019      PI        B1 (2)
   25   144           0.4018209747          10.9341046019      PI        B2 (3)
   26    13           0.4466819053          12.1548325837     SG+        A1 (1)
   27    14           0.5120113175          13.9325362669     SG+        A1 (1)
   28   192           0.5484351839          14.9236800597      DE        A2 (4)
   29    15           0.5484351839          14.9236800597      DE        A1 (1)
   30    93           0.6235837653          16.9685769206      PI        B1 (2)
   31   145           0.6235837653          16.9685769206      PI        B2 (3)
   32    16           0.7172126257          19.5163477376     SG+        A1 (1)
   33    94           0.7367239957          20.0472791068      PH        B1 (2)
   34   146           0.7367239957          20.0472791068      PH        B2 (3)
   35    17           0.7462175052          20.3056106326      DE        A1 (1)
   36   193           0.7462175052          20.3056106326      DE        A2 (4)
   37    95           0.7850286265          21.3617149350      PI        B1 (2)
   38   147           0.7850286265          21.3617149350      PI        B2 (3)
   39    18           0.8251520687          22.4535293048     SG+        A1 (1)
   40   194           0.8680109792          23.6197795504      DE        A2 (4)
   41    19           0.8680109792          23.6197795504      DE        A1 (1)
   42    20           0.8720930184          23.7308574854     SG+        A1 (1)
   43    96           0.8949241280          24.3521235599      PI        B1 (2)
   44   148           0.8949241280          24.3521235599      PI        B2 (3)
   45    97           1.0333438175          28.1187148018      PI        B1 (2)
   46   149           1.0333438175          28.1187148018      PI        B2 (3)
   47    21           1.1258696925          30.6364718604     SG+        A1 (1)
   48    22           1.3830753308          37.6353930982     SG+        A1 (1)
   49   150           1.4244939509          38.7624510491      PH        B2 (3)
   50    98           1.4244939509          38.7624510491      PH        B1 (2)
   51    99           1.5258300639          41.5199468718      PI        B1 (2)
   52   151           1.5258300639          41.5199468718      PI        B2 (3)
   53   195           1.5748048583          42.8526187806      DE        A2 (4)
   54    23           1.5748048583          42.8526187806      DE        A1 (1)
   55    24           1.6119433939          43.8632097110     SG+        A1 (1)
   56   100           1.6387124126          44.5916317412      PI        B1 (2)
   57   152           1.6387124126          44.5916317412      PI        B2 (3)
   58   196           1.6978336652          46.2004028132      DE        A2 (4)
   59    25           1.6978336652          46.2004028132      DE        A1 (1)
   60    26           1.9055372892          51.8523057607     SG+        A1 (1)
   61    27           1.9856269211          54.0316554405     SG+        A1 (1)
   62   197           2.0771520311          56.5221802989      PI        A2 (4)
   63    28           2.0771520311          56.5221802989      PI        A1 (1)
   64   101           2.0901753564          56.8765629969      PI        B1 (2)
   65   153           2.0901753564          56.8765629969      PI        B2 (3)
   66    29           2.1385180097          58.1920334705      DE        A1 (1)
   67   198           2.1385180097          58.1920334705      DE        A2 (4)
   68   102           2.2168440704          60.3233939374      PH        B1 (2)
   69   154           2.2168440704          60.3233939374      PH        B2 (3)
   70   155           2.2391769330          60.9311020245      PH        B2 (3)
   71   103           2.2391769330          60.9311020245      PH        B1 (2)
   72   104           2.2450138690          61.0899331266      PI        B1 (2)
   73   156           2.2450138690          61.0899331266      PI        B2 (3)
   74    30           2.2456313099          61.1067345491     SG+        A1 (1)
   75   199           2.3007258847          62.6059341481      DE        A2 (4)
   76    31           2.3007258847          62.6059341481      DE        A1 (1)
   77    32           2.4550744827          66.8059730251     SG+        A1 (1)
   78   105           2.5201809310          68.5776095518      PI        B1 (2)
   79   157           2.5201809310          68.5776095518      PI        B2 (3)
   80    33           2.6041942837          70.8637291028     SG+        A1 (1)
   81   106           2.6077084985          70.9593557493      PI        B1 (2)
   82   158           2.6077084985          70.9593557493      PI        B2 (3)
   83   200           2.7119078046          73.7947630160      DE        A2 (4)
   84    34           2.7119078046          73.7947630160      DE        A1 (1)
   85    35           3.0885486546          84.0436815909     SG+        A1 (1)
   86   107           3.4873113987          94.8945675053      PI        B1 (2)
   87   159           3.4873113987          94.8945675053      PI        B2 (3)
   88    36           3.7030198950         100.7642941002      PI        A1 (1)
   89   201           3.7030198950         100.7642941002      PI        A2 (4)
   90    37           3.9056046979         106.2769068443     SG+        A1 (1)
   91   160           3.9664906969         107.9336991067      PH        B2 (3)
   92   108           3.9664906969         107.9336991067      PH        B1 (2)
   93   161           4.1309263595         112.4082209668      PH        B2 (3)
   94   109           4.1309263595         112.4082209668      PH        B1 (2)
   95   110           4.1615953378         113.2427662933      PI        B1 (2)
   96   162           4.1615953378         113.2427662933      PI        B2 (3)
   97    38           4.1806385029         113.7609571605     SG+        A1 (1)
   98   202           4.2128115989         114.6364316109      DE        A2 (4)
   99    39           4.2128115989         114.6364316109      DE        A1 (1)
  100   203           4.2766024736         116.3722695580      DE        A2 (4)
  101    40           4.2766024736         116.3722695580      DE        A1 (1)
  102    41           4.4396217573         120.8082497880     SG+        A1 (1)
  103   111           4.6163424201         125.6170634999      PI        B1 (2)
  104   163           4.6163424201         125.6170634999      PI        B2 (3)
  105    42           4.7694315341         129.7828300744     SG+        A1 (1)
  106   204           4.7781580457         130.0202905285      DE        A2 (4)
  107    43           4.7781580457         130.0202905286      DE        A1 (1)
  108   112           5.1748855233         140.8157940260      PI        B1 (2)
  109   164           5.1748855233         140.8157940260      PI        B2 (3)
  110    44           5.3448185059         145.4399055661     SG+        A1 (1)
  111   113           5.3770239581         146.3162604742      PI        B1 (2)
  112   165           5.3770239581         146.3162604743      PI        B2 (3)
  113   205           5.8434347813         159.0079442074      PI        A2 (4)
  114    45           5.8434347813         159.0079442074      PI        A1 (1)
  115   166           5.9227574946         161.1664249701      PH        B2 (3)
  116   114           5.9227574946         161.1664249701      PH        B1 (2)
  117    46           6.1019171364         166.0416066746     SG+        A1 (1)
  118   206           6.1508986756         167.3744621151      DE        A2 (4)
  119    47           6.1508986756         167.3744621151      DE        A1 (1)
  120   115           6.1695988310         167.8833192132      PI        B1 (2)
  121   167           6.1695988310         167.8833192132      PI        B2 (3)
  122    48           6.2297428086         169.5199200486     SG+        A1 (1)
  123   168           6.3734506626         173.4304095623      PH        B2 (3)
  124   116           6.3734506626         173.4304095623      PH        B1 (2)
  125    49           6.4175257640         174.6297540437      DE        A1 (1)
  126   207           6.4175257640         174.6297540437      DE        A2 (4)
  127   208           6.5080199979         177.0922273388      DE        A2 (4)
  128    50           6.5080199979         177.0922273388      DE        A1 (1)
  129   117           6.8785012846         187.1735356724      PI        B1 (2)
  130   169           6.8785012846         187.1735356724      PI        B2 (3)
  131    51           7.1635615800         194.9304206637     SG+        A1 (1)
  132   118           7.4731107553         203.3536819535      PI        B1 (2)
  133   170           7.4731107553         203.3536819535      PI        B2 (3)
  134    52           8.1150278312         220.8211336168     SG+        A1 (1)
  135    53           9.6594014094         262.8456751657     SG+        A1 (1)
  136   171           9.8564791821         268.2084339986      PI        B2 (3)
  137   119           9.8564791821         268.2084339986      PI        B1 (2)
  138    54          10.6397192228         289.5214790411      PI        A1 (1)
  139   209          10.6397192228         289.5214790411      PI        A2 (4)
  140    55          10.7134595538         291.5280554593     SG+        A1 (1)
  141   120          10.7506172282         292.5391671837      PH        B1 (2)
  142   172          10.7506172282         292.5391671837      PH        B2 (3)
  143   210          10.9846485727         298.9074838265      DE        A2 (4)
  144    56          10.9846485727         298.9074838265      DE        A1 (1)
  145   121          10.9959250588         299.2143326124      PI        B1 (2)
  146   173          10.9959250588         299.2143326124      PI        B2 (3)
  147    57          11.2211241590         305.3423116690     SG+        A1 (1)
  148   174          11.8791046189         323.2468702335      PH        B2 (3)
  149   122          11.8791046189         323.2468702336      PH        B1 (2)
  150   211          12.0206593017         327.0987689800      DE        A2 (4)
  151    58          12.0206593017         327.0987689803      DE        A1 (1)
  152   175          12.4967361635         340.0534789944      PI        B2 (3)
  153   123          12.4967361635         340.0534789944      PI        B1 (2)
  154    59          12.7339947789         346.5096141412     SG+        A1 (1)
  155   212          12.7409641380         346.6992600452      DE        A2 (4)
  156    60          12.7409641380         346.6992600452      DE        A1 (1)
  157   124          13.0873033038         356.1236278708      PI        B1 (2)
  158   176          13.0873033038         356.1236278709      PI        B2 (3)
  159    61          13.7282832015         373.5655776202     SG+        A1 (1)
  160    62          17.4282582282         474.2470166424     SG+        A1 (1)
  161   125          18.7952348784         511.4443423689      PI        B1 (2)
  162   177          18.7952348784         511.4443423691      PI        B2 (3)
  163    63          19.9941696164         544.0690151958     SG+        A1 (1)
  164    64          26.2920148778         715.4420971985      DE        A1 (1)
  165   213          26.2920148778         715.4420971986      DE        A2 (4)
  166   178          26.6569318316         725.3719923379      PI        B2 (3)
  167   126          26.6569318316         725.3719923379      PI        B1 (2)
  168    65          27.1474291966         738.7191041944     SG+        A1 (1)
  169   179          33.5267944525         912.3104580211      PI        B2 (3)
  170   127          33.5267944526         912.3104580218      PI        B1 (2)
  171    66          34.3306845532         934.1854197615     SG+        A1 (1)
  172    67          35.7734603318         973.4453446320     SG+        A1 (1)
  173   214          47.0740015702        1280.9487048984      DE        A2 (4)
  174    68          47.0740015702        1280.9487048985      DE        A1 (1)
  175   128          47.2571614705        1285.9327391698      PI        B1 (2)
  176   180          47.2571614705        1285.9327391699      PI        B2 (3)
  177    69          47.6334312446        1296.1715602546     SG+        A1 (1)
  178    70          63.8460437450        1737.3391749174     SG+        A1 (1)
  179   129          66.3649223315        1805.8813458739      PI        B1 (2)
  180   181          66.3649223315        1805.8813458741      PI        B2 (3)
  181    71          67.2283886828        1829.3774598113     SG+        A1 (1)
  182   182          98.5340973402        2681.2491006978      PH        B2 (3)
  183   130          98.5340973402        2681.2491006978      PH        B1 (2)
  184   215          98.5474827412        2681.6133359765      DE        A2 (4)
  185    72          98.5474827412        2681.6133359766      DE        A1 (1)
  186   131          98.5625031490        2682.0220620499      PI        B1 (2)
  187   183          98.5625031490        2682.0220620499      PI        B2 (3)
  188    73          98.5773113653        2682.4250141026     SG+        A1 (1)
  189   184         103.2990630903        2810.9104106121      PH        B2 (3)
  190   132         103.2990630903        2810.9104106121      PH        B1 (2)
  191    74         103.3068451053        2811.1221700047      DE        A1 (1)
  192   216         103.3068451054        2811.1221700066      DE        A2 (4)
  193   185         103.3450971021        2812.1630597556      PI        B2 (3)
  194   133         103.3450971021        2812.1630597556      PI        B1 (2)
  195    75         103.3481494666        2812.2461188169     SG+        A1 (1)
  196    76         114.9899654287        3129.0360364343      DE        A1 (1)
  197   217         114.9899654287        3129.0360364343      DE        A2 (4)
  198   186         115.1656419872        3133.8164386195      PI        B2 (3)
  199   134         115.1656419872        3133.8164386195      PI        B1 (2)
  200    77         115.4259742535        3140.9004397294     SG+        A1 (1)
  201   187         116.8147758757        3178.6916531381      PI        B2 (3)
  202   135         116.8147758757        3178.6916531389      PI        B1 (2)
  203    78         117.4672547270        3196.4465053212     SG+        A1 (1)
  204    79         122.0033121803        3319.8789038088     SG+        A1 (1)
  205   218         198.5519197238        5402.8724124112      DE        A2 (4)
  206    80         198.5519197238        5402.8724124114      DE        A1 (1)
  207   136         198.6515247274        5405.5828023507      PI        B1 (2)
  208   188         198.6515247274        5405.5828023510      PI        B2 (3)
  209    81         198.8469513867        5410.9006321048     SG+        A1 (1)
  210    82         216.3755225232        5887.8773017528     SG+        A1 (1)
  211   137         224.8381155770        6118.1561659006      PI        B1 (2)
  212   189         224.8381155771        6118.1561659007      PI        B2 (3)
  213    83         225.5107856234        6136.4604484337     SG+        A1 (1)
  214   190         395.3188244221       10757.1720965880      PI        B2 (3)
  215   138         395.3188244222       10757.1720965888      PI        B1 (2)
  216    84         395.8643675459       10772.0170796905     SG+        A1 (1)
  217    85         508.6943759904       13842.2776984980     SG+        A1 (1)
  218    86         895.1996513459       24359.6209323202     SG+        A1 (1)


  VSCF finished.

 @CHECKOUT-I, Total execution time (CPU/WALL):       47.81/       8.39 seconds.
--executable xvscf finished with status     0 in        8.41 seconds (walltime).
 --invoking executable--
/nfs/workspaces/public/cfour_mpi/bin/xvtran
 @GETMEM-I,  Allocated    3814 MB of main memory.
  Full RHF integral transformation
  Transformation of IIII integrals :
  1 pass through the AO integral file was required.
     4472599 AO integrals were read.
     8676178 MO integrals were written to HF2.
  Transformation of IIJJ integrals :
  1 pass through the AO integral file was required.
    10156670 AO integrals were read.
    14439574 MO integrals were written to HF2.
  Transformation of IJIJ integrals :
  1 pass through the AO integral file was required.
    19288718 AO integrals were read.
    26867530 MO integrals were written to HF2.
  Transformation of IJKL integrals :
  1 pass through the AO integral file was required.
    14267474 AO integrals were read.
    18162616 MO integrals were written to HF2.
  Summary of active molecular orbitals: 
------------------------------------------------------------------------
 
  Index      Eigenvalue    Symmetry    Index      Eigenvalue    Symmetry
------------------------------------------------------------------------
     1       -20.6549735        1       110         4.1309264        2
     2       -11.4961814        1       111         4.1615953        2
     3        -1.3191759        1       112         4.6163424        2
     4        -0.7971676        1       113         5.1748855        2
     5        -0.5508902        1       114         5.3770240        2
     6        -0.5205813        2       115         5.9227575        2
     7        -0.5205813        3       116         6.1695988        2
     8         0.0633579        1       117         6.3734507        2
     9         0.0683047        1       118         6.8785013        2
    10         0.1566660        1       119         7.4731108        2
    11         0.2174885        1       120         9.8564792        2
    12         0.2242629        1       121        10.7506172        2
    13         0.2998902        1       122        10.9959251        2
    14         0.3454431        1       123        11.8791046        2
    15         0.4466819        1       124        12.4967362        2
    16         0.5120113        1       125        13.0873033        2
    17         0.5484352        1       126        18.7952349        2
    18         0.7172126        1       127        26.6569318        2
    19         0.7462175        1       128        33.5267945        2
    20         0.8251521        1       129        47.2571615        2
    21         0.8680110        1       130        66.3649223        2
    22         0.8720930        1       131        98.5340973        2
    23         1.1258697        1       132        98.5625031        2
    24         1.3830753        1       133       103.2990631        2
    25         1.5748049        1       134       103.3450971        2
    26         1.6119434        1       135       115.1656420        2
    27         1.6978337        1       136       116.8147759        2
    28         1.9055373        1       137       198.6515247        2
    29         1.9856269        1       138       224.8381156        2
    30         2.0771520        1       139       395.3188244        2
    31         2.1385180        1       140         0.0147243        3
    32         2.2456313        1       141         0.0852830        3
    33         2.3007259        1       142         0.1754117        3
    34         2.4550745        1       143         0.2918426        3
    35         2.6041943        1       144         0.4018210        3
    36         2.7119078        1       145         0.6235838        3
    37         3.0885487        1       146         0.7367240        3
    38         3.7030199        1       147         0.7850286        3
    39         3.9056047        1       148         0.8949241        3
    40         4.1806385        1       149         1.0333438        3
    41         4.2128116        1       150         1.4244940        3
    42         4.2766025        1       151         1.5258301        3
    43         4.4396218        1       152         1.6387124        3
    44         4.7694315        1       153         2.0901754        3
    45         4.7781580        1       154         2.2168441        3
    46         5.3448185        1       155         2.2391769        3
    47         5.8434348        1       156         2.2450139        3
    48         6.1019171        1       157         2.5201809        3
    49         6.1508987        1       158         2.6077085        3
    50         6.2297428        1       159         3.4873114        3
    51         6.4175258        1       160         3.9664907        3
    52         6.5080200        1       161         4.1309264        3
    53         7.1635616        1       162         4.1615953        3
    54         8.1150278        1       163         4.6163424        3
    55         9.6594014        1       164         5.1748855        3
    56        10.6397192        1       165         5.3770240        3
    57        10.7134596        1       166         5.9227575        3
    58        10.9846486        1       167         6.1695988        3
    59        11.2211242        1       168         6.3734507        3
    60        12.0206593        1       169         6.8785013        3
    61        12.7339948        1       170         7.4731108        3
    62        12.7409641        1       171         9.8564792        3
    63        13.7282832        1       172        10.7506172        3
    64        17.4282582        1       173        10.9959251        3
    65        19.9941696        1       174        11.8791046        3
    66        26.2920149        1       175        12.4967362        3
    67        27.1474292        1       176        13.0873033        3
    68        34.3306846        1       177        18.7952349        3
    69        35.7734603        1       178        26.6569318        3
    70        47.0740016        1       179        33.5267945        3
    71        47.6334312        1       180        47.2571615        3
    72        63.8460437        1       181        66.3649223        3
    73        67.2283887        1       182        98.5340973        3
    74        98.5474827        1       183        98.5625031        3
    75        98.5773114        1       184       103.2990631        3
    76       103.3068451        1       185       103.3450971        3
    77       103.3481495        1       186       115.1656420        3
    78       114.9899654        1       187       116.8147759        3
    79       115.4259743        1       188       198.6515247        3
    80       117.4672547        1       189       224.8381156        3
    81       122.0033122        1       190       395.3188244        3
    82       198.5519197        1       191         0.2242629        4
    83       198.8469514        1       192         0.5484352        4
    84       216.3755225        1       193         0.7462175        4
    85       225.5107856        1       194         0.8680110        4
    86       395.8643675        1       195         1.5748049        4
    87       508.6943760        1       196         1.6978337        4
    88       895.1996513        1       197         2.0771520        4
    89         0.0147243        2       198         2.1385180        4
    90         0.0852830        2       199         2.3007259        4
    91         0.1754117        2       200         2.7119078        4
    92         0.2918426        2       201         3.7030199        4
    93         0.4018210        2       202         4.2128116        4
    94         0.6235838        2       203         4.2766025        4
    95         0.7367240        2       204         4.7781580        4
    96         0.7850286        2       205         5.8434348        4
    97         0.8949241        2       206         6.1508987        4
    98         1.0333438        2       207         6.4175258        4
    99         1.4244940        2       208         6.5080200        4
   100         1.5258301        2       209        10.6397192        4
   101         1.6387124        2       210        10.9846486        4
   102         2.0901754        2       211        12.0206593        4
   103         2.2168441        2       212        12.7409641        4
   104         2.2391769        2       213        26.2920149        4
   105         2.2450139        2       214        47.0740016        4
   106         2.5201809        2       215        98.5474827        4
   107         2.6077085        2       216       103.3068451        4
   108         3.4873114        2       217       114.9899654        4
   109         3.9664907        2       218       198.5519197        4
------------------------------------------------------------------------
  -20.6549734999818       -11.4961814392270       -1.31917588919234     
 -0.797167639907371      -0.550890247580350      -0.520581317769142     
 -0.520581317769152       6.335788295740259E-002  6.830467556702909E-002
  0.156666039870165       0.217488450599073       0.224262930917559     
  0.299890237582198       0.345443061673545       0.446681905326927     
  0.512011317546046       0.548435183920124       0.717212625713662     
  0.746217505157029       0.825152068702682       0.868010979200230     
  0.872093018447141        1.12586969247500        1.38307533082573     
   1.57480485834387        1.61194339391943        1.69783366520195     
   1.90553728924665        1.98562692114029        2.07715203111846     
   2.13851800972898        2.24563130991349        2.30072588474626     
   2.45507448272836        2.60419428373514        2.71190780458625     
   3.08854865463673        3.70301989498392        3.90560469793337     
   4.18063850294726        4.21281159894587        4.27660247358187     
   4.43962175726807        4.76943153409838        4.77815804574749     
   5.34481850585156        5.84343478132051        6.10191713643526     
   6.15089867555605        6.22974280861267        6.41752576400312     
   6.50801999794033        7.16356158003154        8.11502783121260     
   9.65940140940006        10.6397192228436        10.7134595538180     
   10.9846485727190        11.2211241589798        12.0206593017359     
[...]
 Convergence information after    14 iterations: 
 Largest element of residual vector :  0.12816582E-05.
 Largest element of DIIS residual   :  0.87542006E-06.
 Convergence information after    15 iterations: 
 Largest element of residual vector :  0.98445257E-06.
 Largest element of DIIS residual   :  0.71277289E-06.
 Convergence information after    16 iterations: 
 Largest element of residual vector :  0.52549839E-06.
 Largest element of DIIS residual   :  0.25286214E-06.
 Convergence information after    17 iterations: 
 Largest element of residual vector :  0.27081577E-06.
 Largest element of DIIS residual   :  0.91066316E-07.
 Perturbed amplitude equations converged in    17 iterations.
  Dominant contributions to perturbed wavefunction:
    7    7  140   28   0.2317043256 ABAB
    7    7   28  140   0.2317043256 ABAB
    7    7  140   39  -0.2203608729 ABAB
    7    7   39  140  -0.2203608729 ABAB
    7    7  140   44  -0.1958035273 ABAB
    7    7   44  140  -0.1958035273 ABAB
    7    7  140   22  -0.1955685810 ABAB
    7    7   22  140  -0.1955685810 ABAB
    7    7  140   54   0.1603783167 ABAB
    7    7   54  140   0.1603783167 ABAB
    7    7  140   29  -0.1514543151 ABAB
    7    7   29  140  -0.1514543151 ABAB
    7    7  140   57   0.1504601382 ABAB
    7    7   57  140   0.1504601382 ABAB
    7    6   28   89   0.1454107659 ABAB
    6    7   89   28   0.1454107659 ABAB
    7    0   35    0  -0.1446185665 AA  
    7    6   39   89  -0.1391897567 ABAB
    6    7   89   39  -0.1391897567 ABAB
    7    7  140   24  -0.1330927117 ABAB
  norm of converged amps    1.78252347082164     
 Starting iterative solution of the perturbed Lambda equations.
 The DIIS procedure is used to accelerate convergence.
 Convergence criterion is 10**(-7).
 Maximum number of iterations is 100.
 Convergence information after     1 iterations: 
 Largest element of residual vector :  0.72740311E-01.
 Largest element of DIIS residual   :  0.72740311E-01.
 Convergence information after     2 iterations: 
 Largest element of residual vector :  0.13238456E-01.
 Largest element of DIIS residual   :  0.98155387E-02.
 Convergence information after     3 iterations: 
 Largest element of residual vector : -0.63520598E-02.
 Largest element of DIIS residual   : -0.59382956E-02.
 Convergence information after     4 iterations: 
 Largest element of residual vector : -0.38861727E-02.
 Largest element of DIIS residual   : -0.34529176E-02.
 Convergence information after     5 iterations: 
 Largest element of residual vector : -0.30638781E-02.
 Largest element of DIIS residual   : -0.21592121E-02.
 Convergence information after     6 iterations: 
 Largest element of residual vector : -0.14124210E-02.
 Largest element of DIIS residual   : -0.62562759E-03.
 Convergence information after     7 iterations: 
 Largest element of residual vector : -0.63195021E-03.
 Largest element of DIIS residual   : -0.26909237E-03.
 Convergence information after     8 iterations: 
 Largest element of residual vector : -0.17866564E-03.
 Largest element of DIIS residual   : -0.11843281E-03.
 Convergence information after     9 iterations: 
 Largest element of residual vector : -0.72625370E-04.
 Largest element of DIIS residual   : -0.29682562E-04.
 Convergence information after    10 iterations: 
 Largest element of residual vector : -0.24477215E-04.
 Largest element of DIIS residual   : -0.11073817E-04.
 Convergence information after    11 iterations: 
 Largest element of residual vector : -0.50634649E-05.
 Largest element of DIIS residual   : -0.35558637E-05.
 Convergence information after    12 iterations: 
 Largest element of residual vector : -0.20538779E-05.
 Largest element of DIIS residual   : -0.14432849E-05.
 Convergence information after    13 iterations: 
 Largest element of residual vector : -0.13492758E-05.
 Largest element of DIIS residual   :  0.13091778E-05.
 Convergence information after    14 iterations: 
 Largest element of residual vector :  0.81144452E-06.
 Largest element of DIIS residual   :  0.61178028E-06.
 Convergence information after    15 iterations: 
 Largest element of residual vector :  0.66396484E-06.
 Largest element of DIIS residual   :  0.50806121E-06.
 Convergence information after    16 iterations: 
 Largest element of residual vector :  0.36566919E-06.
 Largest element of DIIS residual   :  0.20674392E-06.
 Convergence information after    17 iterations: 
 Largest element of residual vector :  0.20221862E-06.
 Largest element of DIIS residual   :  0.82089701E-07.
 Perturbed Lambda equations converged in    17 iterations.
  Dominant contributions to perturbed wavefunction:
    7    7  140   28   0.2025342012 ABAB
    7    7   28  140   0.2025342012 ABAB
    7    7  140   39  -0.1892344458 ABAB
    7    7   39  140  -0.1892344458 ABAB
    7    7  140   22  -0.1691055313 ABAB
    7    7   22  140  -0.1691055313 ABAB
    7    7  140   44  -0.1690281537 ABAB
    7    7   44  140  -0.1690281537 ABAB
    7    7  140   54   0.1403047910 ABAB
    7    7   54  140   0.1403047910 ABAB
    7    7  140   57   0.1288456343 ABAB
    7    7   57  140   0.1288456343 ABAB
    7    7  140   29  -0.1283300875 ABAB
    7    7   29  140  -0.1283300875 ABAB
    7    6   28   89   0.1250190765 ABAB
    6    7   89   28   0.1250190765 ABAB
    7    6   39   89  -0.1177018882 ABAB
    6    7   89   39  -0.1177018882 ABAB
    7    7  140   24  -0.1111146955 ABAB
    7    7   24  140  -0.1111146955 ABAB
        The DBOC first-order density matrix is being calculated 
             (Symmetry block 3, perturbation   2)
 term   3.43610775467316     
 final tnorm  0.826606238492041     
  norm contr. I: |<0|L dT/dx|0>|^2   0.000000000000000E+000
  norm contr. II: <0|[nabla(1+L)e-T][nabla e^T]|0>   3.43610775467316     
  total norm contribution   3.43610775467316     
 oo  8.196447637174838E-003
 vv  -25.7318361649107     
 vo  7.472029095628759E-002
  Correlated perturbed 1-el contribution to DBOC  -25.6489194263172       cm**-1
  SUM_I |dc_I/dx|^2 contribution to DBOC   12.9359478761277       cm**-1
 
 
  The total diagonal Born-Oppenheimer correction (DBOC) is:      0.0041402960 a.u.
  The total diagonal Born-Oppenheimer correction (DBOC) is:        908.689934 cm-1
 
 Total CC energy including DBOC  -113.134860833301     
 First-order density matrix is being calculated  (Symmetry block 3, perturbation   2)
 Calculation of the contributions of <pq||rs> to dI(i,j)/dx required   1.4 seconds.
 Calculation of the contributions of <pq||rs> to dI(a,b)/dx required  12.9 seconds.
 Calculation of the contributions of <pq||rs> to dI(i,a)/dx required   8.7 seconds.
 First-order Z-vector equations are solved for 1 perturbation.
 Convergence reached after  19 iterations.
        U*G(pq,rs) contribution is being calculated
             (Symmetry block 3, perturbation   2)

 CCSD contribution to force constants 

        0.0000000000        0.0000000000        0.0000000000
        0.0000000000        0.0000000000        0.0000000000
        0.0000000000        0.0000000000        0.0000000000
        0.0000000000        0.0000000000        0.0000000000
        0.0000000000        0.0000000000        0.0000000000
        0.0000000000        0.0000000000        0.0000000000
        0.0000000000        0.0000000000        0.0000000000
        0.0000000000        0.0000000000        0.0000000000
        0.0000000000        0.0000000000        0.0000000000
        0.0000000000        0.0000000000        0.0000000000
        0.0000000000        0.0000000000        0.0000000000
        0.0000000000       -1.7781068532        1.7781068532

 CCSD contribution to dipole derivatives 

        0.0000000000        0.0000000000        0.0000000000
        0.0000000000        0.0000000000        0.0000000000
        0.0000000000        0.0000000000        0.0000000000
        0.0000000000        0.0000000000       -0.0562794269
        0.0000000000        0.0000000000        0.0000000000
        0.0000000000        0.0000000000        0.0000000000
 @CHECKOUT-I, Total execution time (CPU/WALL):      962.77/     237.84 seconds.
--executable xsdcc finished with status     0 in      237.87 seconds (walltime).
 --invoking executable--
/nfs/workspaces/public/cfour_mpi/bin/xanti
 @GETMEM-I,  Allocated    3814 MB of main memory.
 CCSD MO derivative gammas will be sorted to Mulliken order.
 @CHECKOUT-I, Total execution time (CPU/WALL):        8.26/       9.54 seconds.
--executable xanti finished with status     0 in        9.57 seconds (walltime).
 --invoking executable--
/nfs/workspaces/public/cfour_mpi/bin/xbcktrn
 @GETMEM-I,  Allocated    3814 MB of main memory.
 CCSD MO derivative gammas will be transformed to the AO basis.
 @CHECKOUT-I, Total execution time (CPU/WALL):       16.19/       5.24 seconds.
--executable xbcktrn finished with status     0 in        5.27 seconds (walltime).
 --invoking executable--
/nfs/workspaces/public/cfour_mpi/bin/xvdint
 @GETMEM-I,  Allocated    3814 MB of main memory.
 One- and two-electron integral derivatives are calculated
 for RHF-CC/MBPT hessians and dipole derivatives.
 Spherical gaussians are used.
  magnet F F
                    8722  records have been written to the Sort file.
  Total length of Sort file :             178609116  words.
 Evaluation of 2el integral derivatives

                      Two-electron integral gradient
                      ------------------------------

                         C #1 z     0.0000000000
                         O #2 z     0.0000000000


 C #1       0.0000000000            0.0202417191            0.0000000000
 O #2       0.0000000000           -0.0202417191            0.0000000000


 Evaluation of 2e integral derivatives required  254.39 seconds.
  contribution to Hessian
        0.0000000000        0.0000000000        0.0000000000
        0.0000000000        0.0202417191       -0.0202417191
 @CHECKOUT-I, Total execution time (CPU/WALL):      254.38/      58.88 seconds.
--executable xvdint finished with status     0 in       58.91 seconds (walltime).
 --invoking executable--
/nfs/workspaces/public/cfour_mpi/bin/xanti
 @GETMEM-I,  Allocated    3814 MB of main memory.
 CCSD MO gammas will be sorted to Mulliken order.
 @CHECKOUT-I, Total execution time (CPU/WALL):       10.41/       9.00 seconds.
--executable xanti finished with status     0 in        9.03 seconds (walltime).
 --invoking executable--
/nfs/workspaces/public/cfour_mpi/bin/xbcktrn
 @GETMEM-I,  Allocated    3814 MB of main memory.
 CCSD MO gammas will be transformed to the AO basis.
 @CHECKOUT-I, Total execution time (CPU/WALL):       22.28/       3.69 seconds.
--executable xbcktrn finished with status     0 in        3.71 seconds (walltime).
 --invoking executable--
/nfs/workspaces/public/cfour_mpi/bin/xvdint
 @GETMEM-I,  Allocated    3814 MB of main memory.
 One- and two-electron integral derivatives are calculated
 for RHF-CC/MBPT hessians and dipole derivatives.
 Spherical gaussians are used.
  magnet F F

                     Kinetic energy integral gradient
                     --------------------------------

                         C #1 z    -0.6710900269
                         O #2 z     0.6710900269


 C #1       0.0000000000            0.0000000000           -0.6710900269
 O #2       0.0000000000            0.0000000000            0.6710900269



                   Nuclear attraction integral gradient
                   ------------------------------------

                         C #1 z    15.4337424363
                         O #2 z   -15.4337424363


 C #1       0.0000000000            0.0000000000           15.4337424363
 O #2       0.0000000000            0.0000000000          -15.4337424363



                      Reorthonormalization gradient
                      -----------------------------

                         C #1 z     0.0000000000
                         O #2 z     0.0000000000


 C #1       0.0000000000            0.0000000000            0.0000000000
 O #2       0.0000000000            0.0000000000            0.0000000000



                     Kinetic energy integral Hessian
                     -------------------------------


           Symmetry 1

           C #1 z      O #2 z

 C #1 z    0.693670
 O #2 z   -0.693670    0.693670


           Symmetry 2

           C #1 x      O #2 x

 C #1 x   -0.569425
 O #2 x    0.569425   -0.569425


           Symmetry 3

           C #1 y      O #2 y

 C #1 y   -0.569425
 O #2 y    0.569425   -0.569425




           C #1 x      C #1 y      C #1 z      O #2 x      O #2 y      O #2 z

 C #1 x   -0.569425
 C #1 y    0.000000   -0.569425
 C #1 z    0.000000    0.000000    0.693670

 O #2 x    0.569425    0.000000    0.000000   -0.569425
 O #2 y    0.000000    0.569425    0.000000    0.000000   -0.569425
 O #2 z    0.000000    0.000000   -0.693670    0.000000    0.000000    0.693670




                   Nuclear attraction integral Hessian
                   -----------------------------------


           Symmetry 1

           C #1 z      O #2 z

 C #1 z   -9.524320
 O #2 z    9.524320   -9.524320


           Symmetry 2

           C #1 x      O #2 x

 C #1 x    9.125344
 O #2 x   -9.125344    9.125344


           Symmetry 3

           C #1 y      O #2 y

 C #1 y    9.125344
 O #2 y   -9.125344    9.125344




           C #1 x      C #1 y      C #1 z      O #2 x      O #2 y      O #2 z

 C #1 x    9.125344
 C #1 y    0.000000    9.125344
 C #1 z    0.000000    0.000000   -9.524320

 O #2 x   -9.125344    0.000000    0.000000    9.125344
 O #2 y    0.000000   -9.125344    0.000000    0.000000    9.125344
 O #2 z    0.000000    0.000000    9.524320    0.000000    0.000000   -9.524320




                Highest order reorthonormalization Hessian
                ------------------------------------------


           Symmetry 1

           C #1 z      O #2 z

 C #1 z    0.000000
 O #2 z    0.000000    0.000000


           Symmetry 2

           C #1 x      O #2 x

 C #1 x    0.000000
 O #2 x    0.000000    0.000000


           Symmetry 3

           C #1 y      O #2 y

 C #1 y    0.000000
 O #2 y    0.000000    0.000000




           C #1 x      C #1 y      C #1 z      O #2 x      O #2 y      O #2 z




                Electronic contributions to dipole moment
                -----------------------------------------

                               au             Debye

                    z      0.38574321      0.98046160

  Conversion factor used: 1 a.u. =   2.54174691 Debye 



   Electronic contributions to static part of dipole moment derivatives
   --------------------------------------------------------------------


                     Total dipole moment derivatives
                     -------------------------------


           Symmetry 1
                              Ez

               C #1 z    -5.64483289
               O #2 z    -8.35516711

           Symmetry 2
                              Ex

               C #1 x    -5.67009747
               O #2 x    -8.32990253

           Symmetry 3
                              Ey

               C #1 y    -5.67009747
               O #2 y    -8.32990253



                       Ex          Ey          Ez

      C #1    x   -5.670097    0.000000    0.000000
      C #1    y    0.000000   -5.670097    0.000000
      C #1    z    0.000000    0.000000   -5.644833

      O #2    x   -8.329903    0.000000    0.000000
      O #2    y    0.000000   -8.329903    0.000000
      O #2    z    0.000000    0.000000   -8.355167

 Evaluation of 1e integral derivatives required    1.63 seconds.
                    8815  records have been written to the Sort file.
  Total length of Sort file :             180513570  words.
 Evaluation of 2el integral derivatives

                      Two-electron integral gradient
                      ------------------------------

                         C #1 z    -8.0666919395
                         O #2 z     8.0666919395


 C #1       0.0000000000            0.0000000000           -8.0666919395
 O #2       0.0000000000            0.0000000000            8.0666919395


 Evaluation of 2e integral derivatives required  541.32 seconds.

                            Molecular gradient
                            ------------------

                         C #1 z     0.6387617286
                         O #2 z    -0.6387617286


 C #1       0.0000000000            0.0000000000            0.6387617286
 O #2       0.0000000000            0.0000000000           -0.6387617286


  Molecular gradient norm 0.903E+00

                            Molecular hessian
                            -----------------


           Symmetry 1

           C #1 z      O #2 z

 C #1 z   23.121849
 O #2 z  -23.121849   23.121849


           Symmetry 2

           C #1 x      O #2 x

 C #1 x    2.029606
 O #2 x   -2.029606    2.029606


           Symmetry 3

           C #1 y      O #2 y

 C #1 y    2.029606
 O #2 y   -2.029606    2.029606




           C #1 x      C #1 y      C #1 z      O #2 x      O #2 y      O #2 z

 C #1 x    2.029606
 C #1 y    0.000000    2.029606
 C #1 z    0.000000    0.000000   23.121849

 O #2 x   -2.029606    0.000000    0.000000    2.029606
 O #2 y    0.000000   -2.029606    0.000000    0.000000    2.029606
 O #2 z    0.000000    0.000000  -23.121849    0.000000    0.000000   23.121849




                           Total dipole moment
                           -------------------

                               au             Debye

                    z      0.38267504      0.97266309

  Conversion factor used: 1 a.u. =   2.54174691 Debye 



                     Total dipole moment derivatives
                     -------------------------------


           Symmetry 1
                              Ez

               C #1 z     0.63504688
               O #2 z    -0.63504688

           Symmetry 2
                              Ex

               C #1 x     0.13973997
               O #2 x    -0.13973997

           Symmetry 3
                              Ey

               C #1 y     0.13973997
               O #2 y    -0.13973997



                       Ex          Ey          Ez

      C #1    x    0.139740    0.000000    0.000000
      C #1    y    0.000000    0.139740    0.000000
      C #1    z    0.000000    0.000000    0.635047

      O #2    x   -0.139740    0.000000    0.000000
      O #2    y    0.000000   -0.139740    0.000000
      O #2    z    0.000000    0.000000   -0.635047

 @CHECKOUT-I, Total execution time (CPU/WALL):      542.94/      95.12 seconds.
--executable xvdint finished with status     0 in       95.15 seconds (walltime).
 --invoking executable--
/nfs/workspaces/public/cfour_mpi/bin/xjoda
  @GTFLGS-I, Hessian will be transformed to curvilinear coordinates.
  @GTFLGS-I, Hessian will be transformed to curvilinear coordinates.
  igrd and ihes are                      0                     1
  gradient from JOBARC 
   0.000000000000000   0.000000000000000   0.638761728581293
   0.000000000000000   0.000000000000000  -0.638761728581293
 
  @PROJFCM-I, Projecting force constant matrix onto totally symmetric subspace.
  Largest difference between matrix elements of symmetrized
  and unsymmetrized FCM :     0.3185007813E-11.
  read isotopes from ZMAT file 
 
  Summary of diagonal Born-Oppenheimer correction at the correlated level
  The total diagonal Born-Oppenheimer correction (DBOC) is:      0.0041402960 a.u.
  The total diagonal Born-Oppenheimer correction (DBOC) is:        908.689934 cm-1
  The total diagonal Born-Oppenheimer correction (DBOC) is:            10.870 kJ/mole
  hellooooooo 
  readis is  F
 
 @CHECKOUT-I, Total execution time (CPU/WALL):        0.01/       0.01 seconds.
--executable xjoda finished with status     0 in        0.03 seconds (walltime).
  The final electronic energy is      -113.134860833300905 a.u. 
  This computation required                         2226.79 seconds (walltime).
