 --invoking executable--
/nfs/workspaces/public/cfour_mpi/bin/xjoda


   *************************************************************************
         <<<     CCCCCC     CCCCCC   |||     CCCCCC     CCCCCC   >>>
       <<<      CCC        CCC       |||    CCC        CCC         >>>
      <<<      CCC        CCC        |||   CCC        CCC            >>>
    <<<        CCC        CCC        |||   CCC        CCC              >>>
      <<<      CCC        CCC        |||   CCC        CCC            >>>
       <<<      CCC        CCC       |||    CCC        CCC         >>>
         <<<     CCCCCC     CCCCCC   |||     CCCCCC     CCCCCC   >>>
   *************************************************************************

     ****************************************************************
     * CFOUR Coupled-Cluster techniques for Computational Chemistry *
     ****************************************************************
 

   Department of Chemistry                Institut fuer Physikalische Chemie
   University of Florida                  Universitaet Mainz
   Gainesville, FL 32611, USA             D-55099 Mainz, Germany

   Department of Chemistry                Fakultaet fuer Chemie und Biowiss.
   Johns Hopkins University               Karlsruher Institut fuer Technologie
   Baltimore, MD 21218, USA               D-76131 Karlsruhe, Germany

   Department of Chemistry                Department of Physical Chemistry
   Southern Methodist University          Eotvos Lorand University
   Dallas, TX 75275, USA                  H-1053 Budapest, Hungary

 
                       Version 2.1
 
                     vincent.theory.phys.ucl.ac.uk                     
                     Mon 24 Feb 17:48:20 GMT 2025                      
                     integer*8 version is running
 
********************************************************************************
*                          Input from ZMAT file                                *
********************************************************************************
Carbon Monoxide DBOC calculation                                                
C                                                                               
O 1 r                                                                           
                                                                                
r=1.0241379310344827                                                            
                                                                                
                                                                                
*CFOUR(CALC=CCSD,BASIS=AUG-PCVQZ,SCF_CONV=10                                    
CC_CONV=14,DBOC=ON,MEMORY=500000000                                             
ZFIELD=200)                                                                     
                                                                                
%isotopes                                                                       
12                                                                              
16                                                                              
********************************************************************************
  @GTFLGS-I, Hessian will be transformed to curvilinear coordinates.
    -------------------------------------------------------------------
                    CFOUR Control Parameters 
    -------------------------------------------------------------------
        External           Internal           Value            Units
          Name               Name
    -------------------------------------------------------------------
       ABCDTYPE             IABCDT         STANDARD    [  0]    ***   
       ANHARMONIC           IANHAR         OFF         [  0]    ***   
       ANH_ALGORIT          IANALG         STANDARD    [  0]    ***   
       ANH_DERIVAT          IANDER         SECOND      [  1]    ***   
       ANH_MODE             ANHMOD         VIBRATION   [  0]    ***   
       ANH_STEPSIZ          ICUBST             50000          x 10-6  
       ANH_SYMMETR          IANHSM         ABELIAN     [  0]    ***   
       AO_LADDERS           IAOLAD         SINGLEPASS  [  1]    ***   
       AV_SCF               IAVSCF         OFF         [  0]    ***   
       BASIS                IBASIS         AUG-PCVQZ   [ 52]    ***   
       BOTHVECTORS          BOTHVC         OFF         [  0]    ***   
       BOX_POTENT           IPIAB          OFF         [  0]    ***   
       BREIT                IBREIT         OFF         [  0]    ***   
       BRUCK_CONV           IBRTOL          10D-  4             ***   
       BRUECKNER            IBRKNR         OFF         [  0]    ***   
       BUFFERSIZE           IBUFFS              4096            ***   
       CACHE_RECS           ICHREC             10               ***   
       CALCLEVEL            ICLLVL         CCSD        [ 10]    ***   
       CCORBOPT             ICCORB         OFF         [  0]  x 0.01  
       CC_CONV              ICCCNV          10D- 14             ***   
       CC_EXPORDER          ICCEOR              5               ***   
       CC_EXTRAPOL          ICCEXT         DIIS        [  1]    ***   
       CC_GUESS             ICCGES         MP2         [  0]    ***   
       CC_MAXCYC            ICCCYC            100              cycles 
       CC_PROGRAM           ICCPRO         VCC         [  0]    ***   
       CHARGE               ICHRGE              0               ***   
       CHOLESKY             ICHOLE         OFF         [  0]    ***   
       CIS_CONV             ICISTL              5               ***   
       COMM_SIZE            IPSIZE            ***               ***   
       CONSTANT             ICONST         OLD         [  1]    ***   
       CONTINUUM            ICONTU         NONE        [  0]    ***   
       CONTRACTION          ICNTYP         GENERAL     [  1]    ***   
       COORDINATES          ICOORD         INTERNAL    [  0]    ***   
       CPHF_CONVER          ICPHFT          10D- 16             ***   
       CPHF_MAXCYC          ICPHFC             64              cycles 
       CUBIC                ICUBIC         OFF         [  0]    ***   
       CURVILINEAR          ICURVY         ON          [  1]    ***   
       DBOC                 IDBOC          ON          [  1]    ***   
       DCT                  IDCT           OFF         [  0]    ***   
       DERIV_LEV            IDRLVL         SECOND      [  2]    ***   
       DEVMEM_SIZE          IDVMEM          50000000           MByte  
       DIAG_MRCC            IEOMST          10D-  0             ***   
       DIFF_TYPE            IDIFTY         RELAXED     [  0]    ***   
       DIRECT               IDIRCT         OFF         [  0]    ***   
       DROPMO               IDRPMO      NONE         
       ECP                  IECP           OFF         [  0]    ***   
       EIGENVECTOR          IVEC                1               ***   
       EL_ANHARM            IELANH         OFF         [  0]    ***   
       EOMFOLLOW            IEOMSR         ENERGY      [  0]    ***   
       EOMIP                IEOMIP         OFF         [  0]    ***   
       EOMLEVEL             HBARFM         SAME        [  0]    ***   
       EOM_MRCC             IMRCCE         NEW         [  1]    ***   
       EOM_NONIT            EOMNON         OFF         [  0]    ***   
       EOM_NSING            IEOMSI          10D-  0             ***   
       EOM_NSTATES          IMRCCD         DAVIDSON    [  0]    ***   
       EOM_NTRIP            IEOMTR          10D-  0             ***   
       EOM_ORDER            IEXORD         ENERGY      [  0]    ***   
       EOM_PROPSTA          IEOMST              0               ***   
       ESTATE_CONV          IEXTOL          10D-  5             ***   
       ESTATE_DIAG          IEXDIG         ITERATIVE   [  0]    ***   
       ESTATE_LOCK          IESLOC         ON          [  1]    ***   
       ESTATE_MAXC          IEXMXC             40               ***   
       ESTATE_PROP          IEXPRP         OFF         [  0]    ***   
       EVAL_HESS            IRECAL              0            # of cyc.
       EXCITATION           IEXCIT              0               ***   
       EXCITE               IEXCIT         NONE        [  0]    ***   
       EXTERN_POT           IEXPOT         OFF         [  0]    ***   
       FCGRADNEW            IFCGNW         OFF         [  0]    ***   
       FC_FIELD             IFINFC              0             x 10-6  
       FD_CALTYPE           IFDCAL         GRADONLY    [  0]    ***   
       FD_PROJECT           IFDPRJ         OFF         [  1]    ***   
       FD_STEPSIZE          IDISFD              0            10-4 bohr
       FD_USEGROUP          IFDGRP         FULL        [  0]    ***   
       FILE_RECSIZ          IFLREC              4096           words  
       FINITE_PERT          IFIPER              0             x 10-6  
       FIXGEOM              IFIXGM         OFF         [  0]    ***   
       FOCK                 IFOCK          AO          [  1]    ***   
       FREQ_ALGORI          IVIALG         STANDARD    [  0]    ***   
       FROZEN_CORE          IFROCO         OFF         [  0]    ***   
       GAMMA_ABCD           IGABCD         STORE       [  0]    ***   
       GAMMA_ABCI           IGABCI         STORE       [  0]    ***   
       GENBAS_1             IGNBS1              0               ***   
       GENBAS_2             IGNBS2              0               ***   
       GENBAS_3             IGNBS3              0               ***   
       GENBAS_4             IGNBS4              0               ***   
       GEO_CONV             ICONTL              5              H/bohr 
       GEO_MAXCYC           IOPTCY             50               ***   
       GEO_MAXSTEP          IMXSTP            300            millibohr
       GEO_METHOD           INR            SINGLE_POINT[  5]    ***   
       GIAO                 IGIAO          OFF         [  1]    ***   
       GIMIC                IGIMIC         OFF         [  0]    ***   
       GRID                 IGRID          OFF         [  0]    ***   
       GRID_ALGO            IGALGO         SERIAL      [  0]    ***   
       GUESS                IGUESS         MOREAD      [  0]    ***   
       HBAR                 IHBAR          OFF         [  0]    ***   
       HESS_TYPE            IHESTP         SCF         [  0]    ***   
       HF2_FILE             IHF2Fl         USE         [  1]    ***   
       HFSTABILITY          ISTABL         OFF         [  0]    ***   
       INCORE               INCORE         OFF         [  0]    ***   
       INPUT_MRCC           IMRCC          ON          [  1]    ***   
       INTEGRALS            INTTYP         VMOL        [  1]    ***   
       JODA_PRINT           IJPRNT              0               ***   
       KEYWORD_OUT          IDMPKW         NO          [  0]    ***   
       LINDEP_TOL           ILINDP              8               ***   
       LINEQ_CONV           IZTACN          10D-  7           cycles  
       LINEQ_EXPOR          ILMAXD              5               ***   
       LINEQ_MAXCY          ILMAXC            100               ***   
       LINEQ_TYPE           ILTYPE         DIIS        [  1]    ***   
       LOCK_ORBOCC          ILOCOC         OFF         [  0]    ***   
       MEMORY_SIZE          IMEMSZ         500000000           words  
       MEM_UNIT             IMEMU          INTEGERWORDS[  0]    ***   
       MRCC                 IMRCCC         OFF         [  0]    ***   
       MULTIPLICTY          IMULTP              1               ***   
       NACOUPLING           IVCOUP         OFF         [  0]    ***   
       NEGEVAL              IDIE           ABORT       [  0]    ***   
       NEWNORM              INEWNO         OFF         [  0]    ***   
       NON-HF               INONHF         OFF         [  0]    ***   
       NTOP_TAMP            ITOPT2             15               ***   
       NUC_MODEL            INUCMO         POINT       [  0]    ***   
       OCCUPATION           IOCCU   ESTIMATED BY SCF 
       OPEN-SHELL           IOPEN          SPIN-ORBITAL[  0]    ***   
       OPTVIB               IOPTVB         OFF         [  0]    ***   
       ORBITALS             IORBTP         STANDARD    [  0]    ***   
       PARALLEL             IPARAL         ON          [  1]    ***   
       PARA_INT             IPINTS         ON          [  1]    ***   
       PARA_PRINT           IPPRIN              0               ***   
       PERT_ORB             IPTORB         STANDARD    [  0]    ***   
       POINTS               IGRDFD              0               ***   
       PRINT                IPRNT               0               ***   
       PROPS                IPROPS         OFF         [  0]    ***   
       PROP_INTEGR          IINTYP         INTERNAL    [  0]    ***   
       PSI                  IPSI           OFF         [  0]    ***   
       QC_ALG               IQCALG         FLM         [  0]    ***   
       QC_LINALG            IQCLIN         TRIDIAG     [  2]    ***   
       QC_MAXCYC            IQCMAX          10D-100           cycles  
       QC_MAXSCFCY          IQCMSC          10D- 15           cycles  
       QC_RTRUST            IQCRTR          10D-  0           x 10-3  
       QC_SKIPSCF           IQCSKI         OFF         [  0]    ***   
       QC_START             IQCSTA          10D-  1             ***   
       QRHFGUESS            IQGUES         OFF         [  0]    ***   
       QUARTIC              IQUART         OFF         [  0]    ***   
       RAMAN_INT            IRAMIN         OFF         [  0]    ***   
       RAMAN_ORB            IRAMRE         UNRELAXED   [  0]    ***   
       RDO                  IRDOFM         ON          [  1]    ***   
       REDUCE_REPR          REDREP         Ir          [  0]    ***   
       REFERENCE            IREFNC         RHF         [  0]    ***   
       RELATIVIST           IRELAT         OFF         [  0]    ***   
       RELAX_DENS           IRDENS         ON          [  1]    ***   
       RESET_FLAGS          IRESET         OFF         [  0]    ***   
       RESTART_CC           ICCRES         OFF         [  0]    ***   
       ROT_EVEC             ROTVEC              0               ***   
       SAVE_INTS            ISVINT         OFF         [  0]    ***   
       SCALE_ON             ISTCRT              0               ***   
       SCF_CONV             ISCFCV          10D- 10             ***   
       SCF_DAMPING          IDAMP               0             x 10-3  
       SCF_EXPORDE          IRPPOR              6               ***   
       SCF_EXPSTAR          IRPPLS              8               ***   
       SCF_EXTRAPO          IRPP           ON          [  1]    ***   
       SCF_MAXCYC           ISCFCY            150              cycles 
       SCF_NOSTOP           ISCFST         OFF         [  0]    ***   
       SCF_PRINT            ISCFPR              0               ***   
       SCF_PROG             ISCFPR         SCF         [  0]    ***   
       SD_FIELD             IFINSD              0             x 10-6  
       SOPERT               IPERSO         OFF         [  0]    ***   
       SPHERICAL            IDFGHI         ON          [  1]    ***   
       SPINORBIT            ISOCAL         OFF         [  0]    ***   
       SPINROTATIO          ISRCON         OFF         [  0]    ***   
       SPIN_FLIP            ISPFLP         OFF         [  0]    ***   
       SPIN_ORBIT           ISPORB         OFF         [  0]    ***   
       SPIN_SCAL            ISCSMP         OFF         [  0]    ***   
       STEEPSCALE           ISTPSC              1000          x 10-3  
       SUBGROUP             ISUBGP         DEFAULT     [  0]    ***   
       SUBGRPAXIS           ISBXYZ         X           [  0]    ***   
       SYMMETRY             ISYM           ON          [  0]    ***   
       SYM_CHECK            ISYMCK         OVERRIDE    [  1]    ***   
       T3_EXTRAPOL          IT3EXT         OFF         [  0]    ***   
       T4_EXTRAPOL          IT4EXP         OFF         [  0]    ***   
       TAMP_SUM             IEVERY              5               ***   
       TESTSUITE            ITESTS         OFF         [  0]    ***   
       THERMOCH             ITHERM         OFF         [  0]    ***   
       TOL_CHOLESK          ITOLCH          10D-  4             ***   
       TRANGRAD             IRESRM         OFF         [  0]    ***   
       TRANS_INV            ITRAIN         IGNORE      [  1]    ***   
       TREAT_PERT           ITREAT         SIMULTANEOUS[  0]    ***   
       TRIP_ALGORI          ITRALG         NORMAL      [  0]    ***   
       UIJ_THRESHO          IUIJTH              1               ***   
       UNITS                IUNITS         ANGSTROM    [  0]    ***   
       UNOS                 IUNOS          OFF         [  0]    ***   
       UPDATE_HESS          IHUPDT         ON          [  1]    ***   
       VIBPHASE             ISETPH         STANDARD    [  0]    ***   
       VIBRATION            IVIB           ANALYTIC    [  1]    ***   
       VIB_ALGORIT          IGEALG         STANDARD    [  0]    ***   
       VNATORB              IVNORB         OFF         [  0]    ***   
       VTRAN                IVTRAN         FULL/PARTIAL[  0]    ***   
       XFIELD               IXEFLD              0             x 10-6  
       XFORM_TOL            IXFTOL          10D- 11             ***   
       YFIELD               IYEFLD              0             x 10-6  
       ZFIELD               IZEFLD            200             x 10-6  
       ZSCALE_EXP           IZEXPS         OFF         [  0]    ***   
    -------------------------------------------------------------------
   2 entries found in Z-matrix 
   Job Title : Carbon Monoxide DBOC calculation                                                
   There are  1 unique internal coordinates.
   Of these,  0 will be optimized.
   User supplied Z-matrix: 
--------------------------------------------------------------------------------
       SYMBOL    BOND      LENGTH    ANGLE     ANGLE     DIHED     ANGLE
                  TO      (ANGST)    WRT      (DEG)      WRT      (DEG)
--------------------------------------------------------------------------------
        C    
        O          1         r    
                  *Initial values for internal coordinates* 
                      Name             Value
                        r               1.0241379310
--------------------------------------------------------------------------------
  read isotopes from ZMAT file 
   Rotational constants (in cm-1): 
          2.3442052124             2.3442052124
   Rotational constants (in MHz): 
      70277.5141151080         70277.5141151080
********************************************************************************
   The full molecular point group is CXv .
   The largest Abelian subgroup of the full molecular point group is C2v .
   The computational point group is C2v .
********************************************************************************
--------------------------------------------------------------------------------
   Analysis of internal coordinates specified by Z-matrix 
--------------------------------------------------------------------------------
   *The nuclear repulsion energy is   24.801835797979798 a.u.
   *There is   1 degree of freedom within the tot. symm. molecular subspace.
   *Z-matrix requests optimization of   0 coordinates.
   *The optimization is constrained.
   *The following   1 parameters can have non-zero 
    derivatives within the totally symmetric subspace:
             r    [ 1]
   *The following   0 parameters are to be optimized:

   *The following coordinates must be varied in an  unconstrained optimization.
             r    [ 1]
--------------------------------------------------------------------------------


 ----------------------------------------------------------------
         Coordinates used in calculation (QCOMP) 
 ----------------------------------------------------------------
 Z-matrix   Atomic            Coordinates (in bohr)
  Symbol    Number           X              Y              Z
 ----------------------------------------------------------------
     C         6        -0.00000000     0.00000000     1.10575825
     O         8         0.00000000     0.00000000    -0.82958236
 ----------------------------------------------------------------
 
   Interatomic distance matrix (Angstroms) 
 
                 C             O    
                [ 1]        [ 2]
  C    [ 1]     0.00000
  O    [ 2]     1.02414     0.00000
 rotcon2
   Rotational constants (in cm-1): 
          2.3442052124             0.0000000000
   Rotational constants (in MHz): 
      70277.5141151080             0.0000000000
  ECPDATA file not present.   Using default ECPDATA. 
  @GTFLGS-I, Hessian will be transformed to curvilinear coordinates.
  There are  218 basis functions.
 @CHECKOUT-I, Total execution time (CPU/WALL):        0.11/       0.17 seconds.
--executable xjoda finished with status     0 in        0.19 seconds (walltime).
 --invoking executable--
/nfs/workspaces/public/cfour_mpi/bin/xvmol
 SERIAL VERSION OF MOLECULE STARTED
********************************************************************************
                    INPUT FROM MOL FILE
********************************************************************************
INTGRL        1    0    1    0    0    0    0    0    0                         
         *** CFOUR Program System (Release V0.1) ***                            
Carbon Monoxide DBOC calculation                                                
    2    2 X  Y       0.10E-08              0    0                              
   9999.00      3.00                                                            
          6.00000000    1    5    1    1    1    1    1                         
C #1  -0.000000000000000   0.000000000000000   1.105758250440064                
   16    9                                                                      
   33980.0000000000       9.100000000000000E-005 -1.900000000000000E-005        
  0.000000000000000E+000  0.000000000000000E+000  0.000000000000000E+000        
  0.000000000000000E+000  0.000000000000000E+000  0.000000000000000E+000        
  0.000000000000000E+000                                                        
   5089.00000000000       7.040000000000000E-004 -1.510000000000000E-004        
  0.000000000000000E+000  0.000000000000000E+000  0.000000000000000E+000        
  0.000000000000000E+000  0.000000000000000E+000  0.000000000000000E+000        
  0.000000000000000E+000                                                        
   1157.00000000000       3.693000000000000E-003 -7.850000000000000E-004        
  0.000000000000000E+000  0.000000000000000E+000  0.000000000000000E+000        
  0.000000000000000E+000  0.000000000000000E+000  0.000000000000000E+000        
  0.000000000000000E+000                                                        
   326.600000000000       1.536000000000000E-002 -3.324000000000000E-003        
  0.000000000000000E+000  0.000000000000000E+000  0.000000000000000E+000        
  0.000000000000000E+000  0.000000000000000E+000  0.000000000000000E+000        
  0.000000000000000E+000                                                        
   106.100000000000       5.292900000000000E-002 -1.151200000000000E-002        
  0.000000000000000E+000  0.000000000000000E+000  0.000000000000000E+000        
  0.000000000000000E+000  0.000000000000000E+000  0.000000000000000E+000        
  0.000000000000000E+000                                                        
   38.1100000000000       0.147043000000000      -3.416000000000000E-002        
  0.000000000000000E+000  0.000000000000000E+000  0.000000000000000E+000        
  0.000000000000000E+000  0.000000000000000E+000  0.000000000000000E+000        
  0.000000000000000E+000                                                        
   14.7500000000000       0.305631000000000      -7.717300000000001E-002        
  0.000000000000000E+000  0.000000000000000E+000  0.000000000000000E+000        
  0.000000000000000E+000  0.000000000000000E+000  0.000000000000000E+000        
  0.000000000000000E+000                                                        
   6.03500000000000       0.399345000000000      -0.141493000000000             
  0.000000000000000E+000  0.000000000000000E+000  0.000000000000000E+000        
  0.000000000000000E+000  0.000000000000000E+000  0.000000000000000E+000        
  0.000000000000000E+000                                                        
   2.53000000000000       0.217051000000000      -0.118019000000000             
  0.000000000000000E+000  0.000000000000000E+000  0.000000000000000E+000        
  0.000000000000000E+000  0.000000000000000E+000  0.000000000000000E+000        
  0.000000000000000E+000                                                        
  0.735500000000000       1.589400000000000E-002  0.273806000000000             
   1.00000000000000       0.000000000000000E+000  0.000000000000000E+000        
  0.000000000000000E+000  0.000000000000000E+000  0.000000000000000E+000        
  0.000000000000000E+000                                                        
  0.290500000000000      -3.084000000000000E-003  0.586510000000000             
  0.000000000000000E+000   1.00000000000000       0.000000000000000E+000        
  0.000000000000000E+000  0.000000000000000E+000  0.000000000000000E+000        
  0.000000000000000E+000                                                        
  0.111100000000000       9.779999999999999E-004  0.285430000000000             
  0.000000000000000E+000  0.000000000000000E+000   1.00000000000000             
  0.000000000000000E+000  0.000000000000000E+000  0.000000000000000E+000        
  0.000000000000000E+000                                                        
   7.21600000000000       0.000000000000000E+000  0.000000000000000E+000        
  0.000000000000000E+000  0.000000000000000E+000  0.000000000000000E+000        
   1.00000000000000       0.000000000000000E+000  0.000000000000000E+000        
  0.000000000000000E+000                                                        
   19.5700000000000       0.000000000000000E+000  0.000000000000000E+000        
  0.000000000000000E+000  0.000000000000000E+000  0.000000000000000E+000        
  0.000000000000000E+000   1.00000000000000       0.000000000000000E+000        
  0.000000000000000E+000                                                        
   53.0730000000000       0.000000000000000E+000  0.000000000000000E+000        
  0.000000000000000E+000  0.000000000000000E+000  0.000000000000000E+000        
  0.000000000000000E+000  0.000000000000000E+000   1.00000000000000             
  0.000000000000000E+000                                                        
  4.145000000000000E-002  0.000000000000000E+000  0.000000000000000E+000        
  0.000000000000000E+000  0.000000000000000E+000  0.000000000000000E+000        
  0.000000000000000E+000  0.000000000000000E+000  0.000000000000000E+000        
   1.00000000000000                                                             
   10    8                                                                      
   34.5100000000000       5.378000000000000E-003  0.000000000000000E+000        
  0.000000000000000E+000  0.000000000000000E+000  0.000000000000000E+000        
  0.000000000000000E+000  0.000000000000000E+000  0.000000000000000E+000        
   7.91500000000000       3.613200000000000E-002  0.000000000000000E+000        
  0.000000000000000E+000  0.000000000000000E+000  0.000000000000000E+000        
  0.000000000000000E+000  0.000000000000000E+000  0.000000000000000E+000        
   2.36800000000000       0.142493000000000       0.000000000000000E+000        
  0.000000000000000E+000  0.000000000000000E+000  0.000000000000000E+000        
  0.000000000000000E+000  0.000000000000000E+000  0.000000000000000E+000        
  0.813200000000000       0.342150000000000        1.00000000000000             
  0.000000000000000E+000  0.000000000000000E+000  0.000000000000000E+000        
  0.000000000000000E+000  0.000000000000000E+000  0.000000000000000E+000        
  0.289000000000000       0.463864000000000       0.000000000000000E+000        
   1.00000000000000       0.000000000000000E+000  0.000000000000000E+000        
  0.000000000000000E+000  0.000000000000000E+000  0.000000000000000E+000        
  0.100700000000000       0.250028000000000       0.000000000000000E+000        
  0.000000000000000E+000   1.00000000000000       0.000000000000000E+000        
  0.000000000000000E+000  0.000000000000000E+000  0.000000000000000E+000        
   8.18200000000000       0.000000000000000E+000  0.000000000000000E+000        
  0.000000000000000E+000  0.000000000000000E+000   1.00000000000000             
  0.000000000000000E+000  0.000000000000000E+000  0.000000000000000E+000        
   24.1860000000000       0.000000000000000E+000  0.000000000000000E+000        
  0.000000000000000E+000  0.000000000000000E+000  0.000000000000000E+000        
   1.00000000000000       0.000000000000000E+000  0.000000000000000E+000        
   71.4940000000000       0.000000000000000E+000  0.000000000000000E+000        
  0.000000000000000E+000  0.000000000000000E+000  0.000000000000000E+000        
  0.000000000000000E+000   1.00000000000000       0.000000000000000E+000        
  3.218000000000000E-002  0.000000000000000E+000  0.000000000000000E+000        
  0.000000000000000E+000  0.000000000000000E+000  0.000000000000000E+000        
  0.000000000000000E+000  0.000000000000000E+000   1.00000000000000             
    6    6                                                                      
   1.84800000000000        1.00000000000000       0.000000000000000E+000        
  0.000000000000000E+000  0.000000000000000E+000  0.000000000000000E+000        
  0.000000000000000E+000                                                        
  0.649000000000000       0.000000000000000E+000   1.00000000000000             
  0.000000000000000E+000  0.000000000000000E+000  0.000000000000000E+000        
  0.000000000000000E+000                                                        
  0.228000000000000       0.000000000000000E+000  0.000000000000000E+000        
   1.00000000000000       0.000000000000000E+000  0.000000000000000E+000        
  0.000000000000000E+000                                                        
   8.65600000000000       0.000000000000000E+000  0.000000000000000E+000        
  0.000000000000000E+000   1.00000000000000       0.000000000000000E+000        
  0.000000000000000E+000                                                        
   33.2130000000000       0.000000000000000E+000  0.000000000000000E+000        
  0.000000000000000E+000  0.000000000000000E+000   1.00000000000000             
  0.000000000000000E+000                                                        
  7.660000000000000E-002  0.000000000000000E+000  0.000000000000000E+000        
  0.000000000000000E+000  0.000000000000000E+000  0.000000000000000E+000        
   1.00000000000000                                                             
    4    4                                                                      
   1.41900000000000        1.00000000000000       0.000000000000000E+000        
  0.000000000000000E+000  0.000000000000000E+000                                
  0.485000000000000       0.000000000000000E+000   1.00000000000000             
  0.000000000000000E+000  0.000000000000000E+000                                
   24.6940000000000       0.000000000000000E+000  0.000000000000000E+000        
   1.00000000000000       0.000000000000000E+000                                
  0.187000000000000       0.000000000000000E+000  0.000000000000000E+000        
  0.000000000000000E+000   1.00000000000000                                     
    2    2                                                                      
   1.01100000000000        1.00000000000000       0.000000000000000E+000        
  0.424000000000000       0.000000000000000E+000   1.00000000000000             
          8.00000000    1    5    1    1    1    1    1                         
O #2   0.000000000000000   0.000000000000000  -0.829582358657501                
   16    9                                                                      
   61420.0000000000       9.000000000000001E-005 -2.000000000000000E-005        
  0.000000000000000E+000  0.000000000000000E+000  0.000000000000000E+000        
  0.000000000000000E+000  0.000000000000000E+000  0.000000000000000E+000        
  0.000000000000000E+000                                                        
   9199.00000000000       6.980000000000001E-004 -1.590000000000000E-004        
  0.000000000000000E+000  0.000000000000000E+000  0.000000000000000E+000        
  0.000000000000000E+000  0.000000000000000E+000  0.000000000000000E+000        
  0.000000000000000E+000                                                        
   2091.00000000000       3.664000000000000E-003 -8.290000000000000E-004        
  0.000000000000000E+000  0.000000000000000E+000  0.000000000000000E+000        
  0.000000000000000E+000  0.000000000000000E+000  0.000000000000000E+000        
  0.000000000000000E+000                                                        
   590.900000000000       1.521800000000000E-002 -3.508000000000000E-003        
  0.000000000000000E+000  0.000000000000000E+000  0.000000000000000E+000        
  0.000000000000000E+000  0.000000000000000E+000  0.000000000000000E+000        
  0.000000000000000E+000                                                        
   192.300000000000       5.242300000000000E-002 -1.215600000000000E-002        
  0.000000000000000E+000  0.000000000000000E+000  0.000000000000000E+000        
  0.000000000000000E+000  0.000000000000000E+000  0.000000000000000E+000        
  0.000000000000000E+000                                                        
   69.3200000000000       0.145921000000000      -3.626100000000000E-002        
  0.000000000000000E+000  0.000000000000000E+000  0.000000000000000E+000        
  0.000000000000000E+000  0.000000000000000E+000  0.000000000000000E+000        
  0.000000000000000E+000                                                        
   26.9700000000000       0.305258000000000      -8.299200000000000E-002        
  0.000000000000000E+000  0.000000000000000E+000  0.000000000000000E+000        
  0.000000000000000E+000  0.000000000000000E+000  0.000000000000000E+000        
  0.000000000000000E+000                                                        
   11.1000000000000       0.398508000000000      -0.152090000000000             
  0.000000000000000E+000  0.000000000000000E+000  0.000000000000000E+000        
  0.000000000000000E+000  0.000000000000000E+000  0.000000000000000E+000        
  0.000000000000000E+000                                                        
   4.68200000000000       0.216980000000000      -0.115331000000000             
  0.000000000000000E+000  0.000000000000000E+000  0.000000000000000E+000        
  0.000000000000000E+000  0.000000000000000E+000  0.000000000000000E+000        
  0.000000000000000E+000                                                        
   1.42800000000000       1.759400000000000E-002  0.288979000000000             
   1.00000000000000       0.000000000000000E+000  0.000000000000000E+000        
  0.000000000000000E+000  0.000000000000000E+000  0.000000000000000E+000        
  0.000000000000000E+000                                                        
  0.554700000000000      -2.502000000000000E-003  0.586128000000000             
  0.000000000000000E+000   1.00000000000000       0.000000000000000E+000        
  0.000000000000000E+000  0.000000000000000E+000  0.000000000000000E+000        
  0.000000000000000E+000                                                        
  0.206700000000000       9.540000000000000E-004  0.277624000000000             
  0.000000000000000E+000  0.000000000000000E+000   1.00000000000000             
  0.000000000000000E+000  0.000000000000000E+000  0.000000000000000E+000        
  0.000000000000000E+000                                                        
   12.9740000000000       0.000000000000000E+000  0.000000000000000E+000        
  0.000000000000000E+000  0.000000000000000E+000  0.000000000000000E+000        
   1.00000000000000       0.000000000000000E+000  0.000000000000000E+000        
  0.000000000000000E+000                                                        
   34.9000000000000       0.000000000000000E+000  0.000000000000000E+000        
  0.000000000000000E+000  0.000000000000000E+000  0.000000000000000E+000        
  0.000000000000000E+000   1.00000000000000       0.000000000000000E+000        
  0.000000000000000E+000                                                        
   93.8810000000000       0.000000000000000E+000  0.000000000000000E+000        
  0.000000000000000E+000  0.000000000000000E+000  0.000000000000000E+000        
  0.000000000000000E+000  0.000000000000000E+000   1.00000000000000             
  0.000000000000000E+000                                                        
  6.959000000000000E-002  0.000000000000000E+000  0.000000000000000E+000        
  0.000000000000000E+000  0.000000000000000E+000  0.000000000000000E+000        
  0.000000000000000E+000  0.000000000000000E+000  0.000000000000000E+000        
   1.00000000000000                                                             
   10    8                                                                      
   63.4200000000000       6.044000000000000E-003  0.000000000000000E+000        
  0.000000000000000E+000  0.000000000000000E+000  0.000000000000000E+000        
  0.000000000000000E+000  0.000000000000000E+000  0.000000000000000E+000        
   14.6600000000000       4.179900000000000E-002  0.000000000000000E+000        
  0.000000000000000E+000  0.000000000000000E+000  0.000000000000000E+000        
  0.000000000000000E+000  0.000000000000000E+000  0.000000000000000E+000        
   4.45900000000000       0.161143000000000       0.000000000000000E+000        
  0.000000000000000E+000  0.000000000000000E+000  0.000000000000000E+000        
  0.000000000000000E+000  0.000000000000000E+000  0.000000000000000E+000        
   1.53100000000000       0.356731000000000        1.00000000000000             
  0.000000000000000E+000  0.000000000000000E+000  0.000000000000000E+000        
  0.000000000000000E+000  0.000000000000000E+000  0.000000000000000E+000        
  0.530200000000000       0.448309000000000       0.000000000000000E+000        
   1.00000000000000       0.000000000000000E+000  0.000000000000000E+000        
  0.000000000000000E+000  0.000000000000000E+000  0.000000000000000E+000        
  0.175000000000000       0.244940000000000       0.000000000000000E+000        
  0.000000000000000E+000   1.00000000000000       0.000000000000000E+000        
  0.000000000000000E+000  0.000000000000000E+000  0.000000000000000E+000        
   14.4750000000000       0.000000000000000E+000  0.000000000000000E+000        
  0.000000000000000E+000  0.000000000000000E+000   1.00000000000000             
  0.000000000000000E+000  0.000000000000000E+000  0.000000000000000E+000        
   42.7300000000000       0.000000000000000E+000  0.000000000000000E+000        
  0.000000000000000E+000  0.000000000000000E+000  0.000000000000000E+000        
   1.00000000000000       0.000000000000000E+000  0.000000000000000E+000        
   126.140000000000       0.000000000000000E+000  0.000000000000000E+000        
  0.000000000000000E+000  0.000000000000000E+000  0.000000000000000E+000        
  0.000000000000000E+000   1.00000000000000       0.000000000000000E+000        
  5.348000000000000E-002  0.000000000000000E+000  0.000000000000000E+000        
  0.000000000000000E+000  0.000000000000000E+000  0.000000000000000E+000        
  0.000000000000000E+000  0.000000000000000E+000   1.00000000000000             
    6    6                                                                      
   3.77500000000000        1.00000000000000       0.000000000000000E+000        
  0.000000000000000E+000  0.000000000000000E+000  0.000000000000000E+000        
  0.000000000000000E+000                                                        
   1.30000000000000       0.000000000000000E+000   1.00000000000000             
  0.000000000000000E+000  0.000000000000000E+000  0.000000000000000E+000        
  0.000000000000000E+000                                                        
  0.444000000000000       0.000000000000000E+000  0.000000000000000E+000        
   1.00000000000000       0.000000000000000E+000  0.000000000000000E+000        
  0.000000000000000E+000                                                        
   14.9270000000000       0.000000000000000E+000  0.000000000000000E+000        
  0.000000000000000E+000   1.00000000000000       0.000000000000000E+000        
  0.000000000000000E+000                                                        
   57.5440000000000       0.000000000000000E+000  0.000000000000000E+000        
  0.000000000000000E+000  0.000000000000000E+000   1.00000000000000             
  0.000000000000000E+000                                                        
  0.154000000000000       0.000000000000000E+000  0.000000000000000E+000        
  0.000000000000000E+000  0.000000000000000E+000  0.000000000000000E+000        
   1.00000000000000                                                             
    4    4                                                                      
   2.66600000000000        1.00000000000000       0.000000000000000E+000        
  0.000000000000000E+000  0.000000000000000E+000                                
  0.859000000000000       0.000000000000000E+000   1.00000000000000             
  0.000000000000000E+000  0.000000000000000E+000                                
   26.4830000000000       0.000000000000000E+000  0.000000000000000E+000        
   1.00000000000000       0.000000000000000E+000                                
  0.324000000000000       0.000000000000000E+000  0.000000000000000E+000        
  0.000000000000000E+000   1.00000000000000                                     
    2    2                                                                      
   1.84600000000000        1.00000000000000       0.000000000000000E+000        
  0.714000000000000       0.000000000000000E+000   1.00000000000000             
FINISH                                                                          
 
********************************************************************************
 ONE- AND TWO-ELECTRON INTEGRALS OVER SYMMETRY-ADAPTED AOS ARE CALCULATED.

  SPHERICAL HARMONICS ARE USED.
  
  INTEGRALS LESS THAN  0.10E-13 ARE NEGLECTED.

  NUCLEAR REPULSION ENERGY :   24.8018357980 A.U.
  @MOLECU-I, ONE ELECTRON INTEGRALS (CPU/WALL):        0.06/       0.07 SECONDS.
  @TWOEL-I,    4650309 INTEGRALS OF SYMMETRY TYPE  I I I I
  @TWOEL-I,   19908623 INTEGRALS OF SYMMETRY TYPE  I J I J
  @TWOEL-I,   10499508 INTEGRALS OF SYMMETRY TYPE  I I J J
  @TWOEL-I,   14717233 INTEGRALS OF SYMMETRY TYPE  I J K L
  @TWOEL-I, TOTAL NUMBER OF 2-E INTEGRALS   49775673.
  @MOLECU-I, TWO ELECTRON INTEGRALS (CPU/WALL):      192.49/      27.49 SECONDS.
 @CHECKOUT-I, Total execution time (CPU/WALL):      192.57/      27.58 seconds.

Running with 14 threads/proc

--executable xvmol finished with status     0 in       27.61 seconds (walltime).
 --invoking executable--
/nfs/workspaces/public/cfour_mpi/bin/xvmol2ja
 @GETMEM-I,  Allocated    3814 MB of main memory.
 @CHECKOUT-I, Total execution time (CPU/WALL):        0.13/       0.09 seconds.
--executable xvmol2ja finished with status     0 in        0.11 seconds (walltime).
 --invoking executable--
/nfs/workspaces/public/cfour_mpi/bin/xvprop
 @GETMEM-I,  Allocated    3814 MB of main memory.
   Property integrals will be calculated.
    --------------------------------------------------------------
                                   Property evaluated at 
    Property type                X             Y             Z
    --------------------------------------------------------------
    Dipole moment               ----          ----          ----  
    Quadrupole moment           ----          ----          ----  
    Octopole moment             ----          ----          ----  
    Relativisitic corr.         ----          ----          ----  
    Second moment            0.0000000     0.0000000     0.0000000
    Electron density         0.0000000     0.0000000     1.1057583
    Electron density         0.0000000     0.0000000    -0.8295824
    Field gradient           0.0000000     0.0000000     1.1057583
    Field gradient           0.0000000     0.0000000    -0.8295824
    Potential                0.0000000     0.0000000     1.1057583
    Potential                0.0000000     0.0000000    -0.8295824
    --------------------------------------------------------------
 @CHECKOUT-I, Total execution time (CPU/WALL):        1.56/       1.59 seconds.
--executable xvprop finished with status     0 in        1.60 seconds (walltime).
 --invoking executable--
/nfs/workspaces/public/cfour_mpi/bin/xvscf
  There are  218 functions in the AO basis.

  There are 4 irreducible representations.

       Irrep        # of functions
         1                 86
         2                 52
         3                 52
         4                 28


  Parameters for SCF calculation: 
        SCF reference function:  RHF  
  Maximum number of iterations:  150
     Full symmetry point group: CXv 
     Computational point group: C2v 
        Initial density matrix: MOREAD                 
     SCF convergence tolerance: 10**(-10)
  DIIS convergence acceleration:  ON
          Latest start for DIIS:   8
                     DIIS order:   6

  Memory information:    2523578 words required.
  Fock matrices are constructed from AO integral file.
 @GETMEM-I,  Allocated      19 MB of main memory.
  Initialization and symmetry analysis required      0.001 seconds.

  Adding electric field perturbation to one-electron Hamiltonian.
  Field direction     : Z
  Field strength      :  0.0002000 a.u.

  @INITGES-I, Occupancies from core Hamiltonian:

          Alpha population by irrep:   5    1    1    0
           Beta population by irrep:   5    1    1    0


 total no. of electrons in initial guess :  0.000000000000000E+000
  --------------------------------------------------------------------
  Iteration         Total Energy            Largest Density Difference
  --------------------------------------------------------------------
       0            24.801836219853115              0.0000000000D+00
   current occupation vector 
     5  1  1  0
     5  1  1  0
       1           -90.842382410291449              0.1953671783D+02
   current occupation vector 
     5  1  1  0
     5  1  1  0
       2           -93.723522184194664              0.8476926556D+02
   current occupation vector 
     5  1  1  0
     5  1  1  0
       3          -103.250312486437920              0.8475133174D+02
   current occupation vector 
     5  1  1  0
     5  1  1  0
       4          -100.712911944148587              0.1201880704D+02
   current occupation vector 
     5  1  1  0
     5  1  1  0
       5          -105.109573004343602              0.1204067370D+02
   current occupation vector 
     5  1  1  0
     5  1  1  0
       6          -102.421632340591174              0.6527421229D+01
   current occupation vector 
     5  1  1  0
     5  1  1  0
       7          -104.247951824142334              0.6523447099D+01
   current occupation vector 
     5  1  1  0
     5  1  1  0
       8          -101.606868610711217              0.5298424779D+01
   current occupation vector 
     5  1  1  0
     5  1  1  0
       9          -111.483523885138553              0.3599005239D+01
   current occupation vector 
     5  1  1  0
     5  1  1  0
      10          -112.559513181608040              0.8834672181D+00
   current occupation vector 
     5  1  1  0
     5  1  1  0
      11          -112.768551506468825              0.3892474447D+00
   current occupation vector 
     5  1  1  0
     5  1  1  0
      12          -112.771166035135323              0.4769357855D-01
   current occupation vector 
     5  1  1  0
     5  1  1  0
      13          -112.771275732593793              0.1507186916D-01
   current occupation vector 
     5  1  1  0
     5  1  1  0
      14          -112.771285602139997              0.5169836794D-02
   current occupation vector 
     5  1  1  0
     5  1  1  0
      15          -112.771285764240233              0.4284008064D-03
   current occupation vector 
     5  1  1  0
     5  1  1  0
      16          -112.771285767143425              0.5074414474D-04
   current occupation vector 
     5  1  1  0
     5  1  1  0
      17          -112.771285767263990              0.1972114282D-04
   current occupation vector 
     5  1  1  0
     5  1  1  0
      18          -112.771285767270612              0.1687897758D-05
   current occupation vector 
     5  1  1  0
     5  1  1  0
      19          -112.771285767272545              0.6571578171D-06
   current occupation vector 
     5  1  1  0
     5  1  1  0
      20          -112.771285767271550              0.4414656629D-07
   current occupation vector 
     5  1  1  0
     5  1  1  0
      21          -112.771285767272062              0.1946598818D-07
   current occupation vector 
     5  1  1  0
     5  1  1  0
      22          -112.771285767272033              0.8503567184D-08
   current occupation vector 
     5  1  1  0
     5  1  1  0
      23          -112.771285767271436              0.6423341858D-09
   current occupation vector 
     5  1  1  0
     5  1  1  0
      24          -112.771285767271749              0.2959472389D-09
   current occupation vector 
     5  1  1  0
     5  1  1  0
      25          -112.771285767272431              0.1984870046D-09
   current occupation vector 
     5  1  1  0
     5  1  1  0
      26          -112.771285767270982              0.1465407795D-09
   current occupation vector 
     5  1  1  0
     5  1  1  0
      27          -112.771285767272005              0.4120329078D-09
   current occupation vector 
     5  1  1  0
     5  1  1  0
      28          -112.771285767271721              0.2499300211D-09
   current occupation vector 
     5  1  1  0
     5  1  1  0

  SCF has converged.

 Density matrix saved to file den.dat
 total electron number:   14.0000000000000     
     E(SCF)=      -112.771285767271777              0.7111106148D-10

  Eigenvector printing suppressed.

 @PUTMOS-I, Writing converged MOs to NEWMOS. 
 @PUTMOS-I, Symmetry   1 Full Blocks 21 Partial Blocksize   2
 @PUTMOS-I, Symmetry   2 Full Blocks 13 Partial Blocksize   0
 @PUTMOS-I, Symmetry   3 Full Blocks 13 Partial Blocksize   0
 @PUTMOS-I, Symmetry   4 Full Blocks  7 Partial Blocksize   0
 @PUTFOCK-I, Writing converged Fock matrix to NEWFOCK. 
 @PUTFOCK-I, Symmetry   1 Full Blocks 21 Partial Blocksize   2
 @PUTFOCK-I, Symmetry   2 Full Blocks 13 Partial Blocksize   0
 @PUTFOCK-I, Symmetry   3 Full Blocks 13 Partial Blocksize   0
 @PUTFOCK-I, Symmetry   4 Full Blocks  7 Partial Blocksize   0


 
  ORBITAL EIGENVALUES (ALPHA)  (1H = 27.2113834 eV)

       MO #        E(hartree)               E(eV)           FULLSYM    COMPSYM
       ----   --------------------   --------------------   -------   ---------
    1     1         -20.6586580690        -562.1506652444     SG+        A1 (1)
    2     2         -11.3123043265        -307.8234501657     SG+        A1 (1)
    3     3          -1.5957005697         -43.4212199946     SG+        A1 (1)
    4     4          -0.8139609707         -22.1490040461     SG+        A1 (1)
    5   139          -0.6899322903         -18.7740120707      PI        B2 (3)
    6    87          -0.6899322903         -18.7740120707      PI        B1 (2)
    7     5          -0.5404193518         -14.7055581798     SG+        A1 (1)
  +++++++++++++++++++++++++++++++++++++++++++++++++++++++++++++++++++++++++++++
    8     6           0.0577131433           1.5704544707     SG+        A1 (1)
    9    88           0.0650957229           1.7713446724      PI        B1 (2)
   10   140           0.0650957229           1.7713446724      PI        B2 (3)
   11     7           0.0773188302           2.1039523329     SG+        A1 (1)
   12   141           0.1538593804           4.1867265893      PI        B2 (3)
   13    89           0.1538593804           4.1867265893      PI        B1 (2)
   14     8           0.1558231636           4.2401638485     SG+        A1 (1)
   15    90           0.1831163662           4.9828496467      PI        B1 (2)
   16   142           0.1831163662           4.9828496467      PI        B2 (3)
   17     9           0.2270431904           6.1781593035     SG+        A1 (1)
   18    10           0.2280231314           6.2048248518      DE        A1 (1)
   19   191           0.2280231314           6.2048248518      DE        A2 (4)
   20    11           0.3025487440           8.2327698707     SG+        A1 (1)
   21   143           0.3337484133           9.0817560334      PI        B2 (3)
   22    91           0.3337484133           9.0817560334      PI        B1 (2)
   23    12           0.3960256523          10.7764058596     SG+        A1 (1)
   24   144           0.3998292019          10.8799057074      PI        B2 (3)
   25    92           0.3998292019          10.8799057074      PI        B1 (2)
   26    13           0.5076767297          13.8145861341     SG+        A1 (1)
   27    14           0.5267513135          14.3336319488      DE        A1 (1)
   28   192           0.5267513135          14.3336319488      DE        A2 (4)
   29   145           0.6193169588          16.8524712125      PI        B2 (3)
   30    93           0.6193169588          16.8524712125      PI        B1 (2)
   31    15           0.6609690134          17.9858812383     SG+        A1 (1)
   32    94           0.7503581610          20.4182836064      PH        B1 (2)
   33   146           0.7503581610          20.4182836064      PH        B2 (3)
   34   193           0.7709424823          20.9784114666      DE        A2 (4)
   35    16           0.7709424824          20.9784114666      DE        A1 (1)
   36    17           0.7860233426          21.3887825360     SG+        A1 (1)
   37   147           0.8372940352          22.7839290108      PI        B2 (3)
   38    95           0.8372940352          22.7839290108      PI        B1 (2)
   39   148           0.8740710047          23.7846812274      PI        B2 (3)
   40    96           0.8740710047          23.7846812274      PI        B1 (2)
   41    18           0.8765106212          23.8510665663     SG+        A1 (1)
   42    19           0.8994774094          24.4760246461      DE        A1 (1)
   43   194           0.8994774094          24.4760246461      DE        A2 (4)
   44    20           0.9493164428          25.8322136927     SG+        A1 (1)
   45   149           1.1039460767          30.0398999473      PI        B2 (3)
   46    97           1.1039460767          30.0398999473      PI        B1 (2)
   47    21           1.2908681291          35.1263075803     SG+        A1 (1)
   48    98           1.4546793468          39.5838374311      PH        B1 (2)
   49   150           1.4546793468          39.5838374311      PH        B2 (3)
   50   195           1.5033128017          40.9072210161      DE        A2 (4)
   51    22           1.5033128017          40.9072210161      DE        A1 (1)
   52    23           1.5294778930          41.6192093475     SG+        A1 (1)
   53   151           1.5365029837          41.8103717836      PI        B2 (3)
   54    99           1.5365029837          41.8103717836      PI        B1 (2)
   55    24           1.6567519677          45.0825129921     SG+        A1 (1)
   56    25           1.7524893920          47.6876607503     SG+        A1 (1)
   57   196           1.7764088088          48.3385411702      DE        A2 (4)
   58    26           1.7764088088          48.3385411703      DE        A1 (1)
   59   152           1.8692592008          50.8651287867      PI        B2 (3)
   60   100           1.8692592008          50.8651287867      PI        B1 (2)
   61   153           1.9515911080          53.1054938809      PI        B2 (3)
   62   101           1.9515911080          53.1054938809      PI        B1 (2)
   63   197           2.1122102213          57.4761621529      PI        A2 (4)
   64    27           2.1122102213          57.4761621529      PI        A1 (1)
   65    28           2.1980146430          59.8110191695     SG+        A1 (1)
   66   198           2.2199482891          60.4078640222      DE        A2 (4)
   67    29           2.2199482891          60.4078640222      DE        A1 (1)
   68   154           2.2600343405          61.4986609353      PH        B2 (3)
   69   102           2.2600343405          61.4986609353      PH        B1 (2)
   70    30           2.3308543577          63.4257715773     SG+        A1 (1)
   71   155           2.3450816768          63.8129166105      PI        B2 (3)
   72   103           2.3450816768          63.8129166105      PI        B1 (2)
   73    31           2.3801073108          64.7660125663      DE        A1 (1)
   74   199           2.3801073108          64.7660125663      DE        A2 (4)
   75   104           2.4031088747          65.3919169417      PH        B1 (2)
   76   156           2.4031088747          65.3919169417      PH        B2 (3)
   77    32           2.5368462974          69.0310972255     SG+        A1 (1)
   78   157           2.6103116515          71.0301911434      PI        B2 (3)
   79   105           2.6103116515          71.0301911434      PI        B1 (2)
   80   158           2.9452269751          80.1437004187      PI        B2 (3)
   81   106           2.9452269751          80.1437004187      PI        B1 (2)
   82    33           3.0818573039          83.8616006803     SG+        A1 (1)
   83   200           3.0938211831          84.1871543855      DE        A2 (4)
   84    34           3.0938211832          84.1871543857      DE        A1 (1)
   85    35           3.4206558961          93.0807790680     SG+        A1 (1)
   86    36           3.7480384815         101.9893121187      PI        A1 (1)
   87   201           3.7480384815         101.9893121187      PI        A2 (4)
   88   159           3.7614912874         102.3553815771      PI        B2 (3)
   89   107           3.7614912874         102.3553815771      PI        B1 (2)
   90    37           3.9811655645         108.3330225533     SG+        A1 (1)
   91   108           4.0714104710         110.7887113060      PH        B1 (2)
   92   160           4.0714104710         110.7887113060      PH        B2 (3)
   93   202           4.1775579887         113.6771321054      DE        A2 (4)
   94    38           4.1775579887         113.6771321054      DE        A1 (1)
   95   161           4.2101610057         114.5643053025      PI        B2 (3)
   96   109           4.2101610057         114.5643053025      PI        B1 (2)
   97    39           4.3092363063         117.2602812932     SG+        A1 (1)
   98   110           4.4062833506         119.9010656211      PH        B1 (2)
   99   162           4.4062833506         119.9010656211      PH        B2 (3)
  100   203           4.4279720096         120.4912440382      DE        A2 (4)
  101    40           4.4279720096         120.4912440383      DE        A1 (1)
  102    41           4.6730110928         127.1590964776     SG+        A1 (1)
  103   163           4.8131464101         130.9723723258      PI        B2 (3)
  104   111           4.8131464101         130.9723723259      PI        B1 (2)
  105    42           4.9863732299         135.6861137334     SG+        A1 (1)
  106   204           5.1941344710         141.3395845211      DE        A2 (4)
  107    43           5.1941344710         141.3395845215      DE        A1 (1)
  108   112           5.2702017489         143.4094803845      PI        B1 (2)
  109   164           5.2702017489         143.4094803845      PI        B2 (3)
  110    44           5.9171676577         161.0143177765      PI        A1 (1)
  111   205           5.9171676577         161.0143177765      PI        A2 (4)
  112   113           5.9321400603         161.4217375624      PI        B1 (2)
  113   165           5.9321400603         161.4217375625      PI        B2 (3)
  114    45           6.1684990703         167.8533932050     SG+        A1 (1)
  115    46           6.2290256271         169.5004045477     SG+        A1 (1)
  116   114           6.2469058843         169.9869510814      PH        B1 (2)
  117   166           6.2469058843         169.9869510814      PH        B2 (3)
  118    47           6.3291723226         172.2255346752      DE        A1 (1)
  119   206           6.3291723226         172.2255346753      DE        A2 (4)
  120   167           6.3648542329         173.1964888155      PI        B2 (3)
  121   115           6.3648542329         173.1964888155      PI        B1 (2)
  122   168           6.4741886607         176.1716298509      PH        B2 (3)
  123   116           6.4741886607         176.1716298509      PH        B1 (2)
  124    48           6.6735287719         181.5959500437      DE        A1 (1)
  125   207           6.6735287719         181.5959500437      DE        A2 (4)
  126    49           7.1356808572         194.1717476265     SG+        A1 (1)
  127   169           7.7634202760         211.2534056251      PI        B2 (3)
  128   117           7.7634202760         211.2534056252      PI        B1 (2)
  129   208           7.7875777455         211.9107637898      DE        A2 (4)
  130    50           7.7875777455         211.9107637899      DE        A1 (1)
  131    51           8.1497490486         221.7659459749     SG+        A1 (1)
  132    52           8.6496860121         235.3699223642     SG+        A1 (1)
  133   170           8.7995293686         239.4473673887      PI        B2 (3)
  134   118           8.7995293686         239.4473673887      PI        B1 (2)
  135    53          10.0360124429         273.0937823920     SG+        A1 (1)
  136   119          10.1348555877         275.7834411007      PI        B1 (2)
  137   171          10.1348555877         275.7834411008      PI        B2 (3)
  138   209          10.6013183403         288.4765379044      PI        A2 (4)
  139    54          10.6013183403         288.4765379044      PI        A1 (1)
  140   172          10.9718160895         298.5582942053      PH        B2 (3)
  141   120          10.9718160895         298.5582942053      PH        B1 (2)
  142   210          11.2570189853         306.3190595493      DE        A2 (4)
  143    55          11.2570189853         306.3190595493      DE        A1 (1)
  144    56          11.2968534989         307.4030117719     SG+        A1 (1)
  145   173          11.4214536694         310.7935547831      PI        B2 (3)
  146   121          11.4214536694         310.7935547831      PI        B1 (2)
  147   122          11.8611421683         322.7580871043      PH        B1 (2)
  148   174          11.8611421683         322.7580871043      PH        B2 (3)
  149    57          12.3110993992         335.0020458275     SG+        A1 (1)
  150    58          12.3995057918         337.4077060700      DE        A1 (1)
  151   211          12.3995057918         337.4077060700      DE        A2 (4)
  152   123          12.9288019600         351.8105870359      PI        B1 (2)
  153   175          12.9288019600         351.8105870360      PI        B2 (3)
  154   212          12.9941385247         353.5884853493      DE        A2 (4)
  155    59          12.9941385247         353.5884853493      DE        A1 (1)
  156    60          13.8183164276         376.0155062531     SG+        A1 (1)
  157   176          14.7826537616         402.2564591755      PI        B2 (3)
  158   124          14.7826537616         402.2564591756      PI        B1 (2)
  159    61          15.7974622380         429.8708017053     SG+        A1 (1)
  160    62          18.4186150514         501.1959958617     SG+        A1 (1)
  161   125          19.5922133303         533.1312285864      PI        B1 (2)
  162   177          19.5922133304         533.1312285872      PI        B2 (3)
  163    63          21.1605318500         575.8073451182     SG+        A1 (1)
  164    64          26.6631454391         725.5410731944      DE        A1 (1)
  165   213          26.6631454391         725.5410731945      DE        A2 (4)
  166   126          27.4048113639         745.7228290272      PI        B1 (2)
  167   178          27.4048113639         745.7228290272      PI        B2 (3)
  168    65          28.6777133448         780.3602528619     SG+        A1 (1)
  169   127          33.8807208873         921.9412859314      PI        B1 (2)
  170   179          33.8807208873         921.9412859317      PI        B2 (3)
  171    66          35.5322850712         966.8826321504     SG+        A1 (1)
  172    67          37.3223682805        1015.5932726757     SG+        A1 (1)
  173   214          47.1674002702        1283.4902127343      DE        A2 (4)
  174    68          47.1674002702        1283.4902127344      DE        A1 (1)
  175   180          48.0232297943        1306.7785180395      PI        B2 (3)
  176   128          48.0232297943        1306.7785180396      PI        B1 (2)
  177    69          48.7532297704        1326.6428272709     SG+        A1 (1)
  178    70          64.5622163583        1756.8272224795     SG+        A1 (1)
  179   129          67.0225197099        1823.7754802600      PI        B1 (2)
  180   181          67.0225197099        1823.7754802606      PI        B2 (3)
  181    71          68.1859634629        1855.4343942866     SG+        A1 (1)
  182   130          98.7312597769        2686.6141633529      PH        B1 (2)
  183   182          98.7312597769        2686.6141633530      PH        B2 (3)
  184   215          98.7674357965        2687.5985628924      DE        A2 (4)
  185    72          98.7674357965        2687.5985628924      DE        A1 (1)
  186   183          98.8415627893        2689.6156609158      PI        B2 (3)
  187   131          98.8415627893        2689.6156609158      PI        B1 (2)
  188    73          98.8672152031        2690.3136985816     SG+        A1 (1)
  189   132         103.2923879691        2810.7287713278      PH        B1 (2)
  190   184         103.2923879691        2810.7287713279      PH        B2 (3)
  191   216         103.3564557098        2812.4721431839      DE        A2 (4)
  192    74         103.3564557098        2812.4721431846      DE        A1 (1)
  193   133         103.4023699194        2813.7215323460      PI        B1 (2)
  194   185         103.4023699194        2813.7215323460      PI        B2 (3)
  195    75         103.4918542205        2816.1565239714     SG+        A1 (1)
  196   217         115.2844410449        3137.0491253280      DE        A2 (4)
  197    76         115.2844410449        3137.0491253280      DE        A1 (1)
  198   186         115.6446539310        3146.8510162764      PI        B2 (3)
  199   134         115.6446539310        3146.8510162764      PI        B1 (2)
  200    77         116.1974575580        3161.8935677166     SG+        A1 (1)
  201   135         117.1180144233        3186.9431935191      PI        B1 (2)
  202   187         117.1180144233        3186.9431935192      PI        B2 (3)
  203    78         118.7000736857        3229.9932146702     SG+        A1 (1)
  204    79         123.2104321674        3352.7263085870     SG+        A1 (1)
  205   218         198.6120585258        5404.5088724101      DE        A2 (4)
  206    80         198.6120585259        5404.5088724101      DE        A1 (1)
  207   136         199.0819659804        5417.2957043174      PI        B1 (2)
  208   188         199.0819659804        5417.2957043174      PI        B2 (3)
  209    81         199.4740685594        5427.9653579288     SG+        A1 (1)
  210    82         217.0027145550        5904.9440645964     SG+        A1 (1)
  211   137         225.4206651507        6134.0081456999      PI        B1 (2)
  212   189         225.4206651508        6134.0081457003      PI        B2 (3)
  213    83         226.3618065619        6159.6179054714     SG+        A1 (1)
  214   138         395.5631545829       10763.8206582674      PI        B1 (2)
  215   190         395.5631545829       10763.8206582679      PI        B2 (3)
  216    84         396.7423528358       10795.9082740340     SG+        A1 (1)
  217    85         509.6599401287       13868.5520344622     SG+        A1 (1)
  218    86         895.8486303298       24377.2805482682     SG+        A1 (1)


  VSCF finished.

 @CHECKOUT-I, Total execution time (CPU/WALL):       51.22/      11.08 seconds.
--executable xvscf finished with status     0 in       11.10 seconds (walltime).
 --invoking executable--
/nfs/workspaces/public/cfour_mpi/bin/xvtran
 @GETMEM-I,  Allocated    3814 MB of main memory.
  Full RHF integral transformation
  Transformation of IIII integrals :
  1 pass through the AO integral file was required.
     4650309 AO integrals were read.
     8847006 MO integrals were written to HF2.
  Transformation of IIJJ integrals :
  1 pass through the AO integral file was required.
    10499508 AO integrals were read.
    14668243 MO integrals were written to HF2.
  Transformation of IJIJ integrals :
  1 pass through the AO integral file was required.
    19908623 AO integrals were read.
    27636572 MO integrals were written to HF2.
  Transformation of IJKL integrals :
  1 pass through the AO integral file was required.
    14717233 AO integrals were read.
    18669375 MO integrals were written to HF2.
  Summary of active molecular orbitals: 
------------------------------------------------------------------------
 
  Index      Eigenvalue    Symmetry    Index      Eigenvalue    Symmetry
------------------------------------------------------------------------
     1       -20.6586581        1       110         4.2101610        2
     2       -11.3123043        1       111         4.4062834        2
     3        -1.5957006        1       112         4.8131464        2
     4        -0.8139610        1       113         5.2702017        2
     5        -0.5404194        1       114         5.9321401        2
     6        -0.6899323        2       115         6.2469059        2
     7        -0.6899323        3       116         6.3648542        2
     8         0.0577131        1       117         6.4741887        2
     9         0.0773188        1       118         7.7634203        2
    10         0.1558232        1       119         8.7995294        2
    11         0.2270432        1       120        10.1348556        2
    12         0.2280231        1       121        10.9718161        2
    13         0.3025487        1       122        11.4214537        2
    14         0.3960257        1       123        11.8611422        2
    15         0.5076767        1       124        12.9288020        2
    16         0.5267513        1       125        14.7826538        2
    17         0.6609690        1       126        19.5922133        2
    18         0.7709425        1       127        27.4048114        2
    19         0.7860233        1       128        33.8807209        2
    20         0.8765106        1       129        48.0232298        2
    21         0.8994774        1       130        67.0225197        2
    22         0.9493164        1       131        98.7312598        2
    23         1.2908681        1       132        98.8415628        2
    24         1.5033128        1       133       103.2923880        2
    25         1.5294779        1       134       103.4023699        2
    26         1.6567520        1       135       115.6446539        2
    27         1.7524894        1       136       117.1180144        2
    28         1.7764088        1       137       199.0819660        2
    29         2.1122102        1       138       225.4206652        2
    30         2.1980146        1       139       395.5631546        2
    31         2.2199483        1       140         0.0650957        3
    32         2.3308544        1       141         0.1538594        3
    33         2.3801073        1       142         0.1831164        3
    34         2.5368463        1       143         0.3337484        3
    35         3.0818573        1       144         0.3998292        3
    36         3.0938212        1       145         0.6193170        3
    37         3.4206559        1       146         0.7503582        3
    38         3.7480385        1       147         0.8372940        3
    39         3.9811656        1       148         0.8740710        3
    40         4.1775580        1       149         1.1039461        3
    41         4.3092363        1       150         1.4546793        3
    42         4.4279720        1       151         1.5365030        3
    43         4.6730111        1       152         1.8692592        3
    44         4.9863732        1       153         1.9515911        3
    45         5.1941345        1       154         2.2600343        3
    46         5.9171677        1       155         2.3450817        3
    47         6.1684991        1       156         2.4031089        3
    48         6.2290256        1       157         2.6103117        3
    49         6.3291723        1       158         2.9452270        3
    50         6.6735288        1       159         3.7614913        3
    51         7.1356809        1       160         4.0714105        3
    52         7.7875777        1       161         4.2101610        3
    53         8.1497490        1       162         4.4062834        3
    54         8.6496860        1       163         4.8131464        3
    55        10.0360124        1       164         5.2702017        3
    56        10.6013183        1       165         5.9321401        3
    57        11.2570190        1       166         6.2469059        3
    58        11.2968535        1       167         6.3648542        3
    59        12.3110994        1       168         6.4741887        3
    60        12.3995058        1       169         7.7634203        3
    61        12.9941385        1       170         8.7995294        3
    62        13.8183164        1       171        10.1348556        3
    63        15.7974622        1       172        10.9718161        3
    64        18.4186151        1       173        11.4214537        3
    65        21.1605318        1       174        11.8611422        3
    66        26.6631454        1       175        12.9288020        3
    67        28.6777133        1       176        14.7826538        3
    68        35.5322851        1       177        19.5922133        3
    69        37.3223683        1       178        27.4048114        3
    70        47.1674003        1       179        33.8807209        3
    71        48.7532298        1       180        48.0232298        3
    72        64.5622164        1       181        67.0225197        3
    73        68.1859635        1       182        98.7312598        3
    74        98.7674358        1       183        98.8415628        3
    75        98.8672152        1       184       103.2923880        3
    76       103.3564557        1       185       103.4023699        3
    77       103.4918542        1       186       115.6446539        3
    78       115.2844410        1       187       117.1180144        3
    79       116.1974576        1       188       199.0819660        3
    80       118.7000737        1       189       225.4206652        3
    81       123.2104322        1       190       395.5631546        3
    82       198.6120585        1       191         0.2280231        4
    83       199.4740686        1       192         0.5267513        4
    84       217.0027146        1       193         0.7709425        4
    85       226.3618066        1       194         0.8994774        4
    86       396.7423528        1       195         1.5033128        4
    87       509.6599401        1       196         1.7764088        4
    88       895.8486303        1       197         2.1122102        4
    89         0.0650957        2       198         2.2199483        4
    90         0.1538594        2       199         2.3801073        4
    91         0.1831164        2       200         3.0938212        4
    92         0.3337484        2       201         3.7480385        4
    93         0.3998292        2       202         4.1775580        4
    94         0.6193170        2       203         4.4279720        4
    95         0.7503582        2       204         5.1941345        4
    96         0.8372940        2       205         5.9171677        4
    97         0.8740710        2       206         6.3291723        4
    98         1.1039461        2       207         6.6735288        4
    99         1.4546793        2       208         7.7875777        4
   100         1.5365030        2       209        10.6013183        4
   101         1.8692592        2       210        11.2570190        4
   102         1.9515911        2       211        12.3995058        4
   103         2.2600343        2       212        12.9941385        4
   104         2.3450817        2       213        26.6631454        4
   105         2.4031089        2       214        47.1674003        4
   106         2.6103117        2       215        98.7674358        4
   107         2.9452270        2       216       103.3564557        4
   108         3.7614913        2       217       115.2844410        4
   109         4.0714105        2       218       198.6120585        4
------------------------------------------------------------------------
  -20.6586580689744       -11.3123043264925       -1.59570056973281     
 -0.813960970692369      -0.540419351844305      -0.689932290275404     
 -0.689932290275414       5.771314334130515E-002  7.731883020879775E-002
  0.155823163642902       0.227043190441598       0.228023131369284     
  0.302548744017838       0.396025652250573       0.507676729663034     
  0.526751313525670       0.660969013368241       0.770942482350071     
  0.786023342569824       0.876510621150467       0.899477409372245     
  0.949316442789840        1.29086812911834        1.50331280165933     
   1.52947789297325        1.65675196771037        1.75248939200507     
   1.77640880875982        2.11221022128796        2.19801464300159     
   2.21994828907567        2.33085435771276        2.38010731076189     
   2.53684629740212        3.08185730389166        3.09382118315050     
   3.42065589609079        3.74803848152370        3.98116556445669     
   4.17755798866743        4.30923630634726        4.42797200962061     
   4.67301109276023        4.98637322986624        5.19413447099856     
   5.91716765772779        6.16849907031751        6.22902562710950     
   6.32917232261148        6.67352877192143        7.13568085724394     
   7.78757774549098        8.14974904858907        8.64968601207431     
   10.0360124429401        10.6013183403379        11.2570189852727     
   11.2968534988897        12.3110993992119        12.3995057917547     
[...]
 Convergence information after     8 iterations: 
 Largest element of residual vector : -0.20027802E-04.
 Largest element of DIIS residual   :  0.14845980E-04.
 Convergence information after     9 iterations: 
 Largest element of residual vector :  0.69593123E-05.
 Largest element of DIIS residual   :  0.35249417E-05.
 Convergence information after    10 iterations: 
 Largest element of residual vector :  0.28817434E-05.
 Largest element of DIIS residual   :  0.17763879E-05.
 Convergence information after    11 iterations: 
 Largest element of residual vector :  0.88937810E-06.
 Largest element of DIIS residual   :  0.44857503E-06.
 Convergence information after    12 iterations: 
 Largest element of residual vector :  0.37363446E-06.
 Largest element of DIIS residual   :  0.23547148E-06.
 Convergence information after    13 iterations: 
 Largest element of residual vector :  0.15232337E-06.
 Largest element of DIIS residual   :  0.13630313E-06.
 Convergence information after    14 iterations: 
 Largest element of residual vector :  0.97301815E-07.
 Largest element of DIIS residual   :  0.68673050E-07.
 Perturbed amplitude equations converged in    14 iterations.
  Dominant contributions to perturbed wavefunction:
    7    7  142   37   0.2595484266 ABAB
    7    7   37  142   0.2595484266 ABAB
    7    7  142   27   0.2193944435 ABAB
    7    7   27  142   0.2193944435 ABAB
    7    7  142   63   0.2053319243 ABAB
    7    7   63  142   0.2053319243 ABAB
    7    7  142   55   0.1892431375 ABAB
    7    7   55  142   0.1892431375 ABAB
    7    7  142   47   0.1802074494 ABAB
    7    7   47  142   0.1802074494 ABAB
    7    6   37   91   0.1764819099 ABAB
    6    7   91   37   0.1764819099 ABAB
    7    7  142   51  -0.1497108730 ABAB
    7    7   51  142  -0.1497108730 ABAB
    7    6   27   91   0.1485782915 ABAB
    6    7   91   27   0.1485782915 ABAB
    7    7  143   37   0.1451936547 ABAB
    7    7   37  143   0.1451936547 ABAB
    7    7  142   43   0.1409906194 ABAB
    7    7   43  142   0.1409906194 ABAB
  norm of converged amps    2.74680321867768     
 Starting iterative solution of the perturbed Lambda equations.
 The DIIS procedure is used to accelerate convergence.
 Convergence criterion is 10**(-7).
 Maximum number of iterations is 100.
 Convergence information after     1 iterations: 
 Largest element of residual vector : -0.63803029E-01.
 Largest element of DIIS residual   : -0.63803029E-01.
 Convergence information after     2 iterations: 
 Largest element of residual vector :  0.62927407E-02.
 Largest element of DIIS residual   :  0.58864776E-02.
 Convergence information after     3 iterations: 
 Largest element of residual vector : -0.38224920E-02.
 Largest element of DIIS residual   : -0.34150831E-02.
 Convergence information after     4 iterations: 
 Largest element of residual vector : -0.23962131E-02.
 Largest element of DIIS residual   : -0.18244164E-02.
 Convergence information after     5 iterations: 
 Largest element of residual vector : -0.13035356E-02.
 Largest element of DIIS residual   : -0.58916999E-03.
 Convergence information after     6 iterations: 
 Largest element of residual vector : -0.40829940E-03.
 Largest element of DIIS residual   : -0.97058385E-04.
 Convergence information after     7 iterations: 
 Largest element of residual vector : -0.68479250E-04.
 Largest element of DIIS residual   : -0.31360651E-04.
 Convergence information after     8 iterations: 
 Largest element of residual vector : -0.15761402E-04.
 Largest element of DIIS residual   :  0.12607312E-04.
 Convergence information after     9 iterations: 
 Largest element of residual vector :  0.60146438E-05.
 Largest element of DIIS residual   :  0.30513615E-05.
 Convergence information after    10 iterations: 
 Largest element of residual vector :  0.24497160E-05.
 Largest element of DIIS residual   :  0.15336057E-05.
 Convergence information after    11 iterations: 
 Largest element of residual vector :  0.77768040E-06.
 Largest element of DIIS residual   :  0.42554948E-06.
 Convergence information after    12 iterations: 
 Largest element of residual vector :  0.33944213E-06.
 Largest element of DIIS residual   :  0.22056774E-06.
 Convergence information after    13 iterations: 
 Largest element of residual vector :  0.14293124E-06.
 Largest element of DIIS residual   :  0.12610846E-06.
 Convergence information after    14 iterations: 
 Largest element of residual vector :  0.90131880E-07.
 Largest element of DIIS residual   :  0.63262618E-07.
 Perturbed Lambda equations converged in    14 iterations.
  Dominant contributions to perturbed wavefunction:
    7    7  142   37   0.2489989362 ABAB
    7    7   37  142   0.2489989362 ABAB
    7    7  142   27   0.2097107408 ABAB
    7    7   27  142   0.2097107408 ABAB
    7    7  142   63   0.1966766930 ABAB
    7    7   63  142   0.1966766930 ABAB
    7    7  142   55   0.1801077291 ABAB
    7    7   55  142   0.1801077291 ABAB
    7    7  142   47   0.1725517118 ABAB
    7    7   47  142   0.1725517118 ABAB
    7    6   37   91   0.1675140490 ABAB
    6    7   91   37   0.1675140490 ABAB
    7    7  142   51  -0.1437471612 ABAB
    7    7   51  142  -0.1437471612 ABAB
    7    6   27   91   0.1403184395 ABAB
    6    7   91   27   0.1403184395 ABAB
    7    7  143   37   0.1400000415 ABAB
    7    7   37  143   0.1400000415 ABAB
    7    7  142   19   0.1338360217 ABAB
    7    7   19  142   0.1338360217 ABAB
        The DBOC first-order density matrix is being calculated 
             (Symmetry block 3, perturbation   2)
 term   8.96661988488227     
 final tnorm  0.899740542218176     
  norm contr. I: |<0|L dT/dx|0>|^2   0.000000000000000E+000
  norm contr. II: <0|[nabla(1+L)e-T][nabla e^T]|0>   8.96661988488227     
  total norm contribution   8.96661988488227     
 oo  1.344689199856974E-002
 vv  -67.3466783681622     
 vo  2.906662761417675E-002
  Correlated perturbed 1-el contribution to DBOC  -67.3041648485494       cm**-1
  SUM_I |dc_I/dx|^2 contribution to DBOC   33.7567200266456       cm**-1
 
 
  The total diagonal Born-Oppenheimer correction (DBOC) is:      0.0041519743 a.u.
  The total diagonal Born-Oppenheimer correction (DBOC) is:        911.253035 cm-1
 
 Total CC energy including DBOC  -113.253456808252     
 First-order density matrix is being calculated  (Symmetry block 3, perturbation   2)
 Calculation of the contributions of <pq||rs> to dI(i,j)/dx required   1.6 seconds.
 Calculation of the contributions of <pq||rs> to dI(a,b)/dx required  15.5 seconds.
 Calculation of the contributions of <pq||rs> to dI(i,a)/dx required   9.1 seconds.
 First-order Z-vector equations are solved for 1 perturbation.
 Convergence reached after  17 iterations.
        U*G(pq,rs) contribution is being calculated
             (Symmetry block 3, perturbation   2)

 CCSD contribution to force constants 

        0.0000000000        0.0000000000        0.0000000000
        0.0000000000        0.0000000000        0.0000000000
        0.0000000000        0.0000000000        0.0000000000
        0.0000000000        0.0000000000        0.0000000000
        0.0000000000        0.0000000000        0.0000000000
        0.0000000000        0.0000000000        0.0000000000
        0.0000000000        0.0000000000        0.0000000000
        0.0000000000        0.0000000000        0.0000000000
        0.0000000000        0.0000000000        0.0000000000
        0.0000000000        0.0000000000        0.0000000000
        0.0000000000        0.0000000000        0.0000000000
        0.0000000000       -8.9072620141        8.9072620141

 CCSD contribution to dipole derivatives 

        0.0000000000        0.0000000000        0.0000000000
        0.0000000000        0.0000000000        0.0000000000
        0.0000000000        0.0000000000        0.0000000000
        0.0000000000        0.0000000000       -0.0399175936
        0.0000000000        0.0000000000        0.0000000000
        0.0000000000        0.0000000000        0.0000000000
 @CHECKOUT-I, Total execution time (CPU/WALL):      992.79/     260.27 seconds.
--executable xsdcc finished with status     0 in      260.30 seconds (walltime).
 --invoking executable--
/nfs/workspaces/public/cfour_mpi/bin/xanti
 @GETMEM-I,  Allocated    3814 MB of main memory.
 CCSD MO derivative gammas will be sorted to Mulliken order.
 @CHECKOUT-I, Total execution time (CPU/WALL):        9.83/      23.71 seconds.
--executable xanti finished with status     0 in       23.74 seconds (walltime).
 --invoking executable--
/nfs/workspaces/public/cfour_mpi/bin/xbcktrn
 @GETMEM-I,  Allocated    3814 MB of main memory.
 CCSD MO derivative gammas will be transformed to the AO basis.
 @CHECKOUT-I, Total execution time (CPU/WALL):       20.57/       3.21 seconds.
--executable xbcktrn finished with status     0 in        3.22 seconds (walltime).
 --invoking executable--
/nfs/workspaces/public/cfour_mpi/bin/xvdint
 @GETMEM-I,  Allocated    3814 MB of main memory.
 One- and two-electron integral derivatives are calculated
 for RHF-CC/MBPT hessians and dipole derivatives.
 Spherical gaussians are used.
  magnet F F
                    8722  records have been written to the Sort file.
  Total length of Sort file :             178609116  words.
 Evaluation of 2el integral derivatives

                      Two-electron integral gradient
                      ------------------------------

                         C #1 z     0.0000000000
                         O #2 z     0.0000000000


 C #1       0.0000000000           -1.2084205756            0.0000000000
 O #2       0.0000000000            1.2084205756            0.0000000000


 Evaluation of 2e integral derivatives required  351.83 seconds.
  contribution to Hessian
        0.0000000000        0.0000000000        0.0000000000
        0.0000000000       -1.2084205756        1.2084205756
 @CHECKOUT-I, Total execution time (CPU/WALL):      351.83/      72.10 seconds.
--executable xvdint finished with status     0 in       72.12 seconds (walltime).
 --invoking executable--
/nfs/workspaces/public/cfour_mpi/bin/xanti
 @GETMEM-I,  Allocated    3814 MB of main memory.
 CCSD MO gammas will be sorted to Mulliken order.
 @CHECKOUT-I, Total execution time (CPU/WALL):       10.96/       9.61 seconds.
--executable xanti finished with status     0 in        9.62 seconds (walltime).
 --invoking executable--
/nfs/workspaces/public/cfour_mpi/bin/xbcktrn
 @GETMEM-I,  Allocated    3814 MB of main memory.
 CCSD MO gammas will be transformed to the AO basis.
 @CHECKOUT-I, Total execution time (CPU/WALL):       33.57/       5.85 seconds.
--executable xbcktrn finished with status     0 in        5.87 seconds (walltime).
 --invoking executable--
/nfs/workspaces/public/cfour_mpi/bin/xvdint
 @GETMEM-I,  Allocated    3814 MB of main memory.
 One- and two-electron integral derivatives are calculated
 for RHF-CC/MBPT hessians and dipole derivatives.
 Spherical gaussians are used.
  magnet F F

                     Kinetic energy integral gradient
                     --------------------------------

                         C #1 z    -1.8198887213
                         O #2 z     1.8198887213


 C #1       0.0000000000            0.0000000000           -1.8198887213
 O #2       0.0000000000            0.0000000000            1.8198887213



                   Nuclear attraction integral gradient
                   ------------------------------------

                         C #1 z    26.4294350250
                         O #2 z   -26.4294350250


 C #1       0.0000000000            0.0000000000           26.4294350250
 O #2       0.0000000000            0.0000000000          -26.4294350250



                      Reorthonormalization gradient
                      -----------------------------

                         C #1 z     0.0000000000
                         O #2 z     0.0000000000


 C #1       0.0000000000            0.0000000000            0.0000000000
 O #2       0.0000000000            0.0000000000            0.0000000000



                     Kinetic energy integral Hessian
                     -------------------------------


           Symmetry 1

           C #1 z      O #2 z

 C #1 z    0.882528
 O #2 z   -0.882528    0.882528


           Symmetry 2

           C #1 x      O #2 x

 C #1 x   -2.912283
 O #2 x    2.912283   -2.912283


           Symmetry 3

           C #1 y      O #2 y

 C #1 y   -2.912283
 O #2 y    2.912283   -2.912283




           C #1 x      C #1 y      C #1 z      O #2 x      O #2 y      O #2 z

 C #1 x   -2.912283
 C #1 y    0.000000   -2.912283
 C #1 z    0.000000    0.000000    0.882528

 O #2 x    2.912283    0.000000    0.000000   -2.912283
 O #2 y    0.000000    2.912283    0.000000    0.000000   -2.912283
 O #2 z    0.000000    0.000000   -0.882528    0.000000    0.000000    0.882528




                   Nuclear attraction integral Hessian
                   -----------------------------------


           Symmetry 1

           C #1 z      O #2 z

 C #1 z  -13.182440
 O #2 z   13.182440  -13.182440


           Symmetry 2

           C #1 x      O #2 x

 C #1 x   27.593690
 O #2 x  -27.593690   27.593690


           Symmetry 3

           C #1 y      O #2 y

 C #1 y   27.593690
 O #2 y  -27.593690   27.593690




           C #1 x      C #1 y      C #1 z      O #2 x      O #2 y      O #2 z

 C #1 x   27.593690
 C #1 y    0.000000   27.593690
 C #1 z    0.000000    0.000000  -13.182440

 O #2 x  -27.593690    0.000000    0.000000   27.593690
 O #2 y    0.000000  -27.593690    0.000000    0.000000   27.593690
 O #2 z    0.000000    0.000000   13.182440    0.000000    0.000000  -13.182440




                Highest order reorthonormalization Hessian
                ------------------------------------------


           Symmetry 1

           C #1 z      O #2 z

 C #1 z    0.000000
 O #2 z    0.000000    0.000000


           Symmetry 2

           C #1 x      O #2 x

 C #1 x    0.000000
 O #2 x    0.000000    0.000000


           Symmetry 3

           C #1 y      O #2 y

 C #1 y    0.000000
 O #2 y    0.000000    0.000000




           C #1 x      C #1 y      C #1 z      O #2 x      O #2 y      O #2 z




                Electronic contributions to dipole moment
                -----------------------------------------

                               au             Debye

                    z     -0.17758189     -0.45136822

  Conversion factor used: 1 a.u. =   2.54174691 Debye 



   Electronic contributions to static part of dipole moment derivatives
   --------------------------------------------------------------------


                     Total dipole moment derivatives
                     -------------------------------


           Symmetry 1
                              Ez

               C #1 z    -5.79294351
               O #2 z    -8.20705649

           Symmetry 2
                              Ex

               C #1 x    -5.86261563
               O #2 x    -8.13738437

           Symmetry 3
                              Ey

               C #1 y    -5.86261563
               O #2 y    -8.13738437



                       Ex          Ey          Ez

      C #1    x   -5.862616    0.000000    0.000000
      C #1    y    0.000000   -5.862616    0.000000
      C #1    z    0.000000    0.000000   -5.792944

      O #2    x   -8.137384    0.000000    0.000000
      O #2    y    0.000000   -8.137384    0.000000
      O #2    z    0.000000    0.000000   -8.207056

 Evaluation of 1e integral derivatives required    1.74 seconds.
                    8815  records have been written to the Sort file.
  Total length of Sort file :             180513570  words.
 Evaluation of 2el integral derivatives

                      Two-electron integral gradient
                      ------------------------------

                         C #1 z   -11.7883351617
                         O #2 z    11.7883351617


 C #1       0.0000000000            0.0000000000          -11.7883351617
 O #2       0.0000000000            0.0000000000           11.7883351617


 Evaluation of 2e integral derivatives required  664.98 seconds.

                            Molecular gradient
                            ------------------

                         C #1 z     0.0059807472
                         O #2 z    -0.0059807472


 C #1       0.0000000000            0.0000000000            0.0059807472
 O #2       0.0000000000            0.0000000000           -0.0059807472


  Molecular gradient norm 0.846E-02

                            Molecular hessian
                            -----------------


           Symmetry 1

           C #1 z      O #2 z

 C #1 z   86.793423
 O #2 z  -86.793423   86.793423


           Symmetry 2

           C #1 x      O #2 x

 C #1 x    9.733380
 O #2 x   -9.733380    9.733380


           Symmetry 3

           C #1 y      O #2 y

 C #1 y    9.733380
 O #2 y   -9.733380    9.733380




           C #1 x      C #1 y      C #1 z      O #2 x      O #2 y      O #2 z

 C #1 x    9.733380
 C #1 y    0.000000    9.733380
 C #1 z    0.000000    0.000000   86.793423

 O #2 x   -9.733380    0.000000    0.000000    9.733380
 O #2 y    0.000000   -9.733380    0.000000    0.000000    9.733380
 O #2 z    0.000000    0.000000  -86.793423    0.000000    0.000000   86.793423




                           Total dipole moment
                           -------------------

                               au             Debye

                    z     -0.17969126     -0.45672970

  Conversion factor used: 1 a.u. =   2.54174691 Debye 



                     Total dipole moment derivatives
                     -------------------------------


           Symmetry 1
                              Ez

               C #1 z     0.68670274
               O #2 z    -0.68670274

           Symmetry 2
                              Ex

               C #1 x    -0.09622599
               O #2 x     0.09622599

           Symmetry 3
                              Ey

               C #1 y    -0.09622599
               O #2 y     0.09622599



                       Ex          Ey          Ez

      C #1    x   -0.096226    0.000000    0.000000
      C #1    y    0.000000   -0.096226    0.000000
      C #1    z    0.000000    0.000000    0.686703

      O #2    x    0.096226    0.000000    0.000000
      O #2    y    0.000000    0.096226    0.000000
      O #2    z    0.000000    0.000000   -0.686703

 @CHECKOUT-I, Total execution time (CPU/WALL):      666.71/     111.10 seconds.
--executable xvdint finished with status     0 in      111.13 seconds (walltime).
 --invoking executable--
/nfs/workspaces/public/cfour_mpi/bin/xjoda
  @GTFLGS-I, Hessian will be transformed to curvilinear coordinates.
  @GTFLGS-I, Hessian will be transformed to curvilinear coordinates.
  igrd and ihes are                      0                     1
  gradient from JOBARC 
   0.000000000000000   0.000000000000000   0.005980747225863
   0.000000000000000   0.000000000000000  -0.005980747225863
 
  @PROJFCM-I, Projecting force constant matrix onto totally symmetric subspace.
  Largest difference between matrix elements of symmetrized
  and unsymmetrized FCM :     0.2388489406E-10.
  read isotopes from ZMAT file 
 
  Summary of diagonal Born-Oppenheimer correction at the correlated level
  The total diagonal Born-Oppenheimer correction (DBOC) is:      0.0041519743 a.u.
  The total diagonal Born-Oppenheimer correction (DBOC) is:        911.253035 cm-1
  The total diagonal Born-Oppenheimer correction (DBOC) is:            10.901 kJ/mole
  hellooooooo 
  readis is  F
 
 @CHECKOUT-I, Total execution time (CPU/WALL):        0.01/       0.04 seconds.
--executable xjoda finished with status     0 in        0.05 seconds (walltime).
  The final electronic energy is      -113.253456808252352 a.u. 
  This computation required                         2476.29 seconds (walltime).
