 --invoking executable--
/nfs/workspaces/public/cfour_mpi/bin/xjoda


   *************************************************************************
         <<<     CCCCCC     CCCCCC   |||     CCCCCC     CCCCCC   >>>
       <<<      CCC        CCC       |||    CCC        CCC         >>>
      <<<      CCC        CCC        |||   CCC        CCC            >>>
    <<<        CCC        CCC        |||   CCC        CCC              >>>
      <<<      CCC        CCC        |||   CCC        CCC            >>>
       <<<      CCC        CCC       |||    CCC        CCC         >>>
         <<<     CCCCCC     CCCCCC   |||     CCCCCC     CCCCCC   >>>
   *************************************************************************

     ****************************************************************
     * CFOUR Coupled-Cluster techniques for Computational Chemistry *
     ****************************************************************
 

   Department of Chemistry                Institut fuer Physikalische Chemie
   University of Florida                  Universitaet Mainz
   Gainesville, FL 32611, USA             D-55099 Mainz, Germany

   Department of Chemistry                Fakultaet fuer Chemie und Biowiss.
   Johns Hopkins University               Karlsruher Institut fuer Technologie
   Baltimore, MD 21218, USA               D-76131 Karlsruhe, Germany

   Department of Chemistry                Department of Physical Chemistry
   Southern Methodist University          Eotvos Lorand University
   Dallas, TX 75275, USA                  H-1053 Budapest, Hungary

 
                       Version 2.1
 
                     vincent.theory.phys.ucl.ac.uk                     
                     Mon 24 Feb 13:39:55 GMT 2025                      
                     integer*8 version is running
 
********************************************************************************
*                          Input from ZMAT file                                *
********************************************************************************
Carbon Monoxide DBOC calculation                                                
C                                                                               
O 1 r                                                                           
                                                                                
r=0.9310344827586207                                                            
                                                                                
                                                                                
*CFOUR(CALC=CCSD,BASIS=AUG-PCVQZ,SCF_CONV=10                                    
CC_CONV=14,DBOC=ON,MEMORY=500000000                                             
ZFIELD=200)                                                                     
                                                                                
%isotopes                                                                       
12                                                                              
16                                                                              
********************************************************************************
  @GTFLGS-I, Hessian will be transformed to curvilinear coordinates.
    -------------------------------------------------------------------
                    CFOUR Control Parameters 
    -------------------------------------------------------------------
        External           Internal           Value            Units
          Name               Name
    -------------------------------------------------------------------
       ABCDTYPE             IABCDT         STANDARD    [  0]    ***   
       ANHARMONIC           IANHAR         OFF         [  0]    ***   
       ANH_ALGORIT          IANALG         STANDARD    [  0]    ***   
       ANH_DERIVAT          IANDER         SECOND      [  1]    ***   
       ANH_MODE             ANHMOD         VIBRATION   [  0]    ***   
       ANH_STEPSIZ          ICUBST             50000          x 10-6  
       ANH_SYMMETR          IANHSM         ABELIAN     [  0]    ***   
       AO_LADDERS           IAOLAD         SINGLEPASS  [  1]    ***   
       AV_SCF               IAVSCF         OFF         [  0]    ***   
       BASIS                IBASIS         AUG-PCVQZ   [ 52]    ***   
       BOTHVECTORS          BOTHVC         OFF         [  0]    ***   
       BOX_POTENT           IPIAB          OFF         [  0]    ***   
       BREIT                IBREIT         OFF         [  0]    ***   
       BRUCK_CONV           IBRTOL          10D-  4             ***   
       BRUECKNER            IBRKNR         OFF         [  0]    ***   
       BUFFERSIZE           IBUFFS              4096            ***   
       CACHE_RECS           ICHREC             10               ***   
       CALCLEVEL            ICLLVL         CCSD        [ 10]    ***   
       CCORBOPT             ICCORB         OFF         [  0]  x 0.01  
       CC_CONV              ICCCNV          10D- 14             ***   
       CC_EXPORDER          ICCEOR              5               ***   
       CC_EXTRAPOL          ICCEXT         DIIS        [  1]    ***   
       CC_GUESS             ICCGES         MP2         [  0]    ***   
       CC_MAXCYC            ICCCYC            100              cycles 
       CC_PROGRAM           ICCPRO         VCC         [  0]    ***   
       CHARGE               ICHRGE              0               ***   
       CHOLESKY             ICHOLE         OFF         [  0]    ***   
       CIS_CONV             ICISTL              5               ***   
       COMM_SIZE            IPSIZE            ***               ***   
       CONSTANT             ICONST         OLD         [  1]    ***   
       CONTINUUM            ICONTU         NONE        [  0]    ***   
       CONTRACTION          ICNTYP         GENERAL     [  1]    ***   
       COORDINATES          ICOORD         INTERNAL    [  0]    ***   
       CPHF_CONVER          ICPHFT          10D- 16             ***   
       CPHF_MAXCYC          ICPHFC             64              cycles 
       CUBIC                ICUBIC         OFF         [  0]    ***   
       CURVILINEAR          ICURVY         ON          [  1]    ***   
       DBOC                 IDBOC          ON          [  1]    ***   
       DCT                  IDCT           OFF         [  0]    ***   
       DERIV_LEV            IDRLVL         SECOND      [  2]    ***   
       DEVMEM_SIZE          IDVMEM          50000000           MByte  
       DIAG_MRCC            IEOMST          10D-  0             ***   
       DIFF_TYPE            IDIFTY         RELAXED     [  0]    ***   
       DIRECT               IDIRCT         OFF         [  0]    ***   
       DROPMO               IDRPMO      NONE         
       ECP                  IECP           OFF         [  0]    ***   
       EIGENVECTOR          IVEC                1               ***   
       EL_ANHARM            IELANH         OFF         [  0]    ***   
       EOMFOLLOW            IEOMSR         ENERGY      [  0]    ***   
       EOMIP                IEOMIP         OFF         [  0]    ***   
       EOMLEVEL             HBARFM         SAME        [  0]    ***   
       EOM_MRCC             IMRCCE         NEW         [  1]    ***   
       EOM_NONIT            EOMNON         OFF         [  0]    ***   
       EOM_NSING            IEOMSI          10D-  0             ***   
       EOM_NSTATES          IMRCCD         DAVIDSON    [  0]    ***   
       EOM_NTRIP            IEOMTR          10D-  0             ***   
       EOM_ORDER            IEXORD         ENERGY      [  0]    ***   
       EOM_PROPSTA          IEOMST              0               ***   
       ESTATE_CONV          IEXTOL          10D-  5             ***   
       ESTATE_DIAG          IEXDIG         ITERATIVE   [  0]    ***   
       ESTATE_LOCK          IESLOC         ON          [  1]    ***   
       ESTATE_MAXC          IEXMXC             40               ***   
       ESTATE_PROP          IEXPRP         OFF         [  0]    ***   
       EVAL_HESS            IRECAL              0            # of cyc.
       EXCITATION           IEXCIT              0               ***   
       EXCITE               IEXCIT         NONE        [  0]    ***   
       EXTERN_POT           IEXPOT         OFF         [  0]    ***   
       FCGRADNEW            IFCGNW         OFF         [  0]    ***   
       FC_FIELD             IFINFC              0             x 10-6  
       FD_CALTYPE           IFDCAL         GRADONLY    [  0]    ***   
       FD_PROJECT           IFDPRJ         OFF         [  1]    ***   
       FD_STEPSIZE          IDISFD              0            10-4 bohr
       FD_USEGROUP          IFDGRP         FULL        [  0]    ***   
       FILE_RECSIZ          IFLREC              4096           words  
       FINITE_PERT          IFIPER              0             x 10-6  
       FIXGEOM              IFIXGM         OFF         [  0]    ***   
       FOCK                 IFOCK          AO          [  1]    ***   
       FREQ_ALGORI          IVIALG         STANDARD    [  0]    ***   
       FROZEN_CORE          IFROCO         OFF         [  0]    ***   
       GAMMA_ABCD           IGABCD         STORE       [  0]    ***   
       GAMMA_ABCI           IGABCI         STORE       [  0]    ***   
       GENBAS_1             IGNBS1              0               ***   
       GENBAS_2             IGNBS2              0               ***   
       GENBAS_3             IGNBS3              0               ***   
       GENBAS_4             IGNBS4              0               ***   
       GEO_CONV             ICONTL              5              H/bohr 
       GEO_MAXCYC           IOPTCY             50               ***   
       GEO_MAXSTEP          IMXSTP            300            millibohr
       GEO_METHOD           INR            SINGLE_POINT[  5]    ***   
       GIAO                 IGIAO          OFF         [  1]    ***   
       GIMIC                IGIMIC         OFF         [  0]    ***   
       GRID                 IGRID          OFF         [  0]    ***   
       GRID_ALGO            IGALGO         SERIAL      [  0]    ***   
       GUESS                IGUESS         MOREAD      [  0]    ***   
       HBAR                 IHBAR          OFF         [  0]    ***   
       HESS_TYPE            IHESTP         SCF         [  0]    ***   
       HF2_FILE             IHF2Fl         USE         [  1]    ***   
       HFSTABILITY          ISTABL         OFF         [  0]    ***   
       INCORE               INCORE         OFF         [  0]    ***   
       INPUT_MRCC           IMRCC          ON          [  1]    ***   
       INTEGRALS            INTTYP         VMOL        [  1]    ***   
       JODA_PRINT           IJPRNT              0               ***   
       KEYWORD_OUT          IDMPKW         NO          [  0]    ***   
       LINDEP_TOL           ILINDP              8               ***   
       LINEQ_CONV           IZTACN          10D-  7           cycles  
       LINEQ_EXPOR          ILMAXD              5               ***   
       LINEQ_MAXCY          ILMAXC            100               ***   
       LINEQ_TYPE           ILTYPE         DIIS        [  1]    ***   
       LOCK_ORBOCC          ILOCOC         OFF         [  0]    ***   
       MEMORY_SIZE          IMEMSZ         500000000           words  
       MEM_UNIT             IMEMU          INTEGERWORDS[  0]    ***   
       MRCC                 IMRCCC         OFF         [  0]    ***   
       MULTIPLICTY          IMULTP              1               ***   
       NACOUPLING           IVCOUP         OFF         [  0]    ***   
       NEGEVAL              IDIE           ABORT       [  0]    ***   
       NEWNORM              INEWNO         OFF         [  0]    ***   
       NON-HF               INONHF         OFF         [  0]    ***   
       NTOP_TAMP            ITOPT2             15               ***   
       NUC_MODEL            INUCMO         POINT       [  0]    ***   
       OCCUPATION           IOCCU   ESTIMATED BY SCF 
       OPEN-SHELL           IOPEN          SPIN-ORBITAL[  0]    ***   
       OPTVIB               IOPTVB         OFF         [  0]    ***   
       ORBITALS             IORBTP         STANDARD    [  0]    ***   
       PARALLEL             IPARAL         ON          [  1]    ***   
       PARA_INT             IPINTS         ON          [  1]    ***   
       PARA_PRINT           IPPRIN              0               ***   
       PERT_ORB             IPTORB         STANDARD    [  0]    ***   
       POINTS               IGRDFD              0               ***   
       PRINT                IPRNT               0               ***   
       PROPS                IPROPS         OFF         [  0]    ***   
       PROP_INTEGR          IINTYP         INTERNAL    [  0]    ***   
       PSI                  IPSI           OFF         [  0]    ***   
       QC_ALG               IQCALG         FLM         [  0]    ***   
       QC_LINALG            IQCLIN         TRIDIAG     [  2]    ***   
       QC_MAXCYC            IQCMAX          10D-100           cycles  
       QC_MAXSCFCY          IQCMSC          10D- 15           cycles  
       QC_RTRUST            IQCRTR          10D-  0           x 10-3  
       QC_SKIPSCF           IQCSKI         OFF         [  0]    ***   
       QC_START             IQCSTA          10D-  1             ***   
       QRHFGUESS            IQGUES         OFF         [  0]    ***   
       QUARTIC              IQUART         OFF         [  0]    ***   
       RAMAN_INT            IRAMIN         OFF         [  0]    ***   
       RAMAN_ORB            IRAMRE         UNRELAXED   [  0]    ***   
       RDO                  IRDOFM         ON          [  1]    ***   
       REDUCE_REPR          REDREP         Ir          [  0]    ***   
       REFERENCE            IREFNC         RHF         [  0]    ***   
       RELATIVIST           IRELAT         OFF         [  0]    ***   
       RELAX_DENS           IRDENS         ON          [  1]    ***   
       RESET_FLAGS          IRESET         OFF         [  0]    ***   
       RESTART_CC           ICCRES         OFF         [  0]    ***   
       ROT_EVEC             ROTVEC              0               ***   
       SAVE_INTS            ISVINT         OFF         [  0]    ***   
       SCALE_ON             ISTCRT              0               ***   
       SCF_CONV             ISCFCV          10D- 10             ***   
       SCF_DAMPING          IDAMP               0             x 10-3  
       SCF_EXPORDE          IRPPOR              6               ***   
       SCF_EXPSTAR          IRPPLS              8               ***   
       SCF_EXTRAPO          IRPP           ON          [  1]    ***   
       SCF_MAXCYC           ISCFCY            150              cycles 
       SCF_NOSTOP           ISCFST         OFF         [  0]    ***   
       SCF_PRINT            ISCFPR              0               ***   
       SCF_PROG             ISCFPR         SCF         [  0]    ***   
       SD_FIELD             IFINSD              0             x 10-6  
       SOPERT               IPERSO         OFF         [  0]    ***   
       SPHERICAL            IDFGHI         ON          [  1]    ***   
       SPINORBIT            ISOCAL         OFF         [  0]    ***   
       SPINROTATIO          ISRCON         OFF         [  0]    ***   
       SPIN_FLIP            ISPFLP         OFF         [  0]    ***   
       SPIN_ORBIT           ISPORB         OFF         [  0]    ***   
       SPIN_SCAL            ISCSMP         OFF         [  0]    ***   
       STEEPSCALE           ISTPSC              1000          x 10-3  
       SUBGROUP             ISUBGP         DEFAULT     [  0]    ***   
       SUBGRPAXIS           ISBXYZ         X           [  0]    ***   
       SYMMETRY             ISYM           ON          [  0]    ***   
       SYM_CHECK            ISYMCK         OVERRIDE    [  1]    ***   
       T3_EXTRAPOL          IT3EXT         OFF         [  0]    ***   
       T4_EXTRAPOL          IT4EXP         OFF         [  0]    ***   
       TAMP_SUM             IEVERY              5               ***   
       TESTSUITE            ITESTS         OFF         [  0]    ***   
       THERMOCH             ITHERM         OFF         [  0]    ***   
       TOL_CHOLESK          ITOLCH          10D-  4             ***   
       TRANGRAD             IRESRM         OFF         [  0]    ***   
       TRANS_INV            ITRAIN         IGNORE      [  1]    ***   
       TREAT_PERT           ITREAT         SIMULTANEOUS[  0]    ***   
       TRIP_ALGORI          ITRALG         NORMAL      [  0]    ***   
       UIJ_THRESHO          IUIJTH              1               ***   
       UNITS                IUNITS         ANGSTROM    [  0]    ***   
       UNOS                 IUNOS          OFF         [  0]    ***   
       UPDATE_HESS          IHUPDT         ON          [  1]    ***   
       VIBPHASE             ISETPH         STANDARD    [  0]    ***   
       VIBRATION            IVIB           ANALYTIC    [  1]    ***   
       VIB_ALGORIT          IGEALG         STANDARD    [  0]    ***   
       VNATORB              IVNORB         OFF         [  0]    ***   
       VTRAN                IVTRAN         FULL/PARTIAL[  0]    ***   
       XFIELD               IXEFLD              0             x 10-6  
       XFORM_TOL            IXFTOL          10D- 11             ***   
       YFIELD               IYEFLD              0             x 10-6  
       ZFIELD               IZEFLD            200             x 10-6  
       ZSCALE_EXP           IZEXPS         OFF         [  0]    ***   
    -------------------------------------------------------------------
   2 entries found in Z-matrix 
   Job Title : Carbon Monoxide DBOC calculation                                                
   There are  1 unique internal coordinates.
   Of these,  0 will be optimized.
   User supplied Z-matrix: 
--------------------------------------------------------------------------------
       SYMBOL    BOND      LENGTH    ANGLE     ANGLE     DIHED     ANGLE
                  TO      (ANGST)    WRT      (DEG)      WRT      (DEG)
--------------------------------------------------------------------------------
        C    
        O          1         r    
                  *Initial values for internal coordinates* 
                      Name             Value
                        r               0.9310344828
--------------------------------------------------------------------------------
  read isotopes from ZMAT file 
   Rotational constants (in cm-1): 
          2.8364883071             2.8364883071
   Rotational constants (in MHz): 
      85035.7920792806         85035.7920792806
********************************************************************************
   The full molecular point group is CXv .
   The largest Abelian subgroup of the full molecular point group is C2v .
   The computational point group is C2v .
********************************************************************************
--------------------------------------------------------------------------------
   Analysis of internal coordinates specified by Z-matrix 
--------------------------------------------------------------------------------
   *The nuclear repulsion energy is   27.282019377777775 a.u.
   *There is   1 degree of freedom within the tot. symm. molecular subspace.
   *Z-matrix requests optimization of   0 coordinates.
   *The optimization is constrained.
   *The following   1 parameters can have non-zero 
    derivatives within the totally symmetric subspace:
             r    [ 1]
   *The following   0 parameters are to be optimized:

   *The following coordinates must be varied in an  unconstrained optimization.
             r    [ 1]
--------------------------------------------------------------------------------


 ----------------------------------------------------------------
         Coordinates used in calculation (QCOMP) 
 ----------------------------------------------------------------
 Z-matrix   Atomic            Coordinates (in bohr)
  Symbol    Number           X              Y              Z
 ----------------------------------------------------------------
     C         6        -0.00000000     0.00000000     1.00523477
     O         8         0.00000000     0.00000000    -0.75416578
 ----------------------------------------------------------------
 
   Interatomic distance matrix (Angstroms) 
 
                 C             O    
                [ 1]        [ 2]
  C    [ 1]     0.00000
  O    [ 2]     0.93103     0.00000
 rotcon2
   Rotational constants (in cm-1): 
          2.8364883071             0.0000000000
   Rotational constants (in MHz): 
      85035.7920792806             0.0000000000
  ECPDATA file not present.   Using default ECPDATA. 
  @GTFLGS-I, Hessian will be transformed to curvilinear coordinates.
  There are  218 basis functions.
 @CHECKOUT-I, Total execution time (CPU/WALL):        0.12/       0.15 seconds.
--executable xjoda finished with status     0 in        0.18 seconds (walltime).
 --invoking executable--
/nfs/workspaces/public/cfour_mpi/bin/xvmol
 SERIAL VERSION OF MOLECULE STARTED
********************************************************************************
                    INPUT FROM MOL FILE
********************************************************************************
INTGRL        1    0    1    0    0    0    0    0    0                         
         *** CFOUR Program System (Release V0.1) ***                            
Carbon Monoxide DBOC calculation                                                
    2    2 X  Y       0.10E-08              0    0                              
   9999.00      3.00                                                            
          6.00000000    1    5    1    1    1    1    1                         
C #1  -0.000000000000000   0.000000000000000   1.005234773127331                
   16    9                                                                      
   33980.0000000000       9.100000000000000E-005 -1.900000000000000E-005        
  0.000000000000000E+000  0.000000000000000E+000  0.000000000000000E+000        
  0.000000000000000E+000  0.000000000000000E+000  0.000000000000000E+000        
  0.000000000000000E+000                                                        
   5089.00000000000       7.040000000000000E-004 -1.510000000000000E-004        
  0.000000000000000E+000  0.000000000000000E+000  0.000000000000000E+000        
  0.000000000000000E+000  0.000000000000000E+000  0.000000000000000E+000        
  0.000000000000000E+000                                                        
   1157.00000000000       3.693000000000000E-003 -7.850000000000000E-004        
  0.000000000000000E+000  0.000000000000000E+000  0.000000000000000E+000        
  0.000000000000000E+000  0.000000000000000E+000  0.000000000000000E+000        
  0.000000000000000E+000                                                        
   326.600000000000       1.536000000000000E-002 -3.324000000000000E-003        
  0.000000000000000E+000  0.000000000000000E+000  0.000000000000000E+000        
  0.000000000000000E+000  0.000000000000000E+000  0.000000000000000E+000        
  0.000000000000000E+000                                                        
   106.100000000000       5.292900000000000E-002 -1.151200000000000E-002        
  0.000000000000000E+000  0.000000000000000E+000  0.000000000000000E+000        
  0.000000000000000E+000  0.000000000000000E+000  0.000000000000000E+000        
  0.000000000000000E+000                                                        
   38.1100000000000       0.147043000000000      -3.416000000000000E-002        
  0.000000000000000E+000  0.000000000000000E+000  0.000000000000000E+000        
  0.000000000000000E+000  0.000000000000000E+000  0.000000000000000E+000        
  0.000000000000000E+000                                                        
   14.7500000000000       0.305631000000000      -7.717300000000001E-002        
  0.000000000000000E+000  0.000000000000000E+000  0.000000000000000E+000        
  0.000000000000000E+000  0.000000000000000E+000  0.000000000000000E+000        
  0.000000000000000E+000                                                        
   6.03500000000000       0.399345000000000      -0.141493000000000             
  0.000000000000000E+000  0.000000000000000E+000  0.000000000000000E+000        
  0.000000000000000E+000  0.000000000000000E+000  0.000000000000000E+000        
  0.000000000000000E+000                                                        
   2.53000000000000       0.217051000000000      -0.118019000000000             
  0.000000000000000E+000  0.000000000000000E+000  0.000000000000000E+000        
  0.000000000000000E+000  0.000000000000000E+000  0.000000000000000E+000        
  0.000000000000000E+000                                                        
  0.735500000000000       1.589400000000000E-002  0.273806000000000             
   1.00000000000000       0.000000000000000E+000  0.000000000000000E+000        
  0.000000000000000E+000  0.000000000000000E+000  0.000000000000000E+000        
  0.000000000000000E+000                                                        
  0.290500000000000      -3.084000000000000E-003  0.586510000000000             
  0.000000000000000E+000   1.00000000000000       0.000000000000000E+000        
  0.000000000000000E+000  0.000000000000000E+000  0.000000000000000E+000        
  0.000000000000000E+000                                                        
  0.111100000000000       9.779999999999999E-004  0.285430000000000             
  0.000000000000000E+000  0.000000000000000E+000   1.00000000000000             
  0.000000000000000E+000  0.000000000000000E+000  0.000000000000000E+000        
  0.000000000000000E+000                                                        
   7.21600000000000       0.000000000000000E+000  0.000000000000000E+000        
  0.000000000000000E+000  0.000000000000000E+000  0.000000000000000E+000        
   1.00000000000000       0.000000000000000E+000  0.000000000000000E+000        
  0.000000000000000E+000                                                        
   19.5700000000000       0.000000000000000E+000  0.000000000000000E+000        
  0.000000000000000E+000  0.000000000000000E+000  0.000000000000000E+000        
  0.000000000000000E+000   1.00000000000000       0.000000000000000E+000        
  0.000000000000000E+000                                                        
   53.0730000000000       0.000000000000000E+000  0.000000000000000E+000        
  0.000000000000000E+000  0.000000000000000E+000  0.000000000000000E+000        
  0.000000000000000E+000  0.000000000000000E+000   1.00000000000000             
  0.000000000000000E+000                                                        
  4.145000000000000E-002  0.000000000000000E+000  0.000000000000000E+000        
  0.000000000000000E+000  0.000000000000000E+000  0.000000000000000E+000        
  0.000000000000000E+000  0.000000000000000E+000  0.000000000000000E+000        
   1.00000000000000                                                             
   10    8                                                                      
   34.5100000000000       5.378000000000000E-003  0.000000000000000E+000        
  0.000000000000000E+000  0.000000000000000E+000  0.000000000000000E+000        
  0.000000000000000E+000  0.000000000000000E+000  0.000000000000000E+000        
   7.91500000000000       3.613200000000000E-002  0.000000000000000E+000        
  0.000000000000000E+000  0.000000000000000E+000  0.000000000000000E+000        
  0.000000000000000E+000  0.000000000000000E+000  0.000000000000000E+000        
   2.36800000000000       0.142493000000000       0.000000000000000E+000        
  0.000000000000000E+000  0.000000000000000E+000  0.000000000000000E+000        
  0.000000000000000E+000  0.000000000000000E+000  0.000000000000000E+000        
  0.813200000000000       0.342150000000000        1.00000000000000             
  0.000000000000000E+000  0.000000000000000E+000  0.000000000000000E+000        
  0.000000000000000E+000  0.000000000000000E+000  0.000000000000000E+000        
  0.289000000000000       0.463864000000000       0.000000000000000E+000        
   1.00000000000000       0.000000000000000E+000  0.000000000000000E+000        
  0.000000000000000E+000  0.000000000000000E+000  0.000000000000000E+000        
  0.100700000000000       0.250028000000000       0.000000000000000E+000        
  0.000000000000000E+000   1.00000000000000       0.000000000000000E+000        
  0.000000000000000E+000  0.000000000000000E+000  0.000000000000000E+000        
   8.18200000000000       0.000000000000000E+000  0.000000000000000E+000        
  0.000000000000000E+000  0.000000000000000E+000   1.00000000000000             
  0.000000000000000E+000  0.000000000000000E+000  0.000000000000000E+000        
   24.1860000000000       0.000000000000000E+000  0.000000000000000E+000        
  0.000000000000000E+000  0.000000000000000E+000  0.000000000000000E+000        
   1.00000000000000       0.000000000000000E+000  0.000000000000000E+000        
   71.4940000000000       0.000000000000000E+000  0.000000000000000E+000        
  0.000000000000000E+000  0.000000000000000E+000  0.000000000000000E+000        
  0.000000000000000E+000   1.00000000000000       0.000000000000000E+000        
  3.218000000000000E-002  0.000000000000000E+000  0.000000000000000E+000        
  0.000000000000000E+000  0.000000000000000E+000  0.000000000000000E+000        
  0.000000000000000E+000  0.000000000000000E+000   1.00000000000000             
    6    6                                                                      
   1.84800000000000        1.00000000000000       0.000000000000000E+000        
  0.000000000000000E+000  0.000000000000000E+000  0.000000000000000E+000        
  0.000000000000000E+000                                                        
  0.649000000000000       0.000000000000000E+000   1.00000000000000             
  0.000000000000000E+000  0.000000000000000E+000  0.000000000000000E+000        
  0.000000000000000E+000                                                        
  0.228000000000000       0.000000000000000E+000  0.000000000000000E+000        
   1.00000000000000       0.000000000000000E+000  0.000000000000000E+000        
  0.000000000000000E+000                                                        
   8.65600000000000       0.000000000000000E+000  0.000000000000000E+000        
  0.000000000000000E+000   1.00000000000000       0.000000000000000E+000        
  0.000000000000000E+000                                                        
   33.2130000000000       0.000000000000000E+000  0.000000000000000E+000        
  0.000000000000000E+000  0.000000000000000E+000   1.00000000000000             
  0.000000000000000E+000                                                        
  7.660000000000000E-002  0.000000000000000E+000  0.000000000000000E+000        
  0.000000000000000E+000  0.000000000000000E+000  0.000000000000000E+000        
   1.00000000000000                                                             
    4    4                                                                      
   1.41900000000000        1.00000000000000       0.000000000000000E+000        
  0.000000000000000E+000  0.000000000000000E+000                                
  0.485000000000000       0.000000000000000E+000   1.00000000000000             
  0.000000000000000E+000  0.000000000000000E+000                                
   24.6940000000000       0.000000000000000E+000  0.000000000000000E+000        
   1.00000000000000       0.000000000000000E+000                                
  0.187000000000000       0.000000000000000E+000  0.000000000000000E+000        
  0.000000000000000E+000   1.00000000000000                                     
    2    2                                                                      
   1.01100000000000        1.00000000000000       0.000000000000000E+000        
  0.424000000000000       0.000000000000000E+000   1.00000000000000             
          8.00000000    1    5    1    1    1    1    1                         
O #2   0.000000000000000   0.000000000000000  -0.754165780597728                
   16    9                                                                      
   61420.0000000000       9.000000000000001E-005 -2.000000000000000E-005        
  0.000000000000000E+000  0.000000000000000E+000  0.000000000000000E+000        
  0.000000000000000E+000  0.000000000000000E+000  0.000000000000000E+000        
  0.000000000000000E+000                                                        
   9199.00000000000       6.980000000000001E-004 -1.590000000000000E-004        
  0.000000000000000E+000  0.000000000000000E+000  0.000000000000000E+000        
  0.000000000000000E+000  0.000000000000000E+000  0.000000000000000E+000        
  0.000000000000000E+000                                                        
   2091.00000000000       3.664000000000000E-003 -8.290000000000000E-004        
  0.000000000000000E+000  0.000000000000000E+000  0.000000000000000E+000        
  0.000000000000000E+000  0.000000000000000E+000  0.000000000000000E+000        
  0.000000000000000E+000                                                        
   590.900000000000       1.521800000000000E-002 -3.508000000000000E-003        
  0.000000000000000E+000  0.000000000000000E+000  0.000000000000000E+000        
  0.000000000000000E+000  0.000000000000000E+000  0.000000000000000E+000        
  0.000000000000000E+000                                                        
   192.300000000000       5.242300000000000E-002 -1.215600000000000E-002        
  0.000000000000000E+000  0.000000000000000E+000  0.000000000000000E+000        
  0.000000000000000E+000  0.000000000000000E+000  0.000000000000000E+000        
  0.000000000000000E+000                                                        
   69.3200000000000       0.145921000000000      -3.626100000000000E-002        
  0.000000000000000E+000  0.000000000000000E+000  0.000000000000000E+000        
  0.000000000000000E+000  0.000000000000000E+000  0.000000000000000E+000        
  0.000000000000000E+000                                                        
   26.9700000000000       0.305258000000000      -8.299200000000000E-002        
  0.000000000000000E+000  0.000000000000000E+000  0.000000000000000E+000        
  0.000000000000000E+000  0.000000000000000E+000  0.000000000000000E+000        
  0.000000000000000E+000                                                        
   11.1000000000000       0.398508000000000      -0.152090000000000             
  0.000000000000000E+000  0.000000000000000E+000  0.000000000000000E+000        
  0.000000000000000E+000  0.000000000000000E+000  0.000000000000000E+000        
  0.000000000000000E+000                                                        
   4.68200000000000       0.216980000000000      -0.115331000000000             
  0.000000000000000E+000  0.000000000000000E+000  0.000000000000000E+000        
  0.000000000000000E+000  0.000000000000000E+000  0.000000000000000E+000        
  0.000000000000000E+000                                                        
   1.42800000000000       1.759400000000000E-002  0.288979000000000             
   1.00000000000000       0.000000000000000E+000  0.000000000000000E+000        
  0.000000000000000E+000  0.000000000000000E+000  0.000000000000000E+000        
  0.000000000000000E+000                                                        
  0.554700000000000      -2.502000000000000E-003  0.586128000000000             
  0.000000000000000E+000   1.00000000000000       0.000000000000000E+000        
  0.000000000000000E+000  0.000000000000000E+000  0.000000000000000E+000        
  0.000000000000000E+000                                                        
  0.206700000000000       9.540000000000000E-004  0.277624000000000             
  0.000000000000000E+000  0.000000000000000E+000   1.00000000000000             
  0.000000000000000E+000  0.000000000000000E+000  0.000000000000000E+000        
  0.000000000000000E+000                                                        
   12.9740000000000       0.000000000000000E+000  0.000000000000000E+000        
  0.000000000000000E+000  0.000000000000000E+000  0.000000000000000E+000        
   1.00000000000000       0.000000000000000E+000  0.000000000000000E+000        
  0.000000000000000E+000                                                        
   34.9000000000000       0.000000000000000E+000  0.000000000000000E+000        
  0.000000000000000E+000  0.000000000000000E+000  0.000000000000000E+000        
  0.000000000000000E+000   1.00000000000000       0.000000000000000E+000        
  0.000000000000000E+000                                                        
   93.8810000000000       0.000000000000000E+000  0.000000000000000E+000        
  0.000000000000000E+000  0.000000000000000E+000  0.000000000000000E+000        
  0.000000000000000E+000  0.000000000000000E+000   1.00000000000000             
  0.000000000000000E+000                                                        
  6.959000000000000E-002  0.000000000000000E+000  0.000000000000000E+000        
  0.000000000000000E+000  0.000000000000000E+000  0.000000000000000E+000        
  0.000000000000000E+000  0.000000000000000E+000  0.000000000000000E+000        
   1.00000000000000                                                             
   10    8                                                                      
   63.4200000000000       6.044000000000000E-003  0.000000000000000E+000        
  0.000000000000000E+000  0.000000000000000E+000  0.000000000000000E+000        
  0.000000000000000E+000  0.000000000000000E+000  0.000000000000000E+000        
   14.6600000000000       4.179900000000000E-002  0.000000000000000E+000        
  0.000000000000000E+000  0.000000000000000E+000  0.000000000000000E+000        
  0.000000000000000E+000  0.000000000000000E+000  0.000000000000000E+000        
   4.45900000000000       0.161143000000000       0.000000000000000E+000        
  0.000000000000000E+000  0.000000000000000E+000  0.000000000000000E+000        
  0.000000000000000E+000  0.000000000000000E+000  0.000000000000000E+000        
   1.53100000000000       0.356731000000000        1.00000000000000             
  0.000000000000000E+000  0.000000000000000E+000  0.000000000000000E+000        
  0.000000000000000E+000  0.000000000000000E+000  0.000000000000000E+000        
  0.530200000000000       0.448309000000000       0.000000000000000E+000        
   1.00000000000000       0.000000000000000E+000  0.000000000000000E+000        
  0.000000000000000E+000  0.000000000000000E+000  0.000000000000000E+000        
  0.175000000000000       0.244940000000000       0.000000000000000E+000        
  0.000000000000000E+000   1.00000000000000       0.000000000000000E+000        
  0.000000000000000E+000  0.000000000000000E+000  0.000000000000000E+000        
   14.4750000000000       0.000000000000000E+000  0.000000000000000E+000        
  0.000000000000000E+000  0.000000000000000E+000   1.00000000000000             
  0.000000000000000E+000  0.000000000000000E+000  0.000000000000000E+000        
   42.7300000000000       0.000000000000000E+000  0.000000000000000E+000        
  0.000000000000000E+000  0.000000000000000E+000  0.000000000000000E+000        
   1.00000000000000       0.000000000000000E+000  0.000000000000000E+000        
   126.140000000000       0.000000000000000E+000  0.000000000000000E+000        
  0.000000000000000E+000  0.000000000000000E+000  0.000000000000000E+000        
  0.000000000000000E+000   1.00000000000000       0.000000000000000E+000        
  5.348000000000000E-002  0.000000000000000E+000  0.000000000000000E+000        
  0.000000000000000E+000  0.000000000000000E+000  0.000000000000000E+000        
  0.000000000000000E+000  0.000000000000000E+000   1.00000000000000             
    6    6                                                                      
   3.77500000000000        1.00000000000000       0.000000000000000E+000        
  0.000000000000000E+000  0.000000000000000E+000  0.000000000000000E+000        
  0.000000000000000E+000                                                        
   1.30000000000000       0.000000000000000E+000   1.00000000000000             
  0.000000000000000E+000  0.000000000000000E+000  0.000000000000000E+000        
  0.000000000000000E+000                                                        
  0.444000000000000       0.000000000000000E+000  0.000000000000000E+000        
   1.00000000000000       0.000000000000000E+000  0.000000000000000E+000        
  0.000000000000000E+000                                                        
   14.9270000000000       0.000000000000000E+000  0.000000000000000E+000        
  0.000000000000000E+000   1.00000000000000       0.000000000000000E+000        
  0.000000000000000E+000                                                        
   57.5440000000000       0.000000000000000E+000  0.000000000000000E+000        
  0.000000000000000E+000  0.000000000000000E+000   1.00000000000000             
  0.000000000000000E+000                                                        
  0.154000000000000       0.000000000000000E+000  0.000000000000000E+000        
  0.000000000000000E+000  0.000000000000000E+000  0.000000000000000E+000        
   1.00000000000000                                                             
    4    4                                                                      
   2.66600000000000        1.00000000000000       0.000000000000000E+000        
  0.000000000000000E+000  0.000000000000000E+000                                
  0.859000000000000       0.000000000000000E+000   1.00000000000000             
  0.000000000000000E+000  0.000000000000000E+000                                
   26.4830000000000       0.000000000000000E+000  0.000000000000000E+000        
   1.00000000000000       0.000000000000000E+000                                
  0.324000000000000       0.000000000000000E+000  0.000000000000000E+000        
  0.000000000000000E+000   1.00000000000000                                     
    2    2                                                                      
   1.84600000000000        1.00000000000000       0.000000000000000E+000        
  0.714000000000000       0.000000000000000E+000   1.00000000000000             
FINISH                                                                          
 
********************************************************************************
 ONE- AND TWO-ELECTRON INTEGRALS OVER SYMMETRY-ADAPTED AOS ARE CALCULATED.

  SPHERICAL HARMONICS ARE USED.
  
  INTEGRALS LESS THAN  0.10E-13 ARE NEGLECTED.

  NUCLEAR REPULSION ENERGY :   27.2820193778 A.U.
  @MOLECU-I, ONE ELECTRON INTEGRALS (CPU/WALL):        0.06/       0.06 SECONDS.
  @TWOEL-I,    4709304 INTEGRALS OF SYMMETRY TYPE  I I I I
  @TWOEL-I,   20152466 INTEGRALS OF SYMMETRY TYPE  I J I J
  @TWOEL-I,   10620543 INTEGRALS OF SYMMETRY TYPE  I I J J
  @TWOEL-I,   14873331 INTEGRALS OF SYMMETRY TYPE  I J K L
  @TWOEL-I, TOTAL NUMBER OF 2-E INTEGRALS   50355644.
  @MOLECU-I, TWO ELECTRON INTEGRALS (CPU/WALL):      153.92/      21.09 SECONDS.
 @CHECKOUT-I, Total execution time (CPU/WALL):      154.00/      21.17 seconds.

Running with 14 threads/proc

--executable xvmol finished with status     0 in       21.20 seconds (walltime).
 --invoking executable--
/nfs/workspaces/public/cfour_mpi/bin/xvmol2ja
 @GETMEM-I,  Allocated    3814 MB of main memory.
 @CHECKOUT-I, Total execution time (CPU/WALL):        0.14/       0.03 seconds.
--executable xvmol2ja finished with status     0 in        0.05 seconds (walltime).
 --invoking executable--
/nfs/workspaces/public/cfour_mpi/bin/xvprop
 @GETMEM-I,  Allocated    3814 MB of main memory.
   Property integrals will be calculated.
    --------------------------------------------------------------
                                   Property evaluated at 
    Property type                X             Y             Z
    --------------------------------------------------------------
    Dipole moment               ----          ----          ----  
    Quadrupole moment           ----          ----          ----  
    Octopole moment             ----          ----          ----  
    Relativisitic corr.         ----          ----          ----  
    Second moment            0.0000000     0.0000000     0.0000000
    Electron density         0.0000000     0.0000000     1.0052348
    Electron density         0.0000000     0.0000000    -0.7541658
    Field gradient           0.0000000     0.0000000     1.0052348
    Field gradient           0.0000000     0.0000000    -0.7541658
    Potential                0.0000000     0.0000000     1.0052348
    Potential                0.0000000     0.0000000    -0.7541658
    --------------------------------------------------------------
 @CHECKOUT-I, Total execution time (CPU/WALL):        1.29/       1.29 seconds.
--executable xvprop finished with status     0 in        1.30 seconds (walltime).
 --invoking executable--
/nfs/workspaces/public/cfour_mpi/bin/xvscf
  There are  218 functions in the AO basis.

  There are 4 irreducible representations.

       Irrep        # of functions
         1                 86
         2                 52
         3                 52
         4                 28


  Parameters for SCF calculation: 
        SCF reference function:  RHF  
  Maximum number of iterations:  150
     Full symmetry point group: CXv 
     Computational point group: C2v 
        Initial density matrix: MOREAD                 
     SCF convergence tolerance: 10**(-10)
  DIIS convergence acceleration:  ON
          Latest start for DIIS:   8
                     DIIS order:   6

  Memory information:    2523578 words required.
  Fock matrices are constructed from AO integral file.
 @GETMEM-I,  Allocated      19 MB of main memory.
  Initialization and symmetry analysis required      0.002 seconds.

  Adding electric field perturbation to one-electron Hamiltonian.
  Field direction     : Z
  Field strength      :  0.0002000 a.u.

  @INITGES-I, Occupancies from core Hamiltonian:

          Alpha population by irrep:   5    1    1    0
           Beta population by irrep:   5    1    1    0


 total no. of electrons in initial guess :  0.000000000000000E+000
  --------------------------------------------------------------------
  Iteration         Total Energy            Largest Density Difference
  --------------------------------------------------------------------
       0            27.282019761298976              0.0000000000D+00
   current occupation vector 
     5  1  1  0
     5  1  1  0
       1           -89.707025926035584              0.2067362974D+02
   current occupation vector 
     5  1  1  0
     5  1  1  0
       2           -91.699324046684978              0.1252818617D+03
   current occupation vector 
     5  1  1  0
     5  1  1  0
       3          -104.301874650465862              0.1253003119D+03
   current occupation vector 
     4  1  2  0
     4  1  2  0
       4          -102.168903225564122              0.1841116218D+02
   current occupation vector 
     5  1  1  0
     5  1  1  0
       5          -106.464261580459919              0.1840977670D+02
   current occupation vector 
     4  1  2  0
     4  1  2  0
       6          -103.859123861931323              0.1362152633D+02
   current occupation vector 
     5  1  1  0
     5  1  1  0
       7          -105.403009005353596              0.1334323199D+02
   current occupation vector 
     5  1  1  0
     5  1  1  0
       8          -102.996756633167195              0.4849537928D+01
   current occupation vector 
     5  1  1  0
     5  1  1  0
       9          -112.096410477058072              0.3061344046D+01
   current occupation vector 
     5  1  1  0
     5  1  1  0
      10          -112.585046907864836              0.6661452909D+00
   current occupation vector 
     5  1  1  0
     5  1  1  0
      11          -112.668709737511648              0.2219768728D+00
   current occupation vector 
     5  1  1  0
     5  1  1  0
      12          -112.670869216991491              0.4402717268D-01
   current occupation vector 
     5  1  1  0
     5  1  1  0
      13          -112.670959887800052              0.1299333244D-01
   current occupation vector 
     5  1  1  0
     5  1  1  0
      14          -112.670967005459147              0.3784485055D-02
   current occupation vector 
     5  1  1  0
     5  1  1  0
      15          -112.670968138996898              0.1840871330D-02
   current occupation vector 
     5  1  1  0
     5  1  1  0
      16          -112.670968214514289              0.4478991497D-03
   current occupation vector 
     5  1  1  0
     5  1  1  0
      17          -112.670968217157935              0.9537007038D-04
   current occupation vector 
     5  1  1  0
     5  1  1  0
      18          -112.670968217216284              0.1059789511D-04
   current occupation vector 
     5  1  1  0
     5  1  1  0
      19          -112.670968217219382              0.1608905900D-05
   current occupation vector 
     5  1  1  0
     5  1  1  0
      20          -112.670968217219610              0.4999594687D-06
   current occupation vector 
     5  1  1  0
     5  1  1  0
      21          -112.670968217218501              0.8393900486D-07
   current occupation vector 
     5  1  1  0
     5  1  1  0
      22          -112.670968217219325              0.1878297629D-07
   current occupation vector 
     5  1  1  0
     5  1  1  0
      23          -112.670968217218899              0.4832551026D-08
   current occupation vector 
     5  1  1  0
     5  1  1  0
      24          -112.670968217219013              0.1529709248D-08
   current occupation vector 
     5  1  1  0
     5  1  1  0
      25          -112.670968217219411              0.6249787354D-09
   current occupation vector 
     5  1  1  0
     5  1  1  0
      26          -112.670968217219951              0.1950992701D-09
   current occupation vector 
     5  1  1  0
     5  1  1  0
      27          -112.670968217219837              0.2381898567D-09
   current occupation vector 
     5  1  1  0
     5  1  1  0
      28          -112.670968217220121              0.2477628103D-09
   current occupation vector 
     5  1  1  0
     5  1  1  0
      29          -112.670968217219240              0.1250134996D-09
   current occupation vector 
     5  1  1  0
     5  1  1  0
      30          -112.670968217219695              0.1609745670D-09
   current occupation vector 
     5  1  1  0
     5  1  1  0
      31          -112.670968217219723              0.1809370431D-09
   current occupation vector 
     5  1  1  0
     5  1  1  0
      32          -112.670968217219638              0.1199270683D-09
   current occupation vector 
     5  1  1  0
     5  1  1  0

  SCF has converged.

 Density matrix saved to file den.dat
 total electron number:   14.0000000000005     
     E(SCF)=      -112.670968217219411              0.2900701901D-10

  Eigenvector printing suppressed.

 @PUTMOS-I, Writing converged MOs to NEWMOS. 
 @PUTMOS-I, Symmetry   1 Full Blocks 21 Partial Blocksize   2
 @PUTMOS-I, Symmetry   2 Full Blocks 13 Partial Blocksize   0
 @PUTMOS-I, Symmetry   3 Full Blocks 13 Partial Blocksize   0
 @PUTMOS-I, Symmetry   4 Full Blocks  7 Partial Blocksize   0
 @PUTFOCK-I, Writing converged Fock matrix to NEWFOCK. 
 @PUTFOCK-I, Symmetry   1 Full Blocks 21 Partial Blocksize   2
 @PUTFOCK-I, Symmetry   2 Full Blocks 13 Partial Blocksize   0
 @PUTFOCK-I, Symmetry   3 Full Blocks 13 Partial Blocksize   0
 @PUTFOCK-I, Symmetry   4 Full Blocks  7 Partial Blocksize   0


 
  ORBITAL EIGENVALUES (ALPHA)  (1H = 27.2113834 eV)

       MO #        E(hartree)               E(eV)           FULLSYM    COMPSYM
       ----   --------------------   --------------------   -------   ---------
    1     1         -20.6487225819        -561.8803068960     SG+        A1 (1)
    2     2         -11.2713642726        -306.7094146620     SG+        A1 (1)
    3     3          -1.6604382073         -45.1828206700     SG+        A1 (1)
    4     4          -0.8208221981         -22.3357075361     SG+        A1 (1)
    5    87          -0.7424678304         -20.2035767942      PI        B1 (2)
    6   139          -0.7424678304         -20.2035767942      PI        B2 (3)
    7     5          -0.5251504362         -14.2900698627     SG+        A1 (1)
  +++++++++++++++++++++++++++++++++++++++++++++++++++++++++++++++++++++++++++++
    8     6           0.0559804359           1.5233051031     SG+        A1 (1)
    9    88           0.0652169357           1.7746430402      PI        B1 (2)
   10   140           0.0652169357           1.7746430402      PI        B2 (3)
   11     7           0.0781874906           2.1275897839     SG+        A1 (1)
   12    89           0.1541730241           4.1952612694      PI        B1 (2)
   13   141           0.1541730241           4.1952612694      PI        B2 (3)
   14     8           0.1560885706           4.2473859387     SG+        A1 (1)
   15    90           0.2069204748           5.6305923739      PI        B1 (2)
   16   142           0.2069204748           5.6305923739      PI        B2 (3)
   17     9           0.2261867147           6.1548534132     SG+        A1 (1)
   18    10           0.2272009764           6.1824528772      DE        A1 (1)
   19   191           0.2272009764           6.1824528772      DE        A2 (4)
   20    11           0.3028719299           8.2415642067     SG+        A1 (1)
   21   143           0.3471478622           9.4463735754      PI        B2 (3)
   22    91           0.3471478622           9.4463735754      PI        B1 (2)
   23    12           0.4005162160          10.8986003120     SG+        A1 (1)
   24   144           0.4083623294          11.1121039126      PI        B2 (3)
   25    92           0.4083623294          11.1121039126      PI        B1 (2)
   26    13           0.5072877126          13.8040004411     SG+        A1 (1)
   27    14           0.5188984065          14.1199434854      DE        A1 (1)
   28   192           0.5188984065          14.1199434854      DE        A2 (4)
   29   145           0.6174964246          16.8029319568      PI        B2 (3)
   30    93           0.6174964246          16.8029319568      PI        B1 (2)
   31    15           0.6589309887          17.9304237681     SG+        A1 (1)
   32   146           0.7501959075          20.4138684650      PH        B2 (3)
   33    94           0.7501959075          20.4138684650      PH        B1 (2)
   34   193           0.7695835816          20.9414338981      DE        A2 (4)
   35    16           0.7695835816          20.9414338981      DE        A1 (1)
   36    17           0.7976456217          21.7050408281     SG+        A1 (1)
   37   147           0.8496210212          23.1193633535      PI        B2 (3)
   38    95           0.8496210212          23.1193633535      PI        B1 (2)
   39    96           0.8693331290          23.6557570756      PI        B1 (2)
   40   148           0.8693331290          23.6557570756      PI        B2 (3)
   41    18           0.8803059290          23.9543421434     SG+        A1 (1)
   42    19           0.9100361612          24.7633428916      DE        A1 (1)
   43   194           0.9100361612          24.7633428916      DE        A2 (4)
   44    20           0.9662558050          26.2931571715     SG+        A1 (1)
   45   149           1.1328299344          30.8258696726      PI        B2 (3)
   46    97           1.1328299344          30.8258696726      PI        B1 (2)
   47    21           1.3627841264          37.0832413551     SG+        A1 (1)
   48   150           1.4596151729          39.7181480856      PH        B2 (3)
   49    98           1.4596151729          39.7181480856      PH        B1 (2)
   50    22           1.4952552142          40.6879629148      DE        A1 (1)
   51   195           1.4952552142          40.6879629148      DE        A2 (4)
   52   151           1.5232831516          41.4506418637      PI        B2 (3)
   53    99           1.5232831516          41.4506418637      PI        B1 (2)
   54    23           1.5623320250          42.5132157305     SG+        A1 (1)
   55    24           1.6646037870          45.2961718577     SG+        A1 (1)
   56   196           1.7732129118          48.2515763939      DE        A2 (4)
   57    25           1.7732129118          48.2515763939      DE        A1 (1)
   58    26           1.7786627449          48.3998738907     SG+        A1 (1)
   59   100           1.8550923792          50.4796299726      PI        B1 (2)
   60   152           1.8550923792          50.4796299727      PI        B2 (3)
   61   153           2.0209570404          54.9930368611      PI        B2 (3)
   62   101           2.0209570404          54.9930368611      PI        B1 (2)
   63   197           2.1165107786          57.5931862658      PI        A2 (4)
   64    27           2.1165107786          57.5931862658      PI        A1 (1)
   65    28           2.2387436072          60.9193106285     SG+        A1 (1)
   66   198           2.2437813286          61.0563939970      DE        A2 (4)
   67    29           2.2437813286          61.0563939970      DE        A1 (1)
   68   102           2.2648729935          61.6303273794      PH        B1 (2)
   69   154           2.2648729935          61.6303273794      PH        B2 (3)
   70    30           2.3514900981          63.9872986195     SG+        A1 (1)
   71   155           2.3590533877          64.1931061944      PI        B2 (3)
   72   103           2.3590533877          64.1931061944      PI        B1 (2)
   73   199           2.3940849000          65.1463621067      DE        A2 (4)
   74    31           2.3940849000          65.1463621067      DE        A1 (1)
   75   104           2.4405065109          66.4095583574      PH        B1 (2)
   76   156           2.4405065109          66.4095583574      PH        B2 (3)
   77   157           2.6109450036          71.0474255290      PI        B2 (3)
   78   105           2.6109450036          71.0474255290      PI        B1 (2)
   79    32           2.6524365996          72.1764692552     SG+        A1 (1)
   80   158           3.0660769992          83.4321967598      PI        B2 (3)
   81   106           3.0660769992          83.4321967598      PI        B1 (2)
   82   200           3.1602469750          85.9946920742      DE        A2 (4)
   83    33           3.1602469750          85.9946920746      DE        A1 (1)
   84    34           3.1845365225          86.6556442645     SG+        A1 (1)
   85    35           3.3539622926          91.2659538544     SG+        A1 (1)
   86   107           3.7400509572         101.7719605331      PI        B1 (2)
   87   159           3.7400509572         101.7719605332      PI        B2 (3)
   88   201           3.7792657463         102.8390491936      PI        A2 (4)
   89    36           3.7792657463         102.8390491936      PI        A1 (1)
   90    37           4.0069071878         109.0334877358     SG+        A1 (1)
   91   108           4.0593186585         110.4596763592      PH        B1 (2)
   92   160           4.0593186585         110.4596763592      PH        B2 (3)
   93   202           4.1802275607         113.7497748533      DE        A2 (4)
   94    38           4.1802275607         113.7497748534      DE        A1 (1)
   95   161           4.2194980028         114.8183779100      PI        B2 (3)
   96   109           4.2194980028         114.8183779100      PI        B1 (2)
   97    39           4.3560298759         118.5335990561     SG+        A1 (1)
   98   203           4.4737619279         121.7372510602      DE        A2 (4)
   99    40           4.4737619279         121.7372510603      DE        A1 (1)
  100   110           4.5271081964         123.1888768251      PH        B1 (2)
  101   162           4.5271081964         123.1888768251      PH        B2 (3)
  102    41           4.7209292285         128.4630152401     SG+        A1 (1)
  103   111           4.9344262785         134.2725653229      PI        B1 (2)
  104   163           4.9344262785         134.2725653229      PI        B2 (3)
  105    42           5.1745374581         140.8063226910     SG+        A1 (1)
  106    43           5.2069345923         141.6878935299      DE        A1 (1)
  107   204           5.2069345923         141.6878935299      DE        A2 (4)
  108   164           5.3514635290         145.6207258380      PI        B2 (3)
  109   112           5.3514635290         145.6207258381      PI        B1 (2)
  110    44           5.9322268937         161.4241004210      PI        A1 (1)
  111   205           5.9322268937         161.4241004210      PI        A2 (4)
  112   113           6.0229791072         163.8935936950      PI        B1 (2)
  113   165           6.0229791072         163.8935936951      PI        B2 (3)
  114    45           6.1459516991         167.2398480428     SG+        A1 (1)
  115   114           6.3169337473         171.8925061091      PH        B1 (2)
  116   166           6.3169337473         171.8925061091      PH        B2 (3)
  117   206           6.3516398031         172.8369059001      DE        A2 (4)
  118    46           6.3516398031         172.8369059001      DE        A1 (1)
  119    47           6.3624927756         173.1322302968     SG+        A1 (1)
  120   115           6.4304471409         174.9813625848      PI        B1 (2)
  121   167           6.4304471409         174.9813625849      PI        B2 (3)
  122   116           6.5639789498         178.6149478336      PH        B1 (2)
  123   168           6.5639789498         178.6149478336      PH        B2 (3)
  124   207           6.7877536866         184.7041679906      DE        A2 (4)
  125    48           6.7877536866         184.7041679909      DE        A1 (1)
  126    49           7.1722390567         195.1665468083     SG+        A1 (1)
  127   117           8.0070086978         217.8817835639      PI        B1 (2)
  128   169           8.0070086978         217.8817835640      PI        B2 (3)
  129    50           8.2100652377         223.4072329210      DE        A1 (1)
  130   208           8.2100652377         223.4072329212      DE        A2 (4)
  131    51           8.6876088556         236.4018553989     SG+        A1 (1)
  132    52           8.8784342704         241.5944789243     SG+        A1 (1)
  133   118           9.0153094672         245.3190423820      PI        B1 (2)
  134   170           9.0153094672         245.3190423820      PI        B2 (3)
  135    53           9.9011101487         269.4229043407     SG+        A1 (1)
  136   119          10.2259697908         278.2627846147      PI        B1 (2)
  137   171          10.2259697908         278.2627846150      PI        B2 (3)
  138   209          10.6094707432         288.6983760656      PI        A2 (4)
  139    54          10.6094707432         288.6983760656      PI        A1 (1)
  140   172          11.0773844441         301.4309551774      PH        B2 (3)
  141   120          11.0773844441         301.4309551774      PH        B1 (2)
  142   210          11.3763449284         309.5660835382      DE        A2 (4)
  143    55          11.3763449284         309.5660835383      DE        A1 (1)
  144    56          11.4092544110         310.4615960850     SG+        A1 (1)
  145   173          11.4839863951         312.4951567579      PI        B2 (3)
  146   121          11.4839863951         312.4951567580      PI        B1 (2)
  147   122          11.8812485011         323.3052082335      PH        B1 (2)
  148   174          11.8812485011         323.3052082335      PH        B2 (3)
  149    57          12.4942810573         339.9866721577      DE        A1 (1)
  150   211          12.4942810573         339.9866721580      DE        A2 (4)
  151    58          13.0212860227         354.3272063242     SG+        A1 (1)
  152    59          13.2166930049         359.6445006357      DE        A1 (1)
  153   212          13.2166930049         359.6445006357      DE        A2 (4)
  154   123          13.3374372985         362.9301199018      PI        B1 (2)
  155   175          13.3374372985         362.9301199018      PI        B2 (3)
  156    60          14.1983080889         386.3556050381     SG+        A1 (1)
  157   124          15.2979638831         416.2787604623      PI        B1 (2)
  158   176          15.2979638831         416.2787604623      PI        B2 (3)
  159    61          15.6500280359         425.8589131055     SG+        A1 (1)
  160    62          19.0526615947         518.4492794430     SG+        A1 (1)
  161   125          19.7219994912         536.6628895709      PI        B1 (2)
  162   177          19.7219994913         536.6628895712      PI        B2 (3)
  163    63          21.7962440308         593.1059530031     SG+        A1 (1)
  164   213          26.7936868818         729.0932864407      DE        A2 (4)
  165    64          26.7936868818         729.0932864408      DE        A1 (1)
  166   126          27.9362126077         760.1829920124      PI        B1 (2)
  167   178          27.9362126077         760.1829920124      PI        B2 (3)
  168    65          29.2113531785         794.8813309738     SG+        A1 (1)
  169   127          34.0595172363         926.8065819365      PI        B1 (2)
  170   179          34.0595172364         926.8065819377      PI        B2 (3)
  171    66          36.3325368149         988.6585891645     SG+        A1 (1)
  172    67          37.5049540768        1020.5616847835     SG+        A1 (1)
  173   214          47.2448433197        1285.5975452461      DE        A2 (4)
  174    68          47.2448433197        1285.5975452461      DE        A1 (1)
  175   180          48.2289151366        1312.3755007488      PI        B2 (3)
  176   128          48.2289151366        1312.3755007488      PI        B1 (2)
  177    69          48.8593808431        1329.5313448077     SG+        A1 (1)
  178    70          65.0804640605        1770.9294594015     SG+        A1 (1)
  179   129          67.1511536629        1827.2757880733      PI        B1 (2)
  180   181          67.1511536629        1827.2757880734      PI        B2 (3)
  181    71          68.7494750530        1870.7683242171     SG+        A1 (1)
  182   130          98.7821782400        2687.9997251758      PH        B1 (2)
  183   182          98.7821782400        2687.9997251758      PH        B2 (3)
  184    72          98.8363165592        2689.4729037355      DE        A1 (1)
  185   215          98.8363165592        2689.4729037355      DE        A2 (4)
  186   183          98.8891866487        2690.9115720120      PI        B2 (3)
  187   131          98.8891866487        2690.9115720120      PI        B1 (2)
  188    73          98.9511173924        2692.5967932223     SG+        A1 (1)
  189   132         103.3060572806        2811.1007322040      PH        B1 (2)
  190   184         103.3060572806        2811.1007322040      PH        B2 (3)
  191    74         103.3784487064        2813.0706030464      DE        A1 (1)
  192   216         103.3784487064        2813.0706030476      DE        A2 (4)
  193   133         103.4795532441        2815.8217973862      PI        B1 (2)
  194   185         103.4795532441        2815.8217973862      PI        B2 (3)
  195    75         103.5967104081        2819.0098058943     SG+        A1 (1)
  196   217         115.3798966090        3139.6466032785      DE        A2 (4)
  197    76         115.3798966090        3139.6466032786      DE        A1 (1)
  198   134         115.9430329135        3154.9703211688      PI        B1 (2)
  199   186         115.9430329135        3154.9703211688      PI        B2 (3)
  200    77         116.4657198560        3169.1933559583     SG+        A1 (1)
  201   135         117.2778222757        3191.2917862608      PI        B1 (2)
  202   187         117.2778222757        3191.2917862622      PI        B2 (3)
  203    78         119.2407933170        3244.7069438689     SG+        A1 (1)
  204    79         123.5122627895        3360.9395373656     SG+        A1 (1)
  205    80         198.6663062493        5405.9850280102      DE        A1 (1)
  206   218         198.6663062493        5405.9850280102      DE        A2 (4)
  207   188         199.2119816095        5420.8336094510      PI        B2 (3)
  208   136         199.2119816096        5420.8336094513      PI        B1 (2)
  209    81         199.5599136362        5430.3013212250     SG+        A1 (1)
  210    82         217.4941819701        5918.3175728568     SG+        A1 (1)
  211   137         225.5399773488        6137.2547956654      PI        B1 (2)
  212   189         225.5399773488        6137.2547956655      PI        B2 (3)
  213    83         226.8174825403        6172.0174792276     SG+        A1 (1)
  214   138         395.6809959502       10767.0272848937      PI        B1 (2)
  215   190         395.6809959502       10767.0272848951      PI        B2 (3)
  216    84         397.1268739905       10806.3716265980     SG+        A1 (1)
  217    85         509.9364809428       13876.0770925802     SG+        A1 (1)
  218    86         896.3902118323       24392.0177301768     SG+        A1 (1)


  VSCF finished.

 @CHECKOUT-I, Total execution time (CPU/WALL):       55.12/      10.38 seconds.
--executable xvscf finished with status     0 in       10.41 seconds (walltime).
 --invoking executable--
/nfs/workspaces/public/cfour_mpi/bin/xvtran
 @GETMEM-I,  Allocated    3814 MB of main memory.
  Full RHF integral transformation
  Transformation of IIII integrals :
  1 pass through the AO integral file was required.
     4709304 AO integrals were read.
     8901023 MO integrals were written to HF2.
  Transformation of IIJJ integrals :
  1 pass through the AO integral file was required.
    10620543 AO integrals were read.
    14737920 MO integrals were written to HF2.
  Transformation of IJIJ integrals :
  1 pass through the AO integral file was required.
    20152466 AO integrals were read.
    28016652 MO integrals were written to HF2.
  Transformation of IJKL integrals :
  1 pass through the AO integral file was required.
    14873331 AO integrals were read.
    18967128 MO integrals were written to HF2.
  Summary of active molecular orbitals: 
------------------------------------------------------------------------
 
  Index      Eigenvalue    Symmetry    Index      Eigenvalue    Symmetry
------------------------------------------------------------------------
     1       -20.6487226        1       110         4.2194980        2
     2       -11.2713643        1       111         4.5271082        2
     3        -1.6604382        1       112         4.9344263        2
     4        -0.8208222        1       113         5.3514635        2
     5        -0.5251504        1       114         6.0229791        2
     6        -0.7424678        2       115         6.3169337        2
     7        -0.7424678        3       116         6.4304471        2
     8         0.0559804        1       117         6.5639789        2
     9         0.0781875        1       118         8.0070087        2
    10         0.1560886        1       119         9.0153095        2
    11         0.2261867        1       120        10.2259698        2
    12         0.2272010        1       121        11.0773844        2
    13         0.3028719        1       122        11.4839864        2
    14         0.4005162        1       123        11.8812485        2
    15         0.5072877        1       124        13.3374373        2
    16         0.5188984        1       125        15.2979639        2
    17         0.6589310        1       126        19.7219995        2
    18         0.7695836        1       127        27.9362126        2
    19         0.7976456        1       128        34.0595172        2
    20         0.8803059        1       129        48.2289151        2
    21         0.9100362        1       130        67.1511537        2
    22         0.9662558        1       131        98.7821782        2
    23         1.3627841        1       132        98.8891866        2
    24         1.4952552        1       133       103.3060573        2
    25         1.5623320        1       134       103.4795532        2
    26         1.6646038        1       135       115.9430329        2
    27         1.7732129        1       136       117.2778223        2
    28         1.7786627        1       137       199.2119816        2
    29         2.1165108        1       138       225.5399773        2
    30         2.2387436        1       139       395.6809960        2
    31         2.2437813        1       140         0.0652169        3
    32         2.3514901        1       141         0.1541730        3
    33         2.3940849        1       142         0.2069205        3
    34         2.6524366        1       143         0.3471479        3
    35         3.1602470        1       144         0.4083623        3
    36         3.1845365        1       145         0.6174964        3
    37         3.3539623        1       146         0.7501959        3
    38         3.7792657        1       147         0.8496210        3
    39         4.0069072        1       148         0.8693331        3
    40         4.1802276        1       149         1.1328299        3
    41         4.3560299        1       150         1.4596152        3
    42         4.4737619        1       151         1.5232832        3
    43         4.7209292        1       152         1.8550924        3
    44         5.1745375        1       153         2.0209570        3
    45         5.2069346        1       154         2.2648730        3
    46         5.9322269        1       155         2.3590534        3
    47         6.1459517        1       156         2.4405065        3
    48         6.3516398        1       157         2.6109450        3
    49         6.3624928        1       158         3.0660770        3
    50         6.7877537        1       159         3.7400510        3
    51         7.1722391        1       160         4.0593187        3
    52         8.2100652        1       161         4.2194980        3
    53         8.6876089        1       162         4.5271082        3
    54         8.8784343        1       163         4.9344263        3
    55         9.9011101        1       164         5.3514635        3
    56        10.6094707        1       165         6.0229791        3
    57        11.3763449        1       166         6.3169337        3
    58        11.4092544        1       167         6.4304471        3
    59        12.4942811        1       168         6.5639789        3
    60        13.0212860        1       169         8.0070087        3
    61        13.2166930        1       170         9.0153095        3
    62        14.1983081        1       171        10.2259698        3
    63        15.6500280        1       172        11.0773844        3
    64        19.0526616        1       173        11.4839864        3
    65        21.7962440        1       174        11.8812485        3
    66        26.7936869        1       175        13.3374373        3
    67        29.2113532        1       176        15.2979639        3
    68        36.3325368        1       177        19.7219995        3
    69        37.5049541        1       178        27.9362126        3
    70        47.2448433        1       179        34.0595172        3
    71        48.8593808        1       180        48.2289151        3
    72        65.0804641        1       181        67.1511537        3
    73        68.7494751        1       182        98.7821782        3
    74        98.8363166        1       183        98.8891866        3
    75        98.9511174        1       184       103.3060573        3
    76       103.3784487        1       185       103.4795532        3
    77       103.5967104        1       186       115.9430329        3
    78       115.3798966        1       187       117.2778223        3
    79       116.4657199        1       188       199.2119816        3
    80       119.2407933        1       189       225.5399773        3
    81       123.5122628        1       190       395.6809960        3
    82       198.6663062        1       191         0.2272010        4
    83       199.5599136        1       192         0.5188984        4
    84       217.4941820        1       193         0.7695836        4
    85       226.8174825        1       194         0.9100362        4
    86       397.1268740        1       195         1.4952552        4
    87       509.9364809        1       196         1.7732129        4
    88       896.3902118        1       197         2.1165108        4
    89         0.0652169        2       198         2.2437813        4
    90         0.1541730        2       199         2.3940849        4
    91         0.2069205        2       200         3.1602470        4
    92         0.3471479        2       201         3.7792657        4
    93         0.4083623        2       202         4.1802276        4
    94         0.6174964        2       203         4.4737619        4
    95         0.7501959        2       204         5.2069346        4
    96         0.8496210        2       205         5.9322269        4
    97         0.8693331        2       206         6.3516398        4
    98         1.1328299        2       207         6.7877537        4
    99         1.4596152        2       208         8.2100652        4
   100         1.5232832        2       209        10.6094707        4
   101         1.8550924        2       210        11.3763449        4
   102         2.0209570        2       211        12.4942811        4
   103         2.2648730        2       212        13.2166930        4
   104         2.3590534        2       213        26.7936869        4
   105         2.4405065        2       214        47.2448433        4
   106         2.6109450        2       215        98.8363166        4
   107         3.0660770        2       216       103.3784487        4
   108         3.7400510        2       217       115.3798966        4
   109         4.0593187        2       218       198.6663062        4
------------------------------------------------------------------------
  -20.6487225818889       -11.2713642725709       -1.66043820726834     
 -0.820822198113603      -0.525150436223181      -0.742467830363377     
 -0.742467830363339       5.598043586090171E-002  7.818749060200716E-002
  0.156088570592441       0.226186714682935       0.227200976382442     
  0.302871929941630       0.400516216020281       0.507287712577817     
  0.518898406517762       0.658930988716738       0.769583581631282     
  0.797645621650825       0.880305929004769       0.910036161247859     
  0.966255804970724        1.36278412640754        1.49525521421372     
   1.56233202500492        1.66460378702188        1.77321291184143     
   1.77866274489585        2.11651077856666        2.23874360715293     
   2.24378132855204        2.35149009805413        2.39408490002402     
   2.65243659957454        3.16024697497155        3.18453652247889     
[...]
 Convergence information after     6 iterations: 
 Largest element of residual vector : -0.34321816E-03.
 Largest element of DIIS residual   : -0.88873709E-04.
 Convergence information after     7 iterations: 
 Largest element of residual vector : -0.59798381E-04.
 Largest element of DIIS residual   : -0.27040688E-04.
 Convergence information after     8 iterations: 
 Largest element of residual vector : -0.16609505E-04.
 Largest element of DIIS residual   :  0.97590338E-05.
 Convergence information after     9 iterations: 
 Largest element of residual vector :  0.50457637E-05.
 Largest element of DIIS residual   :  0.22919690E-05.
 Convergence information after    10 iterations: 
 Largest element of residual vector :  0.18206819E-05.
 Largest element of DIIS residual   :  0.96968719E-06.
 Convergence information after    11 iterations: 
 Largest element of residual vector :  0.50191284E-06.
 Largest element of DIIS residual   :  0.27503764E-06.
 Convergence information after    12 iterations: 
 Largest element of residual vector :  0.19703061E-06.
 Largest element of DIIS residual   :  0.12725408E-06.
 Convergence information after    13 iterations: 
 Largest element of residual vector :  0.79817422E-07.
 Largest element of DIIS residual   :  0.57566747E-07.
 Perturbed amplitude equations converged in    13 iterations.
  Dominant contributions to perturbed wavefunction:
    7    7  142   37   0.2511404790 ABAB
    7    7   37  142   0.2511404790 ABAB
    7    7  142   63   0.1981373693 ABAB
    7    7   63  142   0.1981373693 ABAB
    5    5  142   43   0.1947449169 ABAB
    5    5   43  142   0.1947449169 ABAB
    7    7  142   49   0.1946839621 ABAB
    7    7   49  142   0.1946839621 ABAB
    7    6   37   91   0.1734817752 ABAB
    6    7   91   37   0.1734817752 ABAB
    7    7  143   37   0.1609153356 ABAB
    7    7   37  143   0.1609153356 ABAB
    7    7  142   43   0.1582105527 ABAB
    7    7   43  142   0.1582105527 ABAB
    5    5  142   30  -0.1579310113 ABAB
    5    5   30  142  -0.1579310113 ABAB
    7    7  142   28   0.1568775061 ABAB
    7    7   28  142   0.1568775061 ABAB
    5    5  142   54   0.1558925068 ABAB
    5    5   54  142   0.1558925068 ABAB
  norm of converged amps    3.02255221630441     
 Starting iterative solution of the perturbed Lambda equations.
 The DIIS procedure is used to accelerate convergence.
 Convergence criterion is 10**(-7).
 Maximum number of iterations is 100.
 Convergence information after     1 iterations: 
 Largest element of residual vector : -0.58055122E-01.
 Largest element of DIIS residual   : -0.58055122E-01.
 Convergence information after     2 iterations: 
 Largest element of residual vector :  0.54743959E-02.
 Largest element of DIIS residual   :  0.65276098E-02.
 Convergence information after     3 iterations: 
 Largest element of residual vector : -0.33760437E-02.
 Largest element of DIIS residual   : -0.29953663E-02.
 Convergence information after     4 iterations: 
 Largest element of residual vector : -0.20742856E-02.
 Largest element of DIIS residual   : -0.15378956E-02.
 Convergence information after     5 iterations: 
 Largest element of residual vector : -0.10575743E-02.
 Largest element of DIIS residual   : -0.46624343E-03.
 Convergence information after     6 iterations: 
 Largest element of residual vector : -0.31993811E-03.
 Largest element of DIIS residual   : -0.79951212E-04.
 Convergence information after     7 iterations: 
 Largest element of residual vector : -0.53718986E-04.
 Largest element of DIIS residual   : -0.22498996E-04.
 Convergence information after     8 iterations: 
 Largest element of residual vector : -0.13630598E-04.
 Largest element of DIIS residual   :  0.86388789E-05.
 Convergence information after     9 iterations: 
 Largest element of residual vector :  0.45371564E-05.
 Largest element of DIIS residual   :  0.20146070E-05.
 Convergence information after    10 iterations: 
 Largest element of residual vector :  0.16089301E-05.
 Largest element of DIIS residual   :  0.88232845E-06.
 Convergence information after    11 iterations: 
 Largest element of residual vector :  0.46910387E-06.
 Largest element of DIIS residual   :  0.26507706E-06.
 Convergence information after    12 iterations: 
 Largest element of residual vector :  0.18654799E-06.
 Largest element of DIIS residual   :  0.11874544E-06.
 Convergence information after    13 iterations: 
 Largest element of residual vector :  0.75112402E-07.
 Largest element of DIIS residual   :  0.52375304E-07.
 Perturbed Lambda equations converged in    13 iterations.
  Dominant contributions to perturbed wavefunction:
    7    7  142   37   0.2421292196 ABAB
    7    7   37  142   0.2421292196 ABAB
    7    7  142   63   0.1908251399 ABAB
    7    7   63  142   0.1908251399 ABAB
    7    7  142   49   0.1877532478 ABAB
    7    7   49  142   0.1877532478 ABAB
    5    5  142   43   0.1871683822 ABAB
    5    5   43  142   0.1871683822 ABAB
    7    6   37   91   0.1656621670 ABAB
    6    7   91   37   0.1656621670 ABAB
    7    7  143   37   0.1557344834 ABAB
    7    7   37  143   0.1557344834 ABAB
    5    5  142   30  -0.1520245687 ABAB
    5    5   30  142  -0.1520245687 ABAB
    7    7  142   43   0.1514096030 ABAB
    7    7   43  142   0.1514096030 ABAB
    7    7  142   28   0.1506922427 ABAB
    7    7   28  142   0.1506922427 ABAB
    5    5  142   54   0.1498353182 ABAB
    5    5   54  142   0.1498353182 ABAB
        The DBOC first-order density matrix is being calculated 
             (Symmetry block 3, perturbation   2)
 term   10.9816055066230     
 final tnorm  0.909491065546468     
  norm contr. I: |<0|L dT/dx|0>|^2   0.000000000000000E+000
  norm contr. II: <0|[nabla(1+L)e-T][nabla e^T]|0>   10.9816055066230     
  total norm contribution   10.9816055066230     
 oo  1.352222609833735E-002
 vv  -82.5021910140489     
 vo  1.450679718969332E-002
  Correlated perturbed 1-el contribution to DBOC  -82.4741619907609       cm**-1
  SUM_I |dc_I/dx|^2 contribution to DBOC   41.3425557556138       cm**-1
 
 
  The total diagonal Born-Oppenheimer correction (DBOC) is:      0.0041672411 a.u.
  The total diagonal Born-Oppenheimer correction (DBOC) is:        914.603702 cm-1
 
 Total CC energy including DBOC  -113.145318077703     
 First-order density matrix is being calculated  (Symmetry block 3, perturbation   2)
 Calculation of the contributions of <pq||rs> to dI(i,j)/dx required   1.9 seconds.
 Calculation of the contributions of <pq||rs> to dI(a,b)/dx required  15.6 seconds.
 Calculation of the contributions of <pq||rs> to dI(i,a)/dx required   9.4 seconds.
 First-order Z-vector equations are solved for 1 perturbation.
 Convergence reached after  18 iterations.
        U*G(pq,rs) contribution is being calculated
             (Symmetry block 3, perturbation   2)

 CCSD contribution to force constants 

        0.0000000000        0.0000000000        0.0000000000
        0.0000000000        0.0000000000        0.0000000000
        0.0000000000        0.0000000000        0.0000000000
        0.0000000000        0.0000000000        0.0000000000
        0.0000000000        0.0000000000        0.0000000000
        0.0000000000        0.0000000000        0.0000000000
        0.0000000000        0.0000000000        0.0000000000
        0.0000000000        0.0000000000        0.0000000000
        0.0000000000        0.0000000000        0.0000000000
        0.0000000000        0.0000000000        0.0000000000
        0.0000000000        0.0000000000        0.0000000000
        0.0000000000      -17.0097462104       17.0097462104

 CCSD contribution to dipole derivatives 

        0.0000000000        0.0000000000        0.0000000000
        0.0000000000        0.0000000000        0.0000000000
        0.0000000000        0.0000000000        0.0000000000
        0.0000000000        0.0000000000       -0.0362495247
        0.0000000000        0.0000000000        0.0000000000
        0.0000000000        0.0000000000        0.0000000000
 @CHECKOUT-I, Total execution time (CPU/WALL):      983.85/     265.98 seconds.
--executable xsdcc finished with status     0 in      266.00 seconds (walltime).
 --invoking executable--
/nfs/workspaces/public/cfour_mpi/bin/xanti
 @GETMEM-I,  Allocated    3814 MB of main memory.
 CCSD MO derivative gammas will be sorted to Mulliken order.
 @CHECKOUT-I, Total execution time (CPU/WALL):        8.70/       7.90 seconds.
--executable xanti finished with status     0 in        7.91 seconds (walltime).
 --invoking executable--
/nfs/workspaces/public/cfour_mpi/bin/xbcktrn
 @GETMEM-I,  Allocated    3814 MB of main memory.
 CCSD MO derivative gammas will be transformed to the AO basis.
 @CHECKOUT-I, Total execution time (CPU/WALL):       19.90/       5.54 seconds.
--executable xbcktrn finished with status     0 in        5.57 seconds (walltime).
 --invoking executable--
/nfs/workspaces/public/cfour_mpi/bin/xvdint
 @GETMEM-I,  Allocated    3814 MB of main memory.
 One- and two-electron integral derivatives are calculated
 for RHF-CC/MBPT hessians and dipole derivatives.
 Spherical gaussians are used.
  magnet F F
                    8722  records have been written to the Sort file.
  Total length of Sort file :             178609116  words.
 Evaluation of 2el integral derivatives

                      Two-electron integral gradient
                      ------------------------------

                         C #1 z     0.0000000000
                         O #2 z     0.0000000000


 C #1       0.0000000000           -2.1033466172            0.0000000000
 O #2       0.0000000000            2.1033466172            0.0000000000


 Evaluation of 2e integral derivatives required  360.30 seconds.
  contribution to Hessian
        0.0000000000        0.0000000000        0.0000000000
        0.0000000000       -2.1033466172        2.1033466172
 @CHECKOUT-I, Total execution time (CPU/WALL):      360.29/      70.97 seconds.
--executable xvdint finished with status     0 in       70.99 seconds (walltime).
 --invoking executable--
/nfs/workspaces/public/cfour_mpi/bin/xanti
 @GETMEM-I,  Allocated    3814 MB of main memory.
 CCSD MO gammas will be sorted to Mulliken order.
 @CHECKOUT-I, Total execution time (CPU/WALL):       11.61/      10.23 seconds.
--executable xanti finished with status     0 in       10.26 seconds (walltime).
 --invoking executable--
/nfs/workspaces/public/cfour_mpi/bin/xbcktrn
 @GETMEM-I,  Allocated    3814 MB of main memory.
 CCSD MO gammas will be transformed to the AO basis.
 @CHECKOUT-I, Total execution time (CPU/WALL):       33.37/       5.39 seconds.
--executable xbcktrn finished with status     0 in        5.42 seconds (walltime).
 --invoking executable--
/nfs/workspaces/public/cfour_mpi/bin/xvdint
 @GETMEM-I,  Allocated    3814 MB of main memory.
 One- and two-electron integral derivatives are calculated
 for RHF-CC/MBPT hessians and dipole derivatives.
 Spherical gaussians are used.
  magnet F F

                     Kinetic energy integral gradient
                     --------------------------------

                         C #1 z    -2.0222302404
                         O #2 z     2.0222302404


 C #1       0.0000000000            0.0000000000           -2.0222302404
 O #2       0.0000000000            0.0000000000            2.0222302404



                   Nuclear attraction integral gradient
                   ------------------------------------

                         C #1 z    28.4609800110
                         O #2 z   -28.4609800110


 C #1       0.0000000000            0.0000000000           28.4609800110
 O #2       0.0000000000            0.0000000000          -28.4609800110



                      Reorthonormalization gradient
                      -----------------------------

                         C #1 z     0.0000000000
                         O #2 z     0.0000000000


 C #1       0.0000000000            0.0000000000            0.0000000000
 O #2       0.0000000000            0.0000000000            0.0000000000



                     Kinetic energy integral Hessian
                     -------------------------------


           Symmetry 1

           C #1 z      O #2 z

 C #1 z    0.232079
 O #2 z   -0.232079    0.232079


           Symmetry 2

           C #1 x      O #2 x

 C #1 x   -4.015998
 O #2 x    4.015998   -4.015998


           Symmetry 3

           C #1 y      O #2 y

 C #1 y   -4.015998
 O #2 y    4.015998   -4.015998




           C #1 x      C #1 y      C #1 z      O #2 x      O #2 y      O #2 z

 C #1 x   -4.015998
 C #1 y    0.000000   -4.015998
 C #1 z    0.000000    0.000000    0.232079

 O #2 x    4.015998    0.000000    0.000000   -4.015998
 O #2 y    0.000000    4.015998    0.000000    0.000000   -4.015998
 O #2 z    0.000000    0.000000   -0.232079    0.000000    0.000000    0.232079




                   Nuclear attraction integral Hessian
                   -----------------------------------


           Symmetry 1

           C #1 z      O #2 z

 C #1 z  -11.752460
 O #2 z   11.752460  -11.752460


           Symmetry 2

           C #1 x      O #2 x

 C #1 x   34.760756
 O #2 x  -34.760756   34.760756


           Symmetry 3

           C #1 y      O #2 y

 C #1 y   34.760756
 O #2 y  -34.760756   34.760756




           C #1 x      C #1 y      C #1 z      O #2 x      O #2 y      O #2 z

 C #1 x   34.760756
 C #1 y    0.000000   34.760756
 C #1 z    0.000000    0.000000  -11.752460

 O #2 x  -34.760756    0.000000    0.000000   34.760756
 O #2 y    0.000000  -34.760756    0.000000    0.000000   34.760756
 O #2 z    0.000000    0.000000   11.752460    0.000000    0.000000  -11.752460




                Highest order reorthonormalization Hessian
                ------------------------------------------


           Symmetry 1

           C #1 z      O #2 z

 C #1 z    0.000000
 O #2 z    0.000000    0.000000


           Symmetry 2

           C #1 x      O #2 x

 C #1 x    0.000000
 O #2 x    0.000000    0.000000


           Symmetry 3

           C #1 y      O #2 y

 C #1 y    0.000000
 O #2 y    0.000000    0.000000




           C #1 x      C #1 y      C #1 z      O #2 x      O #2 y      O #2 z




                Electronic contributions to dipole moment
                -----------------------------------------

                               au             Debye

                    z     -0.29084448     -0.73925305

  Conversion factor used: 1 a.u. =   2.54174691 Debye 



   Electronic contributions to static part of dipole moment derivatives
   --------------------------------------------------------------------


                     Total dipole moment derivatives
                     -------------------------------


           Symmetry 1
                              Ez

               C #1 z    -5.86189366
               O #2 z    -8.13810634

           Symmetry 2
                              Ex

               C #1 x    -5.91024184
               O #2 x    -8.08975816

           Symmetry 3
                              Ey

               C #1 y    -5.91024184
               O #2 y    -8.08975816



                       Ex          Ey          Ez

      C #1    x   -5.910242    0.000000    0.000000
      C #1    y    0.000000   -5.910242    0.000000
      C #1    z    0.000000    0.000000   -5.861894

      O #2    x   -8.089758    0.000000    0.000000
      O #2    y    0.000000   -8.089758    0.000000
      O #2    z    0.000000    0.000000   -8.138106

 Evaluation of 1e integral derivatives required    1.75 seconds.
                    8815  records have been written to the Sort file.
  Total length of Sort file :             180513570  words.
 Evaluation of 2el integral derivatives

                      Two-electron integral gradient
                      ------------------------------

                         C #1 z   -11.7115441427
                         O #2 z    11.7115441427


 C #1       0.0000000000            0.0000000000          -11.7115441427
 O #2       0.0000000000            0.0000000000           11.7115441427


 Evaluation of 2e integral derivatives required  661.91 seconds.

                            Molecular gradient
                            ------------------

                         C #1 z    -0.7792231498
                         O #2 z     0.7792231498


 C #1       0.0000000000            0.0000000000           -0.7792231498
 O #2       0.0000000000            0.0000000000            0.7792231498


  Molecular gradient norm 0.110E+01

                            Molecular hessian
                            -----------------


           Symmetry 1

           C #1 z      O #2 z

 C #1 z  111.423346
 O #2 z -111.423346  111.423346


           Symmetry 2

           C #1 x      O #2 x

 C #1 x   17.745835
 O #2 x  -17.745835   17.745835


           Symmetry 3

           C #1 y      O #2 y

 C #1 y   17.745835
 O #2 y  -17.745835   17.745835




           C #1 x      C #1 y      C #1 z      O #2 x      O #2 y      O #2 z

 C #1 x   17.745835
 C #1 y    0.000000   17.745835
 C #1 z    0.000000    0.000000  111.423346

 O #2 x  -17.745835    0.000000    0.000000   17.745835
 O #2 y    0.000000  -17.745835    0.000000    0.000000   17.745835
 O #2 z    0.000000    0.000000 -111.423346    0.000000    0.000000  111.423346




                           Total dipole moment
                           -------------------

                               au             Debye

                    z     -0.29276208     -0.74412712

  Conversion factor used: 1 a.u. =   2.54174691 Debye 



                     Total dipole moment derivatives
                     -------------------------------


           Symmetry 1
                              Ez

               C #1 z     0.63379749
               O #2 z    -0.63379749

           Symmetry 2
                              Ex

               C #1 x    -0.16976536
               O #2 x     0.16976536

           Symmetry 3
                              Ey

               C #1 y    -0.16976536
               O #2 y     0.16976536



                       Ex          Ey          Ez

      C #1    x   -0.169765    0.000000    0.000000
      C #1    y    0.000000   -0.169765    0.000000
      C #1    z    0.000000    0.000000    0.633797

      O #2    x    0.169765    0.000000    0.000000
      O #2    y    0.000000    0.169765    0.000000
      O #2    z    0.000000    0.000000   -0.633797

 @CHECKOUT-I, Total execution time (CPU/WALL):      663.65/     110.36 seconds.
--executable xvdint finished with status     0 in      110.38 seconds (walltime).
 --invoking executable--
/nfs/workspaces/public/cfour_mpi/bin/xjoda
  @GTFLGS-I, Hessian will be transformed to curvilinear coordinates.
  @GTFLGS-I, Hessian will be transformed to curvilinear coordinates.
  igrd and ihes are                      0                     1
  gradient from JOBARC 
   0.000000000000000   0.000000000000000  -0.779223149794650
   0.000000000000000   0.000000000000000   0.779223149794650
 
  @PROJFCM-I, Projecting force constant matrix onto totally symmetric subspace.
  Largest difference between matrix elements of symmetrized
  and unsymmetrized FCM :    -0.8794742712E-10.
  read isotopes from ZMAT file 
 
  Summary of diagonal Born-Oppenheimer correction at the correlated level
  The total diagonal Born-Oppenheimer correction (DBOC) is:      0.0041672411 a.u.
  The total diagonal Born-Oppenheimer correction (DBOC) is:        914.603702 cm-1
  The total diagonal Born-Oppenheimer correction (DBOC) is:            10.941 kJ/mole
  hellooooooo 
  readis is  F
 
 @CHECKOUT-I, Total execution time (CPU/WALL):        0.01/       0.04 seconds.
--executable xjoda finished with status     0 in        0.06 seconds (walltime).
  The final electronic energy is      -113.145318077702797 a.u. 
  This computation required                         2164.42 seconds (walltime).
