 --invoking executable--
/nfs/workspaces/public/cfour_mpi/bin/xjoda


   *************************************************************************
         <<<     CCCCCC     CCCCCC   |||     CCCCCC     CCCCCC   >>>
       <<<      CCC        CCC       |||    CCC        CCC         >>>
      <<<      CCC        CCC        |||   CCC        CCC            >>>
    <<<        CCC        CCC        |||   CCC        CCC              >>>
      <<<      CCC        CCC        |||   CCC        CCC            >>>
       <<<      CCC        CCC       |||    CCC        CCC         >>>
         <<<     CCCCCC     CCCCCC   |||     CCCCCC     CCCCCC   >>>
   *************************************************************************

     ****************************************************************
     * CFOUR Coupled-Cluster techniques for Computational Chemistry *
     ****************************************************************
 

   Department of Chemistry                Institut fuer Physikalische Chemie
   University of Florida                  Universitaet Mainz
   Gainesville, FL 32611, USA             D-55099 Mainz, Germany

   Department of Chemistry                Fakultaet fuer Chemie und Biowiss.
   Johns Hopkins University               Karlsruher Institut fuer Technologie
   Baltimore, MD 21218, USA               D-76131 Karlsruhe, Germany

   Department of Chemistry                Department of Physical Chemistry
   Southern Methodist University          Eotvos Lorand University
   Dallas, TX 75275, USA                  H-1053 Budapest, Hungary

 
                       Version 2.1
 
                     vincent.theory.phys.ucl.ac.uk                     
                     Mon 24 Feb 23:29:00 GMT 2025                      
                     integer*8 version is running
 
********************************************************************************
*                          Input from ZMAT file                                *
********************************************************************************
Carbon Monoxide DBOC calculation                                                
C                                                                               
O 1 r                                                                           
                                                                                
r=1.12825                                                                       
                                                                                
                                                                                
*CFOUR(CALC=CCSD,BASIS=AUG-PCVQZ,SCF_CONV=10                                    
CC_CONV=14,DBOC=ON,MEMORY=500000000                                             
ZFIELD=200)                                                                     
                                                                                
%isotopes                                                                       
12                                                                              
16                                                                              
********************************************************************************
  @GTFLGS-I, Hessian will be transformed to curvilinear coordinates.
    -------------------------------------------------------------------
                    CFOUR Control Parameters 
    -------------------------------------------------------------------
        External           Internal           Value            Units
          Name               Name
    -------------------------------------------------------------------
       ABCDTYPE             IABCDT         STANDARD    [  0]    ***   
       ANHARMONIC           IANHAR         OFF         [  0]    ***   
       ANH_ALGORIT          IANALG         STANDARD    [  0]    ***   
       ANH_DERIVAT          IANDER         SECOND      [  1]    ***   
       ANH_MODE             ANHMOD         VIBRATION   [  0]    ***   
       ANH_STEPSIZ          ICUBST             50000          x 10-6  
       ANH_SYMMETR          IANHSM         ABELIAN     [  0]    ***   
       AO_LADDERS           IAOLAD         SINGLEPASS  [  1]    ***   
       AV_SCF               IAVSCF         OFF         [  0]    ***   
       BASIS                IBASIS         AUG-PCVQZ   [ 52]    ***   
       BOTHVECTORS          BOTHVC         OFF         [  0]    ***   
       BOX_POTENT           IPIAB          OFF         [  0]    ***   
       BREIT                IBREIT         OFF         [  0]    ***   
       BRUCK_CONV           IBRTOL          10D-  4             ***   
       BRUECKNER            IBRKNR         OFF         [  0]    ***   
       BUFFERSIZE           IBUFFS              4096            ***   
       CACHE_RECS           ICHREC             10               ***   
       CALCLEVEL            ICLLVL         CCSD        [ 10]    ***   
       CCORBOPT             ICCORB         OFF         [  0]  x 0.01  
       CC_CONV              ICCCNV          10D- 14             ***   
       CC_EXPORDER          ICCEOR              5               ***   
       CC_EXTRAPOL          ICCEXT         DIIS        [  1]    ***   
       CC_GUESS             ICCGES         MP2         [  0]    ***   
       CC_MAXCYC            ICCCYC            100              cycles 
       CC_PROGRAM           ICCPRO         VCC         [  0]    ***   
       CHARGE               ICHRGE              0               ***   
       CHOLESKY             ICHOLE         OFF         [  0]    ***   
       CIS_CONV             ICISTL              5               ***   
       COMM_SIZE            IPSIZE            ***               ***   
       CONSTANT             ICONST         OLD         [  1]    ***   
       CONTINUUM            ICONTU         NONE        [  0]    ***   
       CONTRACTION          ICNTYP         GENERAL     [  1]    ***   
       COORDINATES          ICOORD         INTERNAL    [  0]    ***   
       CPHF_CONVER          ICPHFT          10D- 16             ***   
       CPHF_MAXCYC          ICPHFC             64              cycles 
       CUBIC                ICUBIC         OFF         [  0]    ***   
       CURVILINEAR          ICURVY         ON          [  1]    ***   
       DBOC                 IDBOC          ON          [  1]    ***   
       DCT                  IDCT           OFF         [  0]    ***   
       DERIV_LEV            IDRLVL         SECOND      [  2]    ***   
       DEVMEM_SIZE          IDVMEM          50000000           MByte  
       DIAG_MRCC            IEOMST          10D-  0             ***   
       DIFF_TYPE            IDIFTY         RELAXED     [  0]    ***   
       DIRECT               IDIRCT         OFF         [  0]    ***   
       DROPMO               IDRPMO      NONE         
       ECP                  IECP           OFF         [  0]    ***   
       EIGENVECTOR          IVEC                1               ***   
       EL_ANHARM            IELANH         OFF         [  0]    ***   
       EOMFOLLOW            IEOMSR         ENERGY      [  0]    ***   
       EOMIP                IEOMIP         OFF         [  0]    ***   
       EOMLEVEL             HBARFM         SAME        [  0]    ***   
       EOM_MRCC             IMRCCE         NEW         [  1]    ***   
       EOM_NONIT            EOMNON         OFF         [  0]    ***   
       EOM_NSING            IEOMSI          10D-  0             ***   
       EOM_NSTATES          IMRCCD         DAVIDSON    [  0]    ***   
       EOM_NTRIP            IEOMTR          10D-  0             ***   
       EOM_ORDER            IEXORD         ENERGY      [  0]    ***   
       EOM_PROPSTA          IEOMST              0               ***   
       ESTATE_CONV          IEXTOL          10D-  5             ***   
       ESTATE_DIAG          IEXDIG         ITERATIVE   [  0]    ***   
       ESTATE_LOCK          IESLOC         ON          [  1]    ***   
       ESTATE_MAXC          IEXMXC             40               ***   
       ESTATE_PROP          IEXPRP         OFF         [  0]    ***   
       EVAL_HESS            IRECAL              0            # of cyc.
       EXCITATION           IEXCIT              0               ***   
       EXCITE               IEXCIT         NONE        [  0]    ***   
       EXTERN_POT           IEXPOT         OFF         [  0]    ***   
       FCGRADNEW            IFCGNW         OFF         [  0]    ***   
       FC_FIELD             IFINFC              0             x 10-6  
       FD_CALTYPE           IFDCAL         GRADONLY    [  0]    ***   
       FD_PROJECT           IFDPRJ         OFF         [  1]    ***   
       FD_STEPSIZE          IDISFD              0            10-4 bohr
       FD_USEGROUP          IFDGRP         FULL        [  0]    ***   
       FILE_RECSIZ          IFLREC              4096           words  
       FINITE_PERT          IFIPER              0             x 10-6  
       FIXGEOM              IFIXGM         OFF         [  0]    ***   
       FOCK                 IFOCK          AO          [  1]    ***   
       FREQ_ALGORI          IVIALG         STANDARD    [  0]    ***   
       FROZEN_CORE          IFROCO         OFF         [  0]    ***   
       GAMMA_ABCD           IGABCD         STORE       [  0]    ***   
       GAMMA_ABCI           IGABCI         STORE       [  0]    ***   
       GENBAS_1             IGNBS1              0               ***   
       GENBAS_2             IGNBS2              0               ***   
       GENBAS_3             IGNBS3              0               ***   
       GENBAS_4             IGNBS4              0               ***   
       GEO_CONV             ICONTL              5              H/bohr 
       GEO_MAXCYC           IOPTCY             50               ***   
       GEO_MAXSTEP          IMXSTP            300            millibohr
       GEO_METHOD           INR            SINGLE_POINT[  5]    ***   
       GIAO                 IGIAO          OFF         [  1]    ***   
       GIMIC                IGIMIC         OFF         [  0]    ***   
       GRID                 IGRID          OFF         [  0]    ***   
       GRID_ALGO            IGALGO         SERIAL      [  0]    ***   
       GUESS                IGUESS         MOREAD      [  0]    ***   
       HBAR                 IHBAR          OFF         [  0]    ***   
       HESS_TYPE            IHESTP         SCF         [  0]    ***   
       HF2_FILE             IHF2Fl         USE         [  1]    ***   
       HFSTABILITY          ISTABL         OFF         [  0]    ***   
       INCORE               INCORE         OFF         [  0]    ***   
       INPUT_MRCC           IMRCC          ON          [  1]    ***   
       INTEGRALS            INTTYP         VMOL        [  1]    ***   
       JODA_PRINT           IJPRNT              0               ***   
       KEYWORD_OUT          IDMPKW         NO          [  0]    ***   
       LINDEP_TOL           ILINDP              8               ***   
       LINEQ_CONV           IZTACN          10D-  7           cycles  
       LINEQ_EXPOR          ILMAXD              5               ***   
       LINEQ_MAXCY          ILMAXC            100               ***   
       LINEQ_TYPE           ILTYPE         DIIS        [  1]    ***   
       LOCK_ORBOCC          ILOCOC         OFF         [  0]    ***   
       MEMORY_SIZE          IMEMSZ         500000000           words  
       MEM_UNIT             IMEMU          INTEGERWORDS[  0]    ***   
       MRCC                 IMRCCC         OFF         [  0]    ***   
       MULTIPLICTY          IMULTP              1               ***   
       NACOUPLING           IVCOUP         OFF         [  0]    ***   
       NEGEVAL              IDIE           ABORT       [  0]    ***   
       NEWNORM              INEWNO         OFF         [  0]    ***   
       NON-HF               INONHF         OFF         [  0]    ***   
       NTOP_TAMP            ITOPT2             15               ***   
       NUC_MODEL            INUCMO         POINT       [  0]    ***   
       OCCUPATION           IOCCU   ESTIMATED BY SCF 
       OPEN-SHELL           IOPEN          SPIN-ORBITAL[  0]    ***   
       OPTVIB               IOPTVB         OFF         [  0]    ***   
       ORBITALS             IORBTP         STANDARD    [  0]    ***   
       PARALLEL             IPARAL         ON          [  1]    ***   
       PARA_INT             IPINTS         ON          [  1]    ***   
       PARA_PRINT           IPPRIN              0               ***   
       PERT_ORB             IPTORB         STANDARD    [  0]    ***   
       POINTS               IGRDFD              0               ***   
       PRINT                IPRNT               0               ***   
       PROPS                IPROPS         OFF         [  0]    ***   
       PROP_INTEGR          IINTYP         INTERNAL    [  0]    ***   
       PSI                  IPSI           OFF         [  0]    ***   
       QC_ALG               IQCALG         FLM         [  0]    ***   
       QC_LINALG            IQCLIN         TRIDIAG     [  2]    ***   
       QC_MAXCYC            IQCMAX          10D-100           cycles  
       QC_MAXSCFCY          IQCMSC          10D- 15           cycles  
       QC_RTRUST            IQCRTR          10D-  0           x 10-3  
       QC_SKIPSCF           IQCSKI         OFF         [  0]    ***   
       QC_START             IQCSTA          10D-  1             ***   
       QRHFGUESS            IQGUES         OFF         [  0]    ***   
       QUARTIC              IQUART         OFF         [  0]    ***   
       RAMAN_INT            IRAMIN         OFF         [  0]    ***   
       RAMAN_ORB            IRAMRE         UNRELAXED   [  0]    ***   
       RDO                  IRDOFM         ON          [  1]    ***   
       REDUCE_REPR          REDREP         Ir          [  0]    ***   
       REFERENCE            IREFNC         RHF         [  0]    ***   
       RELATIVIST           IRELAT         OFF         [  0]    ***   
       RELAX_DENS           IRDENS         ON          [  1]    ***   
       RESET_FLAGS          IRESET         OFF         [  0]    ***   
       RESTART_CC           ICCRES         OFF         [  0]    ***   
       ROT_EVEC             ROTVEC              0               ***   
       SAVE_INTS            ISVINT         OFF         [  0]    ***   
       SCALE_ON             ISTCRT              0               ***   
       SCF_CONV             ISCFCV          10D- 10             ***   
       SCF_DAMPING          IDAMP               0             x 10-3  
       SCF_EXPORDE          IRPPOR              6               ***   
       SCF_EXPSTAR          IRPPLS              8               ***   
       SCF_EXTRAPO          IRPP           ON          [  1]    ***   
       SCF_MAXCYC           ISCFCY            150              cycles 
       SCF_NOSTOP           ISCFST         OFF         [  0]    ***   
       SCF_PRINT            ISCFPR              0               ***   
       SCF_PROG             ISCFPR         SCF         [  0]    ***   
       SD_FIELD             IFINSD              0             x 10-6  
       SOPERT               IPERSO         OFF         [  0]    ***   
       SPHERICAL            IDFGHI         ON          [  1]    ***   
       SPINORBIT            ISOCAL         OFF         [  0]    ***   
       SPINROTATIO          ISRCON         OFF         [  0]    ***   
       SPIN_FLIP            ISPFLP         OFF         [  0]    ***   
       SPIN_ORBIT           ISPORB         OFF         [  0]    ***   
       SPIN_SCAL            ISCSMP         OFF         [  0]    ***   
       STEEPSCALE           ISTPSC              1000          x 10-3  
       SUBGROUP             ISUBGP         DEFAULT     [  0]    ***   
       SUBGRPAXIS           ISBXYZ         X           [  0]    ***   
       SYMMETRY             ISYM           ON          [  0]    ***   
       SYM_CHECK            ISYMCK         OVERRIDE    [  1]    ***   
       T3_EXTRAPOL          IT3EXT         OFF         [  0]    ***   
       T4_EXTRAPOL          IT4EXP         OFF         [  0]    ***   
       TAMP_SUM             IEVERY              5               ***   
       TESTSUITE            ITESTS         OFF         [  0]    ***   
       THERMOCH             ITHERM         OFF         [  0]    ***   
       TOL_CHOLESK          ITOLCH          10D-  4             ***   
       TRANGRAD             IRESRM         OFF         [  0]    ***   
       TRANS_INV            ITRAIN         IGNORE      [  1]    ***   
       TREAT_PERT           ITREAT         SIMULTANEOUS[  0]    ***   
       TRIP_ALGORI          ITRALG         NORMAL      [  0]    ***   
       UIJ_THRESHO          IUIJTH              1               ***   
       UNITS                IUNITS         ANGSTROM    [  0]    ***   
       UNOS                 IUNOS          OFF         [  0]    ***   
       UPDATE_HESS          IHUPDT         ON          [  1]    ***   
       VIBPHASE             ISETPH         STANDARD    [  0]    ***   
       VIBRATION            IVIB           ANALYTIC    [  1]    ***   
       VIB_ALGORIT          IGEALG         STANDARD    [  0]    ***   
       VNATORB              IVNORB         OFF         [  0]    ***   
       VTRAN                IVTRAN         FULL/PARTIAL[  0]    ***   
       XFIELD               IXEFLD              0             x 10-6  
       XFORM_TOL            IXFTOL          10D- 11             ***   
       YFIELD               IYEFLD              0             x 10-6  
       ZFIELD               IZEFLD            200             x 10-6  
       ZSCALE_EXP           IZEXPS         OFF         [  0]    ***   
    -------------------------------------------------------------------
   2 entries found in Z-matrix 
   Job Title : Carbon Monoxide DBOC calculation                                                
   There are  1 unique internal coordinates.
   Of these,  0 will be optimized.
   User supplied Z-matrix: 
--------------------------------------------------------------------------------
       SYMBOL    BOND      LENGTH    ANGLE     ANGLE     DIHED     ANGLE
                  TO      (ANGST)    WRT      (DEG)      WRT      (DEG)
--------------------------------------------------------------------------------
        C    
        O          1         r    
                  *Initial values for internal coordinates* 
                      Name             Value
                        r               1.1282500000
--------------------------------------------------------------------------------
  read isotopes from ZMAT file 
   Rotational constants (in cm-1): 
          1.9315317250             1.9315317250
   Rotational constants (in MHz): 
      57905.8724666917         57905.8724666917
********************************************************************************
   The full molecular point group is CXv .
   The largest Abelian subgroup of the full molecular point group is C2v .
   The computational point group is C2v .
********************************************************************************
--------------------------------------------------------------------------------
   Analysis of internal coordinates specified by Z-matrix 
--------------------------------------------------------------------------------
   *The nuclear repulsion energy is   22.513184843784618 a.u.
   *There is   1 degree of freedom within the tot. symm. molecular subspace.
   *Z-matrix requests optimization of   0 coordinates.
   *The optimization is constrained.
   *The following   1 parameters can have non-zero 
    derivatives within the totally symmetric subspace:
             r    [ 1]
   *The following   0 parameters are to be optimized:

   *The following coordinates must be varied in an  unconstrained optimization.
             r    [ 1]
--------------------------------------------------------------------------------


 ----------------------------------------------------------------
         Coordinates used in calculation (QCOMP) 
 ----------------------------------------------------------------
 Z-matrix   Atomic            Coordinates (in bohr)
  Symbol    Number           X              Y              Z
 ----------------------------------------------------------------
     C         6        -0.00000000     0.00000000     1.21816770
     O         8         0.00000000     0.00000000    -0.91391625
 ----------------------------------------------------------------
 
   Interatomic distance matrix (Angstroms) 
 
                 C             O    
                [ 1]        [ 2]
  C    [ 1]     0.00000
  O    [ 2]     1.12825     0.00000
 rotcon2
   Rotational constants (in cm-1): 
          1.9315317250             0.0000000000
   Rotational constants (in MHz): 
      57905.8724666917             0.0000000000
  ECPDATA file not present.   Using default ECPDATA. 
  @GTFLGS-I, Hessian will be transformed to curvilinear coordinates.
  There are  218 basis functions.
 @CHECKOUT-I, Total execution time (CPU/WALL):        0.10/       0.14 seconds.
--executable xjoda finished with status     0 in        0.15 seconds (walltime).
 --invoking executable--
/nfs/workspaces/public/cfour_mpi/bin/xvmol
 SERIAL VERSION OF MOLECULE STARTED
********************************************************************************
                    INPUT FROM MOL FILE
********************************************************************************
INTGRL        1    0    1    0    0    0    0    0    0                         
         *** CFOUR Program System (Release V0.1) ***                            
Carbon Monoxide DBOC calculation                                                
    2    2 X  Y       0.10E-08              0    0                              
   9999.00      3.00                                                            
          6.00000000    1    5    1    1    1    1    1                         
C #1  -0.000000000000000   0.000000000000000   1.218167698172089                
   16    9                                                                      
   33980.0000000000       9.100000000000000E-005 -1.900000000000000E-005        
  0.000000000000000E+000  0.000000000000000E+000  0.000000000000000E+000        
  0.000000000000000E+000  0.000000000000000E+000  0.000000000000000E+000        
  0.000000000000000E+000                                                        
   5089.00000000000       7.040000000000000E-004 -1.510000000000000E-004        
  0.000000000000000E+000  0.000000000000000E+000  0.000000000000000E+000        
  0.000000000000000E+000  0.000000000000000E+000  0.000000000000000E+000        
  0.000000000000000E+000                                                        
   1157.00000000000       3.693000000000000E-003 -7.850000000000000E-004        
  0.000000000000000E+000  0.000000000000000E+000  0.000000000000000E+000        
  0.000000000000000E+000  0.000000000000000E+000  0.000000000000000E+000        
  0.000000000000000E+000                                                        
   326.600000000000       1.536000000000000E-002 -3.324000000000000E-003        
  0.000000000000000E+000  0.000000000000000E+000  0.000000000000000E+000        
  0.000000000000000E+000  0.000000000000000E+000  0.000000000000000E+000        
  0.000000000000000E+000                                                        
   106.100000000000       5.292900000000000E-002 -1.151200000000000E-002        
  0.000000000000000E+000  0.000000000000000E+000  0.000000000000000E+000        
  0.000000000000000E+000  0.000000000000000E+000  0.000000000000000E+000        
  0.000000000000000E+000                                                        
   38.1100000000000       0.147043000000000      -3.416000000000000E-002        
  0.000000000000000E+000  0.000000000000000E+000  0.000000000000000E+000        
  0.000000000000000E+000  0.000000000000000E+000  0.000000000000000E+000        
  0.000000000000000E+000                                                        
   14.7500000000000       0.305631000000000      -7.717300000000001E-002        
  0.000000000000000E+000  0.000000000000000E+000  0.000000000000000E+000        
  0.000000000000000E+000  0.000000000000000E+000  0.000000000000000E+000        
  0.000000000000000E+000                                                        
   6.03500000000000       0.399345000000000      -0.141493000000000             
  0.000000000000000E+000  0.000000000000000E+000  0.000000000000000E+000        
  0.000000000000000E+000  0.000000000000000E+000  0.000000000000000E+000        
  0.000000000000000E+000                                                        
   2.53000000000000       0.217051000000000      -0.118019000000000             
  0.000000000000000E+000  0.000000000000000E+000  0.000000000000000E+000        
  0.000000000000000E+000  0.000000000000000E+000  0.000000000000000E+000        
  0.000000000000000E+000                                                        
  0.735500000000000       1.589400000000000E-002  0.273806000000000             
   1.00000000000000       0.000000000000000E+000  0.000000000000000E+000        
  0.000000000000000E+000  0.000000000000000E+000  0.000000000000000E+000        
  0.000000000000000E+000                                                        
  0.290500000000000      -3.084000000000000E-003  0.586510000000000             
  0.000000000000000E+000   1.00000000000000       0.000000000000000E+000        
  0.000000000000000E+000  0.000000000000000E+000  0.000000000000000E+000        
  0.000000000000000E+000                                                        
  0.111100000000000       9.779999999999999E-004  0.285430000000000             
  0.000000000000000E+000  0.000000000000000E+000   1.00000000000000             
  0.000000000000000E+000  0.000000000000000E+000  0.000000000000000E+000        
  0.000000000000000E+000                                                        
   7.21600000000000       0.000000000000000E+000  0.000000000000000E+000        
  0.000000000000000E+000  0.000000000000000E+000  0.000000000000000E+000        
   1.00000000000000       0.000000000000000E+000  0.000000000000000E+000        
  0.000000000000000E+000                                                        
   19.5700000000000       0.000000000000000E+000  0.000000000000000E+000        
  0.000000000000000E+000  0.000000000000000E+000  0.000000000000000E+000        
  0.000000000000000E+000   1.00000000000000       0.000000000000000E+000        
  0.000000000000000E+000                                                        
   53.0730000000000       0.000000000000000E+000  0.000000000000000E+000        
  0.000000000000000E+000  0.000000000000000E+000  0.000000000000000E+000        
  0.000000000000000E+000  0.000000000000000E+000   1.00000000000000             
  0.000000000000000E+000                                                        
  4.145000000000000E-002  0.000000000000000E+000  0.000000000000000E+000        
  0.000000000000000E+000  0.000000000000000E+000  0.000000000000000E+000        
  0.000000000000000E+000  0.000000000000000E+000  0.000000000000000E+000        
   1.00000000000000                                                             
   10    8                                                                      
   34.5100000000000       5.378000000000000E-003  0.000000000000000E+000        
  0.000000000000000E+000  0.000000000000000E+000  0.000000000000000E+000        
  0.000000000000000E+000  0.000000000000000E+000  0.000000000000000E+000        
   7.91500000000000       3.613200000000000E-002  0.000000000000000E+000        
  0.000000000000000E+000  0.000000000000000E+000  0.000000000000000E+000        
  0.000000000000000E+000  0.000000000000000E+000  0.000000000000000E+000        
   2.36800000000000       0.142493000000000       0.000000000000000E+000        
  0.000000000000000E+000  0.000000000000000E+000  0.000000000000000E+000        
  0.000000000000000E+000  0.000000000000000E+000  0.000000000000000E+000        
  0.813200000000000       0.342150000000000        1.00000000000000             
  0.000000000000000E+000  0.000000000000000E+000  0.000000000000000E+000        
  0.000000000000000E+000  0.000000000000000E+000  0.000000000000000E+000        
  0.289000000000000       0.463864000000000       0.000000000000000E+000        
   1.00000000000000       0.000000000000000E+000  0.000000000000000E+000        
  0.000000000000000E+000  0.000000000000000E+000  0.000000000000000E+000        
  0.100700000000000       0.250028000000000       0.000000000000000E+000        
  0.000000000000000E+000   1.00000000000000       0.000000000000000E+000        
  0.000000000000000E+000  0.000000000000000E+000  0.000000000000000E+000        
   8.18200000000000       0.000000000000000E+000  0.000000000000000E+000        
  0.000000000000000E+000  0.000000000000000E+000   1.00000000000000             
  0.000000000000000E+000  0.000000000000000E+000  0.000000000000000E+000        
   24.1860000000000       0.000000000000000E+000  0.000000000000000E+000        
  0.000000000000000E+000  0.000000000000000E+000  0.000000000000000E+000        
   1.00000000000000       0.000000000000000E+000  0.000000000000000E+000        
   71.4940000000000       0.000000000000000E+000  0.000000000000000E+000        
  0.000000000000000E+000  0.000000000000000E+000  0.000000000000000E+000        
  0.000000000000000E+000   1.00000000000000       0.000000000000000E+000        
  3.218000000000000E-002  0.000000000000000E+000  0.000000000000000E+000        
  0.000000000000000E+000  0.000000000000000E+000  0.000000000000000E+000        
  0.000000000000000E+000  0.000000000000000E+000   1.00000000000000             
    6    6                                                                      
   1.84800000000000        1.00000000000000       0.000000000000000E+000        
  0.000000000000000E+000  0.000000000000000E+000  0.000000000000000E+000        
  0.000000000000000E+000                                                        
  0.649000000000000       0.000000000000000E+000   1.00000000000000             
  0.000000000000000E+000  0.000000000000000E+000  0.000000000000000E+000        
  0.000000000000000E+000                                                        
  0.228000000000000       0.000000000000000E+000  0.000000000000000E+000        
   1.00000000000000       0.000000000000000E+000  0.000000000000000E+000        
  0.000000000000000E+000                                                        
   8.65600000000000       0.000000000000000E+000  0.000000000000000E+000        
  0.000000000000000E+000   1.00000000000000       0.000000000000000E+000        
  0.000000000000000E+000                                                        
   33.2130000000000       0.000000000000000E+000  0.000000000000000E+000        
  0.000000000000000E+000  0.000000000000000E+000   1.00000000000000             
  0.000000000000000E+000                                                        
  7.660000000000000E-002  0.000000000000000E+000  0.000000000000000E+000        
  0.000000000000000E+000  0.000000000000000E+000  0.000000000000000E+000        
   1.00000000000000                                                             
    4    4                                                                      
   1.41900000000000        1.00000000000000       0.000000000000000E+000        
  0.000000000000000E+000  0.000000000000000E+000                                
  0.485000000000000       0.000000000000000E+000   1.00000000000000             
  0.000000000000000E+000  0.000000000000000E+000                                
   24.6940000000000       0.000000000000000E+000  0.000000000000000E+000        
   1.00000000000000       0.000000000000000E+000                                
  0.187000000000000       0.000000000000000E+000  0.000000000000000E+000        
  0.000000000000000E+000   1.00000000000000                                     
    2    2                                                                      
   1.01100000000000        1.00000000000000       0.000000000000000E+000        
  0.424000000000000       0.000000000000000E+000   1.00000000000000             
          8.00000000    1    5    1    1    1    1    1                         
O #2   0.000000000000000   0.000000000000000  -0.913916248771193                
   16    9                                                                      
   61420.0000000000       9.000000000000001E-005 -2.000000000000000E-005        
  0.000000000000000E+000  0.000000000000000E+000  0.000000000000000E+000        
  0.000000000000000E+000  0.000000000000000E+000  0.000000000000000E+000        
  0.000000000000000E+000                                                        
   9199.00000000000       6.980000000000001E-004 -1.590000000000000E-004        
  0.000000000000000E+000  0.000000000000000E+000  0.000000000000000E+000        
  0.000000000000000E+000  0.000000000000000E+000  0.000000000000000E+000        
  0.000000000000000E+000                                                        
   2091.00000000000       3.664000000000000E-003 -8.290000000000000E-004        
  0.000000000000000E+000  0.000000000000000E+000  0.000000000000000E+000        
  0.000000000000000E+000  0.000000000000000E+000  0.000000000000000E+000        
  0.000000000000000E+000                                                        
   590.900000000000       1.521800000000000E-002 -3.508000000000000E-003        
  0.000000000000000E+000  0.000000000000000E+000  0.000000000000000E+000        
  0.000000000000000E+000  0.000000000000000E+000  0.000000000000000E+000        
  0.000000000000000E+000                                                        
   192.300000000000       5.242300000000000E-002 -1.215600000000000E-002        
  0.000000000000000E+000  0.000000000000000E+000  0.000000000000000E+000        
  0.000000000000000E+000  0.000000000000000E+000  0.000000000000000E+000        
  0.000000000000000E+000                                                        
   69.3200000000000       0.145921000000000      -3.626100000000000E-002        
  0.000000000000000E+000  0.000000000000000E+000  0.000000000000000E+000        
  0.000000000000000E+000  0.000000000000000E+000  0.000000000000000E+000        
  0.000000000000000E+000                                                        
   26.9700000000000       0.305258000000000      -8.299200000000000E-002        
  0.000000000000000E+000  0.000000000000000E+000  0.000000000000000E+000        
  0.000000000000000E+000  0.000000000000000E+000  0.000000000000000E+000        
  0.000000000000000E+000                                                        
   11.1000000000000       0.398508000000000      -0.152090000000000             
  0.000000000000000E+000  0.000000000000000E+000  0.000000000000000E+000        
  0.000000000000000E+000  0.000000000000000E+000  0.000000000000000E+000        
  0.000000000000000E+000                                                        
   4.68200000000000       0.216980000000000      -0.115331000000000             
  0.000000000000000E+000  0.000000000000000E+000  0.000000000000000E+000        
  0.000000000000000E+000  0.000000000000000E+000  0.000000000000000E+000        
  0.000000000000000E+000                                                        
   1.42800000000000       1.759400000000000E-002  0.288979000000000             
   1.00000000000000       0.000000000000000E+000  0.000000000000000E+000        
  0.000000000000000E+000  0.000000000000000E+000  0.000000000000000E+000        
  0.000000000000000E+000                                                        
  0.554700000000000      -2.502000000000000E-003  0.586128000000000             
  0.000000000000000E+000   1.00000000000000       0.000000000000000E+000        
  0.000000000000000E+000  0.000000000000000E+000  0.000000000000000E+000        
  0.000000000000000E+000                                                        
  0.206700000000000       9.540000000000000E-004  0.277624000000000             
  0.000000000000000E+000  0.000000000000000E+000   1.00000000000000             
  0.000000000000000E+000  0.000000000000000E+000  0.000000000000000E+000        
  0.000000000000000E+000                                                        
   12.9740000000000       0.000000000000000E+000  0.000000000000000E+000        
  0.000000000000000E+000  0.000000000000000E+000  0.000000000000000E+000        
   1.00000000000000       0.000000000000000E+000  0.000000000000000E+000        
  0.000000000000000E+000                                                        
   34.9000000000000       0.000000000000000E+000  0.000000000000000E+000        
  0.000000000000000E+000  0.000000000000000E+000  0.000000000000000E+000        
  0.000000000000000E+000   1.00000000000000       0.000000000000000E+000        
  0.000000000000000E+000                                                        
   93.8810000000000       0.000000000000000E+000  0.000000000000000E+000        
  0.000000000000000E+000  0.000000000000000E+000  0.000000000000000E+000        
  0.000000000000000E+000  0.000000000000000E+000   1.00000000000000             
  0.000000000000000E+000                                                        
  6.959000000000000E-002  0.000000000000000E+000  0.000000000000000E+000        
  0.000000000000000E+000  0.000000000000000E+000  0.000000000000000E+000        
  0.000000000000000E+000  0.000000000000000E+000  0.000000000000000E+000        
   1.00000000000000                                                             
   10    8                                                                      
   63.4200000000000       6.044000000000000E-003  0.000000000000000E+000        
  0.000000000000000E+000  0.000000000000000E+000  0.000000000000000E+000        
  0.000000000000000E+000  0.000000000000000E+000  0.000000000000000E+000        
   14.6600000000000       4.179900000000000E-002  0.000000000000000E+000        
  0.000000000000000E+000  0.000000000000000E+000  0.000000000000000E+000        
  0.000000000000000E+000  0.000000000000000E+000  0.000000000000000E+000        
   4.45900000000000       0.161143000000000       0.000000000000000E+000        
  0.000000000000000E+000  0.000000000000000E+000  0.000000000000000E+000        
  0.000000000000000E+000  0.000000000000000E+000  0.000000000000000E+000        
   1.53100000000000       0.356731000000000        1.00000000000000             
  0.000000000000000E+000  0.000000000000000E+000  0.000000000000000E+000        
  0.000000000000000E+000  0.000000000000000E+000  0.000000000000000E+000        
  0.530200000000000       0.448309000000000       0.000000000000000E+000        
   1.00000000000000       0.000000000000000E+000  0.000000000000000E+000        
  0.000000000000000E+000  0.000000000000000E+000  0.000000000000000E+000        
  0.175000000000000       0.244940000000000       0.000000000000000E+000        
  0.000000000000000E+000   1.00000000000000       0.000000000000000E+000        
  0.000000000000000E+000  0.000000000000000E+000  0.000000000000000E+000        
   14.4750000000000       0.000000000000000E+000  0.000000000000000E+000        
  0.000000000000000E+000  0.000000000000000E+000   1.00000000000000             
  0.000000000000000E+000  0.000000000000000E+000  0.000000000000000E+000        
   42.7300000000000       0.000000000000000E+000  0.000000000000000E+000        
  0.000000000000000E+000  0.000000000000000E+000  0.000000000000000E+000        
   1.00000000000000       0.000000000000000E+000  0.000000000000000E+000        
   126.140000000000       0.000000000000000E+000  0.000000000000000E+000        
  0.000000000000000E+000  0.000000000000000E+000  0.000000000000000E+000        
  0.000000000000000E+000   1.00000000000000       0.000000000000000E+000        
  5.348000000000000E-002  0.000000000000000E+000  0.000000000000000E+000        
  0.000000000000000E+000  0.000000000000000E+000  0.000000000000000E+000        
  0.000000000000000E+000  0.000000000000000E+000   1.00000000000000             
    6    6                                                                      
   3.77500000000000        1.00000000000000       0.000000000000000E+000        
  0.000000000000000E+000  0.000000000000000E+000  0.000000000000000E+000        
  0.000000000000000E+000                                                        
   1.30000000000000       0.000000000000000E+000   1.00000000000000             
  0.000000000000000E+000  0.000000000000000E+000  0.000000000000000E+000        
  0.000000000000000E+000                                                        
  0.444000000000000       0.000000000000000E+000  0.000000000000000E+000        
   1.00000000000000       0.000000000000000E+000  0.000000000000000E+000        
  0.000000000000000E+000                                                        
   14.9270000000000       0.000000000000000E+000  0.000000000000000E+000        
  0.000000000000000E+000   1.00000000000000       0.000000000000000E+000        
  0.000000000000000E+000                                                        
   57.5440000000000       0.000000000000000E+000  0.000000000000000E+000        
  0.000000000000000E+000  0.000000000000000E+000   1.00000000000000             
  0.000000000000000E+000                                                        
  0.154000000000000       0.000000000000000E+000  0.000000000000000E+000        
  0.000000000000000E+000  0.000000000000000E+000  0.000000000000000E+000        
   1.00000000000000                                                             
    4    4                                                                      
   2.66600000000000        1.00000000000000       0.000000000000000E+000        
  0.000000000000000E+000  0.000000000000000E+000                                
  0.859000000000000       0.000000000000000E+000   1.00000000000000             
  0.000000000000000E+000  0.000000000000000E+000                                
   26.4830000000000       0.000000000000000E+000  0.000000000000000E+000        
   1.00000000000000       0.000000000000000E+000                                
  0.324000000000000       0.000000000000000E+000  0.000000000000000E+000        
  0.000000000000000E+000   1.00000000000000                                     
    2    2                                                                      
   1.84600000000000        1.00000000000000       0.000000000000000E+000        
  0.714000000000000       0.000000000000000E+000   1.00000000000000             
FINISH                                                                          
 
********************************************************************************
 ONE- AND TWO-ELECTRON INTEGRALS OVER SYMMETRY-ADAPTED AOS ARE CALCULATED.

  SPHERICAL HARMONICS ARE USED.
  
  INTEGRALS LESS THAN  0.10E-13 ARE NEGLECTED.

  NUCLEAR REPULSION ENERGY :   22.5131848438 A.U.
  @MOLECU-I, ONE ELECTRON INTEGRALS (CPU/WALL):        0.07/       0.09 SECONDS.
  @TWOEL-I,    4595968 INTEGRALS OF SYMMETRY TYPE  I I I I
  @TWOEL-I,   19727067 INTEGRALS OF SYMMETRY TYPE  I J I J
  @TWOEL-I,   10395446 INTEGRALS OF SYMMETRY TYPE  I I J J
  @TWOEL-I,   14595839 INTEGRALS OF SYMMETRY TYPE  I J K L
  @TWOEL-I, TOTAL NUMBER OF 2-E INTEGRALS   49314320.
  @MOLECU-I, TWO ELECTRON INTEGRALS (CPU/WALL):      190.14/      27.28 SECONDS.
 @CHECKOUT-I, Total execution time (CPU/WALL):      190.22/      27.40 seconds.

Running with 14 threads/proc

--executable xvmol finished with status     0 in       27.42 seconds (walltime).
 --invoking executable--
/nfs/workspaces/public/cfour_mpi/bin/xvmol2ja
 @GETMEM-I,  Allocated    3814 MB of main memory.
 @CHECKOUT-I, Total execution time (CPU/WALL):        0.13/       0.03 seconds.
--executable xvmol2ja finished with status     0 in        0.05 seconds (walltime).
 --invoking executable--
/nfs/workspaces/public/cfour_mpi/bin/xvprop
 @GETMEM-I,  Allocated    3814 MB of main memory.
   Property integrals will be calculated.
    --------------------------------------------------------------
                                   Property evaluated at 
    Property type                X             Y             Z
    --------------------------------------------------------------
    Dipole moment               ----          ----          ----  
    Quadrupole moment           ----          ----          ----  
    Octopole moment             ----          ----          ----  
    Relativisitic corr.         ----          ----          ----  
    Second moment            0.0000000     0.0000000     0.0000000
    Electron density         0.0000000     0.0000000     1.2181677
    Electron density         0.0000000     0.0000000    -0.9139162
    Field gradient           0.0000000     0.0000000     1.2181677
    Field gradient           0.0000000     0.0000000    -0.9139162
    Potential                0.0000000     0.0000000     1.2181677
    Potential                0.0000000     0.0000000    -0.9139162
    --------------------------------------------------------------
 @CHECKOUT-I, Total execution time (CPU/WALL):        1.31/       1.33 seconds.
--executable xvprop finished with status     0 in        1.34 seconds (walltime).
 --invoking executable--
/nfs/workspaces/public/cfour_mpi/bin/xvscf
  There are  218 functions in the AO basis.

  There are 4 irreducible representations.

       Irrep        # of functions
         1                 86
         2                 52
         3                 52
         4                 28


  Parameters for SCF calculation: 
        SCF reference function:  RHF  
  Maximum number of iterations:  150
     Full symmetry point group: CXv 
     Computational point group: C2v 
        Initial density matrix: MOREAD                 
     SCF convergence tolerance: 10**(-10)
  DIIS convergence acceleration:  ON
          Latest start for DIIS:   8
                     DIIS order:   6

  Memory information:    2523578 words required.
  Fock matrices are constructed from AO integral file.
 @GETMEM-I,  Allocated      19 MB of main memory.
  Initialization and symmetry analysis required      0.001 seconds.

  Adding electric field perturbation to one-electron Hamiltonian.
  Field direction     : Z
  Field strength      :  0.0002000 a.u.

  @INITGES-I, Occupancies from core Hamiltonian:

          Alpha population by irrep:   5    1    1    0
           Beta population by irrep:   5    1    1    0


 total no. of electrons in initial guess :  0.000000000000000E+000
  --------------------------------------------------------------------
  Iteration         Total Energy            Largest Density Difference
  --------------------------------------------------------------------
       0            22.513185308544852              0.0000000000D+00
   current occupation vector 
     5  1  1  0
     5  1  1  0
       1           -91.792765186549545              0.1871611870D+02
   current occupation vector 
     5  1  1  0
     5  1  1  0
       2           -96.468478822310701              0.2333009677D+02
   current occupation vector 
     5  1  1  0
     5  1  1  0
       3          -103.358546977927787              0.2331907485D+02
   current occupation vector 
     5  1  1  0
     5  1  1  0
       4          -100.407950392273293              0.7592163135D+01
   current occupation vector 
     5  1  1  0
     5  1  1  0
       5          -103.459288024972892              0.7399226895D+01
   current occupation vector 
     5  1  1  0
     5  1  1  0
       6          -100.508823061685732              0.5809352719D+01
   current occupation vector 
     5  1  1  0
     5  1  1  0
       7          -103.257789564113992              0.5595111717D+01
   current occupation vector 
     5  1  1  0
     5  1  1  0
       8          -100.261831373136303              0.5580132272D+01
   current occupation vector 
     5  1  1  0
     5  1  1  0
       9          -110.831017603328462              0.4185758290D+01
   current occupation vector 
     5  1  1  0
     5  1  1  0
      10          -112.305176059901015              0.9117764594D+00
   current occupation vector 
     5  1  1  0
     5  1  1  0
      11          -112.774914412253679              0.4955321682D+00
   current occupation vector 
     5  1  1  0
     5  1  1  0
      12          -112.788802337056836              0.1041700418D+00
   current occupation vector 
     5  1  1  0
     5  1  1  0
      13          -112.789218978972173              0.2305892913D-01
   current occupation vector 
     5  1  1  0
     5  1  1  0
      14          -112.789299067210663              0.1356890392D-01
   current occupation vector 
     5  1  1  0
     5  1  1  0
      15          -112.789302481465626              0.3685669402D-02
   current occupation vector 
     5  1  1  0
     5  1  1  0
      16          -112.789302519471704              0.3278776840D-03
   current occupation vector 
     5  1  1  0
     5  1  1  0
      17          -112.789302520423973              0.3634221122D-04
   current occupation vector 
     5  1  1  0
     5  1  1  0
      18          -112.789302520451940              0.6243715288D-05
   current occupation vector 
     5  1  1  0
     5  1  1  0
      19          -112.789302520453504              0.1190048362D-05
   current occupation vector 
     5  1  1  0
     5  1  1  0
      20          -112.789302520452424              0.2075370140D-06
   current occupation vector 
     5  1  1  0
     5  1  1  0
      21          -112.789302520452878              0.3362854506D-07
   current occupation vector 
     5  1  1  0
     5  1  1  0
      22          -112.789302520452907              0.8473475699D-08
   current occupation vector 
     5  1  1  0
     5  1  1  0
      23          -112.789302520452594              0.4728003988D-08
   current occupation vector 
     5  1  1  0
     5  1  1  0

  SCF has converged.

 Density matrix saved to file den.dat
 total electron number:   14.0000000000002     
     E(SCF)=      -112.789302520452253              0.9978197435D-10

  Eigenvector printing suppressed.

 @PUTMOS-I, Writing converged MOs to NEWMOS. 
 @PUTMOS-I, Symmetry   1 Full Blocks 21 Partial Blocksize   2
 @PUTMOS-I, Symmetry   2 Full Blocks 13 Partial Blocksize   0
 @PUTMOS-I, Symmetry   3 Full Blocks 13 Partial Blocksize   0
 @PUTMOS-I, Symmetry   4 Full Blocks  7 Partial Blocksize   0
 @PUTFOCK-I, Writing converged Fock matrix to NEWFOCK. 
 @PUTFOCK-I, Symmetry   1 Full Blocks 21 Partial Blocksize   2
 @PUTFOCK-I, Symmetry   2 Full Blocks 13 Partial Blocksize   0
 @PUTFOCK-I, Symmetry   3 Full Blocks 13 Partial Blocksize   0
 @PUTFOCK-I, Symmetry   4 Full Blocks  7 Partial Blocksize   0


 
  ORBITAL EIGENVALUES (ALPHA)  (1H = 27.2113834 eV)

       MO #        E(hartree)               E(eV)           FULLSYM    COMPSYM
       ----   --------------------   --------------------   -------   ---------
    1     1         -20.6651561483        -562.3274869714     SG+        A1 (1)
    2     2         -11.3602789301        -309.1289054983     SG+        A1 (1)
    3     3          -1.5217114800         -41.4078745067     SG+        A1 (1)
    4     4          -0.8046597603         -21.8959052428     SG+        A1 (1)
    5    87          -0.6403462156         -17.4247063813      PI        B1 (2)
    6   139          -0.6403462156         -17.4247063813      PI        B2 (3)
    7     5          -0.5547279352         -15.0949145282     SG+        A1 (1)
  +++++++++++++++++++++++++++++++++++++++++++++++++++++++++++++++++++++++++++++
    8     6           0.0596427886           1.6229627866     SG+        A1 (1)
    9   140           0.0632218103           1.7203529204      PI        B2 (3)
   10    88           0.0632218103           1.7203529204      PI        B1 (2)
   11     7           0.0756847457           2.0594866317     SG+        A1 (1)
   12   141           0.1411046216           3.8396519568      PI        B2 (3)
   13    89           0.1411046216           3.8396519568      PI        B1 (2)
   14     8           0.1559555580           4.2437664812     SG+        A1 (1)
   15   142           0.1667280655           4.5369013135      PI        B2 (3)
   16    90           0.1667280655           4.5369013135      PI        B1 (2)
   17     9           0.2279196595           6.2020092391     SG+        A1 (1)
   18    10           0.2281518641           6.2083278484      DE        A1 (1)
   19   191           0.2281518641           6.2083278484      DE        A2 (4)
   20    11           0.3015455598           8.2054718402     SG+        A1 (1)
   21   143           0.3211896028           8.7400134249      PI        B2 (3)
   22    91           0.3211896028           8.7400134249      PI        B1 (2)
   23    12           0.3922321519          10.6731794679     SG+        A1 (1)
   24    92           0.3958057010          10.7704206829      PI        B1 (2)
   25   144           0.3958057010          10.7704206829      PI        B2 (3)
   26    13           0.5081041590          13.8262170777     SG+        A1 (1)
   27   192           0.5344744774          14.5437899226      DE        A2 (4)
   28    14           0.5344744774          14.5437899226      DE        A1 (1)
   29   145           0.6228266548          16.9479748956      PI        B2 (3)
   30    93           0.6228266548          16.9479748956      PI        B1 (2)
   31    15           0.6450560501          17.5528674937     SG+        A1 (1)
   32    94           0.7490002290          20.3813323985      PH        B1 (2)
   33   146           0.7490002290          20.3813323985      PH        B2 (3)
   34    16           0.7688459245          20.9213612260      DE        A1 (1)
   35   193           0.7688459245          20.9213612260      DE        A2 (4)
   36    17           0.7799333766          21.2230661383     SG+        A1 (1)
   37   147           0.8238022584          22.4167991003      PI        B2 (3)
   38    95           0.8238022584          22.4167991003      PI        B1 (2)
   39    18           0.8724360310          23.7401913318     SG+        A1 (1)
   40    96           0.8810670702          23.9750538474      PI        B1 (2)
   41   148           0.8810670702          23.9750538474      PI        B2 (3)
   42    19           0.8913139135          24.2538846295      DE        A1 (1)
   43   194           0.8913139135          24.2538846295      DE        A2 (4)
   44    20           0.9108483375          24.7854433323     SG+        A1 (1)
   45    97           1.0771744817          29.3114078090      PI        B1 (2)
   46   149           1.0771744817          29.3114078090      PI        B2 (3)
   47    21           1.1959424408          32.5432482822     SG+        A1 (1)
   48    98           1.4474611279          39.3874197087      PH        B1 (2)
   49   150           1.4474611279          39.3874197087      PH        B2 (3)
   50    22           1.4743805537          40.1199345242     SG+        A1 (1)
   51    23           1.5174642241          41.2923007988      DE        A1 (1)
   52   195           1.5174642241          41.2923007988      DE        A2 (4)
   53   151           1.5535528668          42.2743226910      PI        B2 (3)
   54    99           1.5535528668          42.2743226910      PI        B1 (2)
   55    24           1.6670587591          45.3629750454     SG+        A1 (1)
   56    25           1.7690113514          48.1372461233      DE        A1 (1)
   57   196           1.7690113515          48.1372461233      DE        A2 (4)
   58    26           1.7706659408          48.1822697889     SG+        A1 (1)
   59   152           1.8056543115          49.1343517594      PI        B2 (3)
   60   100           1.8056543115          49.1343517594      PI        B1 (2)
   61   153           1.9686516585          53.5697350594      PI        B2 (3)
   62   101           1.9686516585          53.5697350594      PI        B1 (2)
   63   197           2.1058375277          57.3027523434      PI        A2 (4)
   64    27           2.1058375277          57.3027523434      PI        A1 (1)
   65    28           2.1355935192          58.1124540381     SG+        A1 (1)
   66    29           2.1961798409          59.7610916649      DE        A1 (1)
   67   198           2.1961798409          59.7610916649      DE        A2 (4)
   68   102           2.2521224473          61.2833673782      PH        B1 (2)
   69   154           2.2521224473          61.2833673782      PH        B2 (3)
   70    30           2.3160396798          63.0226436977     SG+        A1 (1)
   71   155           2.3253431276          63.2758033809      PI        B2 (3)
   72   103           2.3253431276          63.2758033810      PI        B1 (2)
   73   156           2.3633813368          64.3108756756      PH        B2 (3)
   74   104           2.3633813368          64.3108756756      PH        B1 (2)
   75    31           2.3647556266          64.3482720022      DE        A1 (1)
   76   199           2.3647556266          64.3482720022      DE        A2 (4)
   77    32           2.4869720536          67.6739500548     SG+        A1 (1)
   78   157           2.5980764997          70.6972557355      PI        B2 (3)
   79   105           2.5980764997          70.6972557355      PI        B1 (2)
   80   106           2.8324783652          77.0756547683      PI        B1 (2)
   81   158           2.8324783652          77.0756547683      PI        B2 (3)
   82    33           2.9426241822          80.0728748232     SG+        A1 (1)
   83    34           3.0094774959          81.8920459742      DE        A1 (1)
   84   200           3.0094774959          81.8920459744      DE        A2 (4)
   85    35           3.4751572464          94.5638362060     SG+        A1 (1)
   86    36           3.7236639167         101.3260464887      PI        A1 (1)
   87   201           3.7236639167         101.3260464887      PI        A2 (4)
   88   159           3.7509033788         102.0672699363      PI        B2 (3)
   89   107           3.7509033788         102.0672699364      PI        B1 (2)
   90    37           3.9472132024         107.4091318109     SG+        A1 (1)
   91   108           4.0826620759         111.0948830404      PH        B1 (2)
   92   160           4.0826620759         111.0948830404      PH        B2 (3)
   93    38           4.1764248529         113.6462979143      DE        A1 (1)
   94   202           4.1764248529         113.6462979143      DE        A2 (4)
   95   161           4.2104605299         114.5724557702      PI        B2 (3)
   96   109           4.2104605299         114.5724557703      PI        B1 (2)
   97    39           4.2722484076         116.2537893994     SG+        A1 (1)
   98   162           4.2841245549         116.5769557958      PH        B2 (3)
   99   110           4.2841245549         116.5769557958      PH        B1 (2)
  100    40           4.3818867352         119.2371999664      DE        A1 (1)
  101   203           4.3818867352         119.2371999665      DE        A2 (4)
  102    41           4.5354285450         123.4152850215     SG+        A1 (1)
  103   163           4.7638693179         129.6314744764      PI        B2 (3)
  104   111           4.7638693179         129.6314744764      PI        B1 (2)
  105    42           5.0138656373         136.4342201716     SG+        A1 (1)
  106   112           5.1306691897         139.6126064193      PI        B1 (2)
  107   164           5.1306691897         139.6126064193      PI        B2 (3)
  108   204           5.1524387331         140.2049858104      DE        A2 (4)
  109    43           5.1524387331         140.2049858104      DE        A1 (1)
  110   113           5.8166411114         158.2788513833      PI        B1 (2)
  111   165           5.8166411114         158.2788513834      PI        B2 (3)
  112    44           5.8538952911         159.2925891488     SG+        A1 (1)
  113   205           5.9012015473         160.5798578240      PI        A2 (4)
  114    45           5.9012015473         160.5798578240      PI        A1 (1)
  115   166           6.1366618525         166.9870584640      PH        B2 (3)
  116   114           6.1366618525         166.9870584640      PH        B1 (2)
  117    46           6.2328463903         169.6043727990     SG+        A1 (1)
  118    47           6.3060447272         171.5962008106      DE        A1 (1)
  119   206           6.3060447272         171.5962008107      DE        A2 (4)
  120   167           6.3286898544         172.2124060473      PI        B2 (3)
  121   115           6.3286898544         172.2124060473      PI        B1 (2)
  122   168           6.4437030297         175.3420736557      PH        B2 (3)
  123   116           6.4437030297         175.3420736557      PH        B1 (2)
  124   207           6.5908376503         179.3458102307      DE        A2 (4)
  125    48           6.5908376503         179.3458102308      DE        A1 (1)
  126    49           7.0561599624         192.0078740694     SG+        A1 (1)
  127   208           7.3514331147         200.0426650228      DE        A2 (4)
  128    50           7.3514331147         200.0426650228      DE        A1 (1)
  129   169           7.4942387470         203.9286038345      PI        B2 (3)
  130   117           7.4942387470         203.9286038345      PI        B1 (2)
  131    51           7.7958508403         212.1358861452     SG+        A1 (1)
  132    52           8.2570119702         224.6847184599     SG+        A1 (1)
  133   118           8.4905840601         231.0405381499      PI        B1 (2)
  134   170           8.4905840601         231.0405381499      PI        B2 (3)
  135   119          10.1227588281         275.4542715374      PI        B1 (2)
  136   171          10.1227588281         275.4542715376      PI        B2 (3)
  137    53          10.5212589760         286.2980118474     SG+        A1 (1)
  138    54          10.6018874506         288.4920241828      PI        A1 (1)
  139   209          10.6018874506         288.4920241828      PI        A2 (4)
  140   172          10.8826148946         296.1310062928      PH        B2 (3)
  141   120          10.8826148946         296.1310062928      PH        B1 (2)
  142    55          11.1356212951         303.0156604581      DE        A1 (1)
  143   210          11.1356212951         303.0156604582      DE        A2 (4)
  144    56          11.1576741722         303.6157497521     SG+        A1 (1)
  145   173          11.3739291670         309.5003473268      PI        B2 (3)
  146   121          11.3739291670         309.5003473268      PI        B1 (2)
  147    57          11.6241688426         316.3097150826     SG+        A1 (1)
  148   174          11.8549938203         322.5907820487      PH        B2 (3)
  149   122          11.8549938203         322.5907820487      PH        B1 (2)
  150   211          12.2931975641         334.5149121289      DE        A2 (4)
  151    58          12.2931975641         334.5149121290      DE        A1 (1)
  152   123          12.6476027013         344.1587661956      PI        B1 (2)
  153   175          12.6476027013         344.1587661956      PI        B2 (3)
  154    59          12.8788125850         350.4503069862      DE        A1 (1)
  155   212          12.8788125850         350.4503069863      DE        A2 (4)
  156    60          13.3187696274         362.4221467486     SG+        A1 (1)
  157   124          14.1879644207         386.0741395180      PI        B1 (2)
  158   176          14.1879644207         386.0741395180      PI        B2 (3)
  159    61          15.6009619723         424.5237576362     SG+        A1 (1)
  160    62          18.0448939670         491.0265281484     SG+        A1 (1)
  161   125          19.4161351181         528.3398968439      PI        B1 (2)
  162   177          19.4161351181         528.3398968442      PI        B2 (3)
  163    63          20.6808779458         562.7552988305     SG+        A1 (1)
  164   213          26.5392860985         722.1706891875      DE        A2 (4)
  165    64          26.5392860985         722.1706891876      DE        A1 (1)
  166   178          27.0292728830         735.5039074436      PI        B2 (3)
  167   126          27.0292728830         735.5039074436      PI        B1 (2)
  168    65          28.2468857913         768.6368391228     SG+        A1 (1)
  169   127          33.7977338564         919.6830940181      PI        B1 (2)
  170   179          33.7977338565         919.6830940192      PI        B2 (3)
  171    66          35.0154847432         952.8197802851     SG+        A1 (1)
  172    67          36.8474956832        1002.6713323656     SG+        A1 (1)
  173    68          47.1236929066        1282.3008749060      DE        A1 (1)
  174   214          47.1236929066        1282.3008749061      DE        A2 (4)
  175   128          47.7279328479        1298.7430796130      PI        B1 (2)
  176   180          47.7279328479        1298.7430796131      PI        B2 (3)
  177    69          48.5922962878        1322.2636045747     SG+        A1 (1)
  178    70          64.2381926424        1748.0100889144     SG+        A1 (1)
  179   129          66.8593392695        1819.3351147338      PI        B1 (2)
  180   181          66.8593392695        1819.3351147340      PI        B2 (3)
  181    71          67.8350851754        1845.8865106782     SG+        A1 (1)
  182   130          98.6771059907        2685.1405639161      PH        B1 (2)
  183   182          98.6771059907        2685.1405639161      PH        B2 (3)
  184    72          98.7000403298        2685.7646390106      DE        A1 (1)
  185   215          98.7000403298        2685.7646390106      DE        A2 (4)
  186   131          98.7692755593        2687.6486253837      PI        B1 (2)
  187   183          98.7692755593        2687.6486253837      PI        B2 (3)
  188    73          98.7805669852        2687.9558807043     SG+        A1 (1)
  189   184         103.2843924330        2810.5112017294      PH        B2 (3)
  190   132         103.2843924330        2810.5112017294      PH        B1 (2)
  191    74         103.3353869060        2811.8988318854      DE        A1 (1)
  192   216         103.3353869060        2811.8988318860      DE        A2 (4)
  193   133         103.3630456123        2812.6514635467      PI        B1 (2)
  194   185         103.3630456123        2812.6514635468      PI        B2 (3)
  195    75         103.4261825477        2814.3695069052     SG+        A1 (1)
  196    76         115.1914547429        3134.5188394140      DE        A1 (1)
  197   217         115.1914547429        3134.5188394140      DE        A2 (4)
  198   186         115.4305748107        3141.0256272551      PI        B2 (3)
  199   134         115.4305748107        3141.0256272551      PI        B1 (2)
  200    77         116.0484690736        3157.8393849444     SG+        A1 (1)
  201   135         117.0461956510        3184.9889053696      PI        B1 (2)
  202   187         117.0461956510        3184.9889053705      PI        B2 (3)
  203    78         118.0849739800        3213.2555007483     SG+        A1 (1)
  204    79         122.9348896522        3345.2284155637     SG+        A1 (1)
  205    80         198.5802757319        5403.6440186188      DE        A1 (1)
  206   218         198.5802757319        5403.6440186189      DE        A2 (4)
  207   188         198.9077904067        5412.5561460023      PI        B2 (3)
  208   136         198.9077904067        5412.5561460024      PI        B1 (2)
  209    81         199.3410338774        5424.3453001903     SG+        A1 (1)
  210    82         216.7156303183        5897.1321053628     SG+        A1 (1)
  211   137         225.2710245913        6129.9362190635      PI        B1 (2)
  212   189         225.2710245913        6129.9362190638      PI        B2 (3)
  213    83         226.0697026815        6151.6693547914     SG+        A1 (1)
  214   138         395.5042120942       10762.2167516094      PI        B1 (2)
  215   190         395.5042120942       10762.2167516100      PI        B2 (3)
  216    84         396.3604914901       10785.5172985508     SG+        A1 (1)
  217    85         509.4653130594       13863.2559626601     SG+        A1 (1)
  218    86         895.5470861622       24369.0751143130     SG+        A1 (1)


  VSCF finished.

 @CHECKOUT-I, Total execution time (CPU/WALL):       43.20/       8.44 seconds.
--executable xvscf finished with status     0 in        8.47 seconds (walltime).
 --invoking executable--
/nfs/workspaces/public/cfour_mpi/bin/xvtran
 @GETMEM-I,  Allocated    3814 MB of main memory.
  Full RHF integral transformation
  Transformation of IIII integrals :
  1 pass through the AO integral file was required.
     4595968 AO integrals were read.
     8825023 MO integrals were written to HF2.
  Transformation of IIJJ integrals :
  1 pass through the AO integral file was required.
    10395446 AO integrals were read.
    14634462 MO integrals were written to HF2.
  Transformation of IJIJ integrals :
  1 pass through the AO integral file was required.
    19727067 AO integrals were read.
    27510218 MO integrals were written to HF2.
  Transformation of IJKL integrals :
  1 pass through the AO integral file was required.
    14595839 AO integrals were read.
    18567451 MO integrals were written to HF2.
  Summary of active molecular orbitals: 
------------------------------------------------------------------------
 
  Index      Eigenvalue    Symmetry    Index      Eigenvalue    Symmetry
------------------------------------------------------------------------
     1       -20.6651561        1       110         4.2104605        2
     2       -11.3602789        1       111         4.2841246        2
     3        -1.5217115        1       112         4.7638693        2
     4        -0.8046598        1       113         5.1306692        2
     5        -0.5547279        1       114         5.8166411        2
     6        -0.6403462        2       115         6.1366619        2
     7        -0.6403462        3       116         6.3286899        2
     8         0.0596428        1       117         6.4437030        2
     9         0.0756847        1       118         7.4942387        2
    10         0.1559556        1       119         8.4905841        2
    11         0.2279197        1       120        10.1227588        2
    12         0.2281519        1       121        10.8826149        2
    13         0.3015456        1       122        11.3739292        2
    14         0.3922322        1       123        11.8549938        2
    15         0.5081042        1       124        12.6476027        2
    16         0.5344745        1       125        14.1879644        2
    17         0.6450561        1       126        19.4161351        2
    18         0.7688459        1       127        27.0292729        2
    19         0.7799334        1       128        33.7977339        2
    20         0.8724360        1       129        47.7279328        2
    21         0.8913139        1       130        66.8593393        2
    22         0.9108483        1       131        98.6771060        2
    23         1.1959424        1       132        98.7692756        2
    24         1.4743806        1       133       103.2843924        2
    25         1.5174642        1       134       103.3630456        2
    26         1.6670588        1       135       115.4305748        2
    27         1.7690114        1       136       117.0461957        2
    28         1.7706659        1       137       198.9077904        2
    29         2.1058375        1       138       225.2710246        2
    30         2.1355935        1       139       395.5042121        2
    31         2.1961798        1       140         0.0632218        3
    32         2.3160397        1       141         0.1411046        3
    33         2.3647556        1       142         0.1667281        3
    34         2.4869721        1       143         0.3211896        3
    35         2.9426242        1       144         0.3958057        3
    36         3.0094775        1       145         0.6228267        3
    37         3.4751572        1       146         0.7490002        3
    38         3.7236639        1       147         0.8238023        3
    39         3.9472132        1       148         0.8810671        3
    40         4.1764249        1       149         1.0771745        3
    41         4.2722484        1       150         1.4474611        3
    42         4.3818867        1       151         1.5535529        3
    43         4.5354285        1       152         1.8056543        3
    44         5.0138656        1       153         1.9686517        3
    45         5.1524387        1       154         2.2521224        3
    46         5.8538953        1       155         2.3253431        3
    47         5.9012015        1       156         2.3633813        3
    48         6.2328464        1       157         2.5980765        3
    49         6.3060447        1       158         2.8324784        3
    50         6.5908377        1       159         3.7509034        3
    51         7.0561600        1       160         4.0826621        3
    52         7.3514331        1       161         4.2104605        3
    53         7.7958508        1       162         4.2841246        3
    54         8.2570120        1       163         4.7638693        3
    55        10.5212590        1       164         5.1306692        3
    56        10.6018875        1       165         5.8166411        3
    57        11.1356213        1       166         6.1366619        3
    58        11.1576742        1       167         6.3286899        3
    59        11.6241688        1       168         6.4437030        3
    60        12.2931976        1       169         7.4942387        3
    61        12.8788126        1       170         8.4905841        3
    62        13.3187696        1       171        10.1227588        3
    63        15.6009620        1       172        10.8826149        3
    64        18.0448940        1       173        11.3739292        3
    65        20.6808779        1       174        11.8549938        3
    66        26.5392861        1       175        12.6476027        3
    67        28.2468858        1       176        14.1879644        3
    68        35.0154847        1       177        19.4161351        3
    69        36.8474957        1       178        27.0292729        3
    70        47.1236929        1       179        33.7977339        3
    71        48.5922963        1       180        47.7279328        3
    72        64.2381926        1       181        66.8593393        3
    73        67.8350852        1       182        98.6771060        3
    74        98.7000403        1       183        98.7692756        3
    75        98.7805670        1       184       103.2843924        3
    76       103.3353869        1       185       103.3630456        3
    77       103.4261825        1       186       115.4305748        3
    78       115.1914547        1       187       117.0461957        3
    79       116.0484691        1       188       198.9077904        3
    80       118.0849740        1       189       225.2710246        3
    81       122.9348897        1       190       395.5042121        3
    82       198.5802757        1       191         0.2281519        4
    83       199.3410339        1       192         0.5344745        4
    84       216.7156303        1       193         0.7688459        4
    85       226.0697027        1       194         0.8913139        4
    86       396.3604915        1       195         1.5174642        4
    87       509.4653131        1       196         1.7690114        4
    88       895.5470862        1       197         2.1058375        4
    89         0.0632218        2       198         2.1961798        4
    90         0.1411046        2       199         2.3647556        4
    91         0.1667281        2       200         3.0094775        4
    92         0.3211896        2       201         3.7236639        4
    93         0.3958057        2       202         4.1764249        4
    94         0.6228267        2       203         4.3818867        4
    95         0.7490002        2       204         5.1524387        4
    96         0.8238023        2       205         5.9012015        4
    97         0.8810671        2       206         6.3060447        4
    98         1.0771745        2       207         6.5908377        4
    99         1.4474611        2       208         7.3514331        4
   100         1.5535529        2       209        10.6018875        4
   101         1.8056543        2       210        11.1356213        4
   102         1.9686517        2       211        12.2931976        4
   103         2.2521224        2       212        12.8788126        4
   104         2.3253431        2       213        26.5392861        4
   105         2.3633813        2       214        47.1236929        4
   106         2.5980765        2       215        98.7000403        4
   107         2.8324784        2       216       103.3353869        4
   108         3.7509034        2       217       115.1914547        4
   109         4.0826621        2       218       198.5802757        4
------------------------------------------------------------------------
  -20.6651561482673       -11.3602789301161       -1.52171148001042     
 -0.804659760251784      -0.554727935227649      -0.640346215596294     
 -0.640346215596275       5.964278856052089E-002  7.568474566187192E-002
  0.155955557966623       0.227919659501579       0.228151864134349     
  0.301545559797381       0.392232151928078       0.508104159000737     
  0.534474477421205       0.645056050099475       0.768845924458740     
  0.779933376644518       0.872436031010103       0.891313913479953     
  0.910848337547377        1.19594244084585        1.47438055369866     
   1.51746422413950        1.66705875914247        1.76901135144989     
   1.77066594081597        2.10583752766507        2.13559351922093     
   2.19617984085518        2.31603967984010        2.36475562658119     
   2.48697205356941        2.94262418217336        3.00947749588421     
   3.47515724636196        3.72366391665141        3.94721320235948     
   4.17642485292571        4.27224840760450        4.38188673518230     
   4.53542854500764        5.01386563726289        5.15243873306408     
   5.85389529107319        5.90120154728902        6.23284639027390     
   6.30604472724623        6.59083765034753        7.05615996243094     
   7.35143311467184        7.79585084032233        8.25701197021644     
   10.5212589760273        10.6018874506338        11.1356212950992     
   11.1576741722041        11.6241688426118        12.2931975641120     
   12.8788125849643        13.3187696274407        15.6009619722695     
   18.0448939669995        20.6808779457544        26.5392860984657     
   28.2468857912895        35.0154847432392        36.8474956832070     
   47.1236929066239        48.5922962878371        64.2381926423624     
   67.8350851753547        98.7000403298341        98.7805669852243     
   103.335386905961        103.426182547748        115.191454742943     
   116.048469073585        118.084973979981        122.934889652235     
   198.580275731913        199.341033877399        216.715630318260     
   226.069702681539        396.360491490145        509.465313059390     
[...]
 Convergence information after     9 iterations: 
 Largest element of residual vector :  0.87150352E-05.
 Largest element of DIIS residual   :  0.47318053E-05.
 Convergence information after    10 iterations: 
 Largest element of residual vector :  0.49943962E-05.
 Largest element of DIIS residual   :  0.33508514E-05.
 Convergence information after    11 iterations: 
 Largest element of residual vector :  0.19119974E-05.
 Largest element of DIIS residual   :  0.72939753E-06.
 Convergence information after    12 iterations: 
 Largest element of residual vector :  0.77866066E-06.
 Largest element of DIIS residual   :  0.39406606E-06.
 Convergence information after    13 iterations: 
 Largest element of residual vector :  0.29711762E-06.
 Largest element of DIIS residual   :  0.21185803E-06.
 Convergence information after    14 iterations: 
 Largest element of residual vector :  0.16373772E-06.
 Largest element of DIIS residual   :  0.87344907E-07.
 Perturbed amplitude equations converged in    14 iterations.
  Dominant contributions to perturbed wavefunction:
    7    7  141   28   0.2110437779 ABAB
    7    7   28  141   0.2110437779 ABAB
    7    7  141   37   0.1988188416 ABAB
    7    7   37  141   0.1988188416 ABAB
    7    7  141   55   0.1762652128 ABAB
    7    7   55  141   0.1762652128 ABAB
    7    7  142   28   0.1648209115 ABAB
    7    7   28  142   0.1648209115 ABAB
    7    7  142   37   0.1531825685 ABAB
    7    7   37  142   0.1531825685 ABAB
    5    5  141   44   0.1443742461 ABAB
    5    5   44  141   0.1443742461 ABAB
    7    7  141   53  -0.1401964880 ABAB
    7    7   53  141  -0.1401964880 ABAB
    7    6   28   90   0.1387991916 ABAB
    6    7   90   28   0.1387991916 ABAB
    7    7  141   44   0.1373942743 ABAB
    7    7   44  141   0.1373942743 ABAB
    7    7  141   63   0.1340872053 ABAB
    7    7   63  141   0.1340872053 ABAB
  norm of converged amps    2.45153040007571     
 Starting iterative solution of the perturbed Lambda equations.
 The DIIS procedure is used to accelerate convergence.
 Convergence criterion is 10**(-7).
 Maximum number of iterations is 100.
 Convergence information after     1 iterations: 
 Largest element of residual vector : -0.68049227E-01.
 Largest element of DIIS residual   : -0.68049227E-01.
 Convergence information after     2 iterations: 
 Largest element of residual vector :  0.75844187E-02.
 Largest element of DIIS residual   :  0.51335447E-02.
 Convergence information after     3 iterations: 
 Largest element of residual vector : -0.43453648E-02.
 Largest element of DIIS residual   : -0.37714669E-02.
 Convergence information after     4 iterations: 
 Largest element of residual vector : -0.26854570E-02.
 Largest element of DIIS residual   : -0.21225371E-02.
 Convergence information after     5 iterations: 
 Largest element of residual vector : -0.15684477E-02.
 Largest element of DIIS residual   : -0.72706214E-03.
 Convergence information after     6 iterations: 
 Largest element of residual vector : -0.50952422E-03.
 Largest element of DIIS residual   :  0.12076478E-03.
 Convergence information after     7 iterations: 
 Largest element of residual vector : -0.98028246E-04.
 Largest element of DIIS residual   : -0.45485096E-04.
 Convergence information after     8 iterations: 
 Largest element of residual vector : -0.19985884E-04.
 Largest element of DIIS residual   :  0.19171019E-04.
 Convergence information after     9 iterations: 
 Largest element of residual vector :  0.71715208E-05.
 Largest element of DIIS residual   : -0.39394486E-05.
 Convergence information after    10 iterations: 
 Largest element of residual vector :  0.40405836E-05.
 Largest element of DIIS residual   :  0.28575141E-05.
 Convergence information after    11 iterations: 
 Largest element of residual vector :  0.15104352E-05.
 Largest element of DIIS residual   :  0.66766797E-06.
 Convergence information after    12 iterations: 
 Largest element of residual vector :  0.69647740E-06.
 Largest element of DIIS residual   :  0.46411524E-06.
 Convergence information after    13 iterations: 
 Largest element of residual vector :  0.34306955E-06.
 Largest element of DIIS residual   :  0.26797986E-06.
 Convergence information after    14 iterations: 
 Largest element of residual vector :  0.20447936E-06.
 Largest element of DIIS residual   :  0.10557091E-06.
 Convergence information after    15 iterations: 
 Largest element of residual vector :  0.73578181E-07.
 Largest element of DIIS residual   :  0.33550241E-07.
 Perturbed Lambda equations converged in    15 iterations.
  Dominant contributions to perturbed wavefunction:
    7    7  141   28   0.1988632803 ABAB
    7    7   28  141   0.1988632803 ABAB
    7    7  141   37   0.1883317698 ABAB
    7    7   37  141   0.1883317698 ABAB
    7    7  141   55   0.1647307819 ABAB
    7    7   55  141   0.1647307819 ABAB
    7    7  142   28   0.1570403759 ABAB
    7    7   28  142   0.1570403759 ABAB
    7    7  142   37   0.1465782952 ABAB
    7    7   37  142   0.1465782952 ABAB
    5    5  141   44   0.1385250870 ABAB
    5    5   44  141   0.1385250870 ABAB
    7    7  141   53  -0.1318873100 ABAB
    7    7   53  141  -0.1318873100 ABAB
    7    6   28   90   0.1289204761 ABAB
    6    7   90   28   0.1289204761 ABAB
    7    7  141   44   0.1270259036 ABAB
    7    7   44  141   0.1270259036 ABAB
    7    7  141   63   0.1268391896 ABAB
    7    7   63  141   0.1268391896 ABAB
        The DBOC first-order density matrix is being calculated 
             (Symmetry block 3, perturbation   2)
 term   7.04657711781007     
 final tnorm  0.887468610165597     
  norm contr. I: |<0|L dT/dx|0>|^2   0.000000000000000E+000
  norm contr. II: <0|[nabla(1+L)e-T][nabla e^T]|0>   7.04657711781007     
  total norm contribution   7.04657711781007     
 oo  1.192497138491552E-002
 vv  -52.9008164950410     
 vo  4.488895487363383E-002
  Correlated perturbed 1-el contribution to DBOC  -52.8440025687825       cm**-1
  SUM_I |dc_I/dx|^2 contribution to DBOC   26.5283165748031       cm**-1
 
 
  The total diagonal Born-Oppenheimer correction (DBOC) is:      0.0041430850 a.u.
  The total diagonal Born-Oppenheimer correction (DBOC) is:        909.302059 cm-1
 
 Total CC energy including DBOC  -113.281624353539     
 First-order density matrix is being calculated  (Symmetry block 3, perturbation   2)
 Calculation of the contributions of <pq||rs> to dI(i,j)/dx required   1.9 seconds.
 Calculation of the contributions of <pq||rs> to dI(a,b)/dx required  15.8 seconds.
 Calculation of the contributions of <pq||rs> to dI(i,a)/dx required   9.5 seconds.
 First-order Z-vector equations are solved for 1 perturbation.
 Convergence reached after  18 iterations.
        U*G(pq,rs) contribution is being calculated
             (Symmetry block 3, perturbation   2)

 CCSD contribution to force constants 

        0.0000000000        0.0000000000        0.0000000000
        0.0000000000        0.0000000000        0.0000000000
        0.0000000000        0.0000000000        0.0000000000
        0.0000000000        0.0000000000        0.0000000000
        0.0000000000        0.0000000000        0.0000000000
        0.0000000000        0.0000000000        0.0000000000
        0.0000000000        0.0000000000        0.0000000000
        0.0000000000        0.0000000000        0.0000000000
        0.0000000000        0.0000000000        0.0000000000
        0.0000000000        0.0000000000        0.0000000000
        0.0000000000        0.0000000000        0.0000000000
        0.0000000000       -2.0678364184        2.0678364184

 CCSD contribution to dipole derivatives 

        0.0000000000        0.0000000000        0.0000000000
        0.0000000000        0.0000000000        0.0000000000
        0.0000000000        0.0000000000        0.0000000000
        0.0000000000        0.0000000000       -0.0444804162
        0.0000000000        0.0000000000        0.0000000000
        0.0000000000        0.0000000000        0.0000000000
 @CHECKOUT-I, Total execution time (CPU/WALL):     1007.07/     209.41 seconds.
--executable xsdcc finished with status     0 in      209.45 seconds (walltime).
 --invoking executable--
/nfs/workspaces/public/cfour_mpi/bin/xanti
 @GETMEM-I,  Allocated    3814 MB of main memory.
 CCSD MO derivative gammas will be sorted to Mulliken order.
 @CHECKOUT-I, Total execution time (CPU/WALL):        9.77/      24.40 seconds.
--executable xanti finished with status     0 in       24.42 seconds (walltime).
 --invoking executable--
/nfs/workspaces/public/cfour_mpi/bin/xbcktrn
 @GETMEM-I,  Allocated    3814 MB of main memory.
 CCSD MO derivative gammas will be transformed to the AO basis.
 @CHECKOUT-I, Total execution time (CPU/WALL):       24.64/       6.51 seconds.
--executable xbcktrn finished with status     0 in        6.53 seconds (walltime).
 --invoking executable--
/nfs/workspaces/public/cfour_mpi/bin/xvdint
 @GETMEM-I,  Allocated    3814 MB of main memory.
 One- and two-electron integral derivatives are calculated
 for RHF-CC/MBPT hessians and dipole derivatives.
 Spherical gaussians are used.
  magnet F F
                    8722  records have been written to the Sort file.
  Total length of Sort file :             178609116  words.
 Evaluation of 2el integral derivatives

                      Two-electron integral gradient
                      ------------------------------

                         C #1 z     0.0000000000
                         O #2 z     0.0000000000


 C #1       0.0000000000           -0.6512297928            0.0000000000
 O #2       0.0000000000            0.6512297928            0.0000000000


 Evaluation of 2e integral derivatives required  350.39 seconds.
  contribution to Hessian
        0.0000000000        0.0000000000        0.0000000000
        0.0000000000       -0.6512297928        0.6512297928
 @CHECKOUT-I, Total execution time (CPU/WALL):      350.38/      71.22 seconds.
--executable xvdint finished with status     0 in       71.25 seconds (walltime).
 --invoking executable--
/nfs/workspaces/public/cfour_mpi/bin/xanti
 @GETMEM-I,  Allocated    3814 MB of main memory.
 CCSD MO gammas will be sorted to Mulliken order.
 @CHECKOUT-I, Total execution time (CPU/WALL):       12.15/      10.79 seconds.
--executable xanti finished with status     0 in       10.81 seconds (walltime).
 --invoking executable--
/nfs/workspaces/public/cfour_mpi/bin/xbcktrn
 @GETMEM-I,  Allocated    3814 MB of main memory.
 CCSD MO gammas will be transformed to the AO basis.
 @CHECKOUT-I, Total execution time (CPU/WALL):       31.83/       4.96 seconds.
--executable xbcktrn finished with status     0 in        4.99 seconds (walltime).
 --invoking executable--
/nfs/workspaces/public/cfour_mpi/bin/xvdint
 @GETMEM-I,  Allocated    3814 MB of main memory.
 One- and two-electron integral derivatives are calculated
 for RHF-CC/MBPT hessians and dipole derivatives.
 Spherical gaussians are used.
  magnet F F

                     Kinetic energy integral gradient
                     --------------------------------

                         C #1 z    -1.5069294139
                         O #2 z     1.5069294139


 C #1       0.0000000000            0.0000000000           -1.5069294139
 O #2       0.0000000000            0.0000000000            1.5069294139



                   Nuclear attraction integral gradient
                   ------------------------------------

                         C #1 z    23.6860892786
                         O #2 z   -23.6860892786


 C #1       0.0000000000            0.0000000000           23.6860892786
 O #2       0.0000000000            0.0000000000          -23.6860892786



                      Reorthonormalization gradient
                      -----------------------------

                         C #1 z     0.0000000000
                         O #2 z     0.0000000000


 C #1       0.0000000000            0.0000000000            0.0000000000
 O #2       0.0000000000            0.0000000000            0.0000000000



                     Kinetic energy integral Hessian
                     -------------------------------


           Symmetry 1

           C #1 z      O #2 z

 C #1 z    1.093272
 O #2 z   -1.093272    1.093272


           Symmetry 2

           C #1 x      O #2 x

 C #1 x   -2.007637
 O #2 x    2.007637   -2.007637


           Symmetry 3

           C #1 y      O #2 y

 C #1 y   -2.007637
 O #2 y    2.007637   -2.007637




           C #1 x      C #1 y      C #1 z      O #2 x      O #2 y      O #2 z

 C #1 x   -2.007637
 C #1 y    0.000000   -2.007637
 C #1 z    0.000000    0.000000    1.093272

 O #2 x    2.007637    0.000000    0.000000   -2.007637
 O #2 y    0.000000    2.007637    0.000000    0.000000   -2.007637
 O #2 z    0.000000    0.000000   -1.093272    0.000000    0.000000    1.093272




                   Nuclear attraction integral Hessian
                   -----------------------------------


           Symmetry 1

           C #1 z      O #2 z

 C #1 z  -13.321366
 O #2 z   13.321366  -13.321366


           Symmetry 2

           C #1 x      O #2 x

 C #1 x   21.243702
 O #2 x  -21.243702   21.243702


           Symmetry 3

           C #1 y      O #2 y

 C #1 y   21.243702
 O #2 y  -21.243702   21.243702




           C #1 x      C #1 y      C #1 z      O #2 x      O #2 y      O #2 z

 C #1 x   21.243702
 C #1 y    0.000000   21.243702
 C #1 z    0.000000    0.000000  -13.321366

 O #2 x  -21.243702    0.000000    0.000000   21.243702
 O #2 y    0.000000  -21.243702    0.000000    0.000000   21.243702
 O #2 z    0.000000    0.000000   13.321366    0.000000    0.000000  -13.321366




                Highest order reorthonormalization Hessian
                ------------------------------------------


           Symmetry 1

           C #1 z      O #2 z

 C #1 z    0.000000
 O #2 z    0.000000    0.000000


           Symmetry 2

           C #1 x      O #2 x

 C #1 x    0.000000
 O #2 x    0.000000    0.000000


           Symmetry 3

           C #1 y      O #2 y

 C #1 y    0.000000
 O #2 y    0.000000    0.000000




           C #1 x      C #1 y      C #1 z      O #2 x      O #2 y      O #2 z




                Electronic contributions to dipole moment
                -----------------------------------------

                               au             Debye

                    z     -0.04486990     -0.11404793

  Conversion factor used: 1 a.u. =   2.54174691 Debye 



   Electronic contributions to static part of dipole moment derivatives
   --------------------------------------------------------------------


                     Total dipole moment derivatives
                     -------------------------------


           Symmetry 1
                              Ez

               C #1 z    -5.73571263
               O #2 z    -8.26428737

           Symmetry 2
                              Ex

               C #1 x    -5.79773674
               O #2 x    -8.20226326

           Symmetry 3
                              Ey

               C #1 y    -5.79773674
               O #2 y    -8.20226326



                       Ex          Ey          Ez

      C #1    x   -5.797737    0.000000    0.000000
      C #1    y    0.000000   -5.797737    0.000000
      C #1    z    0.000000    0.000000   -5.735713

      O #2    x   -8.202263    0.000000    0.000000
      O #2    y    0.000000   -8.202263    0.000000
      O #2    z    0.000000    0.000000   -8.264287

 Evaluation of 1e integral derivatives required    1.70 seconds.
                    8815  records have been written to the Sort file.
  Total length of Sort file :             180513570  words.
 Evaluation of 2el integral derivatives

                      Two-electron integral gradient
                      ------------------------------

                         C #1 z   -11.1717787252
                         O #2 z    11.1717787252


 C #1       0.0000000000            0.0000000000          -11.1717787252
 O #2       0.0000000000            0.0000000000           11.1717787252


 Evaluation of 2e integral derivatives required  667.92 seconds.

                            Molecular gradient
                            ------------------

                         C #1 z     0.4481417267
                         O #2 z    -0.4481417267


 C #1       0.0000000000            0.0000000000            0.4481417267
 O #2       0.0000000000            0.0000000000           -0.4481417267


  Molecular gradient norm 0.634E+00

                            Molecular hessian
                            -----------------


           Symmetry 1

           C #1 z      O #2 z

 C #1 z   65.903224
 O #2 z  -65.903224   65.903224


           Symmetry 2

           C #1 x      O #2 x

 C #1 x    2.810629
 O #2 x   -2.810629    2.810629


           Symmetry 3

           C #1 y      O #2 y

 C #1 y    2.810629
 O #2 y   -2.810629    2.810629




           C #1 x      C #1 y      C #1 z      O #2 x      O #2 y      O #2 z

 C #1 x    2.810629
 C #1 y    0.000000    2.810629
 C #1 z    0.000000    0.000000   65.903224

 O #2 x   -2.810629    0.000000    0.000000    2.810629
 O #2 y    0.000000   -2.810629    0.000000    0.000000    2.810629
 O #2 z    0.000000    0.000000  -65.903224    0.000000    0.000000   65.903224




                           Total dipole moment
                           -------------------

                               au             Debye

                    z     -0.04719370     -0.11995444

  Conversion factor used: 1 a.u. =   2.54174691 Debye 



                     Total dipole moment derivatives
                     -------------------------------


           Symmetry 1
                              Ez

               C #1 z     0.71559079
               O #2 z    -0.71559079

           Symmetry 2
                              Ex

               C #1 x    -0.02518700
               O #2 x     0.02518700

           Symmetry 3
                              Ey

               C #1 y    -0.02518700
               O #2 y     0.02518700



                       Ex          Ey          Ez

      C #1    x   -0.025187    0.000000    0.000000
      C #1    y    0.000000   -0.025187    0.000000
      C #1    z    0.000000    0.000000    0.715591

      O #2    x    0.025187    0.000000    0.000000
      O #2    y    0.000000    0.025187    0.000000
      O #2    z    0.000000    0.000000   -0.715591

 @CHECKOUT-I, Total execution time (CPU/WALL):      669.61/     113.54 seconds.
--executable xvdint finished with status     0 in      113.56 seconds (walltime).
 --invoking executable--
/nfs/workspaces/public/cfour_mpi/bin/xjoda
  @GTFLGS-I, Hessian will be transformed to curvilinear coordinates.
  @GTFLGS-I, Hessian will be transformed to curvilinear coordinates.
  igrd and ihes are                      0                     1
  gradient from JOBARC 
   0.000000000000000   0.000000000000000   0.448141726704314
   0.000000000000000   0.000000000000000  -0.448141726704314
 
  @PROJFCM-I, Projecting force constant matrix onto totally symmetric subspace.
  Largest difference between matrix elements of symmetrized
  and unsymmetrized FCM :     0.4470201986E-11.
  read isotopes from ZMAT file 
 
  Summary of diagonal Born-Oppenheimer correction at the correlated level
  The total diagonal Born-Oppenheimer correction (DBOC) is:      0.0041430850 a.u.
  The total diagonal Born-Oppenheimer correction (DBOC) is:        909.302059 cm-1
  The total diagonal Born-Oppenheimer correction (DBOC) is:            10.878 kJ/mole
  hellooooooo 
  readis is  F
 
 @CHECKOUT-I, Total execution time (CPU/WALL):        0.01/       0.04 seconds.
--executable xjoda finished with status     0 in        0.06 seconds (walltime).
  The final electronic energy is      -113.281624353538760 a.u. 
  This computation required                         2573.27 seconds (walltime).
