 --invoking executable--
/nfs/workspaces/public/cfour_mpi/bin/xjoda


   *************************************************************************
         <<<     CCCCCC     CCCCCC   |||     CCCCCC     CCCCCC   >>>
       <<<      CCC        CCC       |||    CCC        CCC         >>>
      <<<      CCC        CCC        |||   CCC        CCC            >>>
    <<<        CCC        CCC        |||   CCC        CCC              >>>
      <<<      CCC        CCC        |||   CCC        CCC            >>>
       <<<      CCC        CCC       |||    CCC        CCC         >>>
         <<<     CCCCCC     CCCCCC   |||     CCCCCC     CCCCCC   >>>
   *************************************************************************

     ****************************************************************
     * CFOUR Coupled-Cluster techniques for Computational Chemistry *
     ****************************************************************
 

   Department of Chemistry                Institut fuer Physikalische Chemie
   University of Florida                  Universitaet Mainz
   Gainesville, FL 32611, USA             D-55099 Mainz, Germany

   Department of Chemistry                Fakultaet fuer Chemie und Biowiss.
   Johns Hopkins University               Karlsruher Institut fuer Technologie
   Baltimore, MD 21218, USA               D-76131 Karlsruhe, Germany

   Department of Chemistry                Department of Physical Chemistry
   Southern Methodist University          Eotvos Lorand University
   Dallas, TX 75275, USA                  H-1053 Budapest, Hungary

 
                       Version 2.1
 
                     vincent.theory.phys.ucl.ac.uk                     
                     Wed 26 Feb 03:06:10 GMT 2025                      
                     integer*8 version is running
 
********************************************************************************
*                          Input from ZMAT file                                *
********************************************************************************
Carbon Monoxide DBOC calculation                                                
C                                                                               
O 1 r                                                                           
                                                                                
r=1.6448275862068966                                                            
                                                                                
                                                                                
*CFOUR(CALC=CCSD,BASIS=AUG-PCVQZ,SCF_CONV=10                                    
CC_CONV=14,DBOC=ON,MEMORY=500000000                                             
ZFIELD=200)                                                                     
                                                                                
%isotopes                                                                       
12                                                                              
16                                                                              
********************************************************************************
  @GTFLGS-I, Hessian will be transformed to curvilinear coordinates.
    -------------------------------------------------------------------
                    CFOUR Control Parameters 
    -------------------------------------------------------------------
        External           Internal           Value            Units
          Name               Name
    -------------------------------------------------------------------
       ABCDTYPE             IABCDT         STANDARD    [  0]    ***   
       ANHARMONIC           IANHAR         OFF         [  0]    ***   
       ANH_ALGORIT          IANALG         STANDARD    [  0]    ***   
       ANH_DERIVAT          IANDER         SECOND      [  1]    ***   
       ANH_MODE             ANHMOD         VIBRATION   [  0]    ***   
       ANH_STEPSIZ          ICUBST             50000          x 10-6  
       ANH_SYMMETR          IANHSM         ABELIAN     [  0]    ***   
       AO_LADDERS           IAOLAD         SINGLEPASS  [  1]    ***   
       AV_SCF               IAVSCF         OFF         [  0]    ***   
       BASIS                IBASIS         AUG-PCVQZ   [ 52]    ***   
       BOTHVECTORS          BOTHVC         OFF         [  0]    ***   
       BOX_POTENT           IPIAB          OFF         [  0]    ***   
       BREIT                IBREIT         OFF         [  0]    ***   
       BRUCK_CONV           IBRTOL          10D-  4             ***   
       BRUECKNER            IBRKNR         OFF         [  0]    ***   
       BUFFERSIZE           IBUFFS              4096            ***   
       CACHE_RECS           ICHREC             10               ***   
       CALCLEVEL            ICLLVL         CCSD        [ 10]    ***   
       CCORBOPT             ICCORB         OFF         [  0]  x 0.01  
       CC_CONV              ICCCNV          10D- 14             ***   
       CC_EXPORDER          ICCEOR              5               ***   
       CC_EXTRAPOL          ICCEXT         DIIS        [  1]    ***   
       CC_GUESS             ICCGES         MP2         [  0]    ***   
       CC_MAXCYC            ICCCYC            100              cycles 
       CC_PROGRAM           ICCPRO         VCC         [  0]    ***   
       CHARGE               ICHRGE              0               ***   
       CHOLESKY             ICHOLE         OFF         [  0]    ***   
       CIS_CONV             ICISTL              5               ***   
       COMM_SIZE            IPSIZE            ***               ***   
       CONSTANT             ICONST         OLD         [  1]    ***   
       CONTINUUM            ICONTU         NONE        [  0]    ***   
       CONTRACTION          ICNTYP         GENERAL     [  1]    ***   
       COORDINATES          ICOORD         INTERNAL    [  0]    ***   
       CPHF_CONVER          ICPHFT          10D- 16             ***   
       CPHF_MAXCYC          ICPHFC             64              cycles 
       CUBIC                ICUBIC         OFF         [  0]    ***   
       CURVILINEAR          ICURVY         ON          [  1]    ***   
       DBOC                 IDBOC          ON          [  1]    ***   
       DCT                  IDCT           OFF         [  0]    ***   
       DERIV_LEV            IDRLVL         SECOND      [  2]    ***   
       DEVMEM_SIZE          IDVMEM          50000000           MByte  
       DIAG_MRCC            IEOMST          10D-  0             ***   
       DIFF_TYPE            IDIFTY         RELAXED     [  0]    ***   
       DIRECT               IDIRCT         OFF         [  0]    ***   
       DROPMO               IDRPMO      NONE         
       ECP                  IECP           OFF         [  0]    ***   
       EIGENVECTOR          IVEC                1               ***   
       EL_ANHARM            IELANH         OFF         [  0]    ***   
       EOMFOLLOW            IEOMSR         ENERGY      [  0]    ***   
       EOMIP                IEOMIP         OFF         [  0]    ***   
       EOMLEVEL             HBARFM         SAME        [  0]    ***   
       EOM_MRCC             IMRCCE         NEW         [  1]    ***   
       EOM_NONIT            EOMNON         OFF         [  0]    ***   
       EOM_NSING            IEOMSI          10D-  0             ***   
       EOM_NSTATES          IMRCCD         DAVIDSON    [  0]    ***   
       EOM_NTRIP            IEOMTR          10D-  0             ***   
       EOM_ORDER            IEXORD         ENERGY      [  0]    ***   
       EOM_PROPSTA          IEOMST              0               ***   
       ESTATE_CONV          IEXTOL          10D-  5             ***   
       ESTATE_DIAG          IEXDIG         ITERATIVE   [  0]    ***   
       ESTATE_LOCK          IESLOC         ON          [  1]    ***   
       ESTATE_MAXC          IEXMXC             40               ***   
       ESTATE_PROP          IEXPRP         OFF         [  0]    ***   
       EVAL_HESS            IRECAL              0            # of cyc.
       EXCITATION           IEXCIT              0               ***   
       EXCITE               IEXCIT         NONE        [  0]    ***   
       EXTERN_POT           IEXPOT         OFF         [  0]    ***   
       FCGRADNEW            IFCGNW         OFF         [  0]    ***   
       FC_FIELD             IFINFC              0             x 10-6  
       FD_CALTYPE           IFDCAL         GRADONLY    [  0]    ***   
       FD_PROJECT           IFDPRJ         OFF         [  1]    ***   
       FD_STEPSIZE          IDISFD              0            10-4 bohr
       FD_USEGROUP          IFDGRP         FULL        [  0]    ***   
       FILE_RECSIZ          IFLREC              4096           words  
       FINITE_PERT          IFIPER              0             x 10-6  
       FIXGEOM              IFIXGM         OFF         [  0]    ***   
       FOCK                 IFOCK          AO          [  1]    ***   
       FREQ_ALGORI          IVIALG         STANDARD    [  0]    ***   
       FROZEN_CORE          IFROCO         OFF         [  0]    ***   
       GAMMA_ABCD           IGABCD         STORE       [  0]    ***   
       GAMMA_ABCI           IGABCI         STORE       [  0]    ***   
       GENBAS_1             IGNBS1              0               ***   
       GENBAS_2             IGNBS2              0               ***   
       GENBAS_3             IGNBS3              0               ***   
       GENBAS_4             IGNBS4              0               ***   
       GEO_CONV             ICONTL              5              H/bohr 
       GEO_MAXCYC           IOPTCY             50               ***   
       GEO_MAXSTEP          IMXSTP            300            millibohr
       GEO_METHOD           INR            SINGLE_POINT[  5]    ***   
       GIAO                 IGIAO          OFF         [  1]    ***   
       GIMIC                IGIMIC         OFF         [  0]    ***   
       GRID                 IGRID          OFF         [  0]    ***   
       GRID_ALGO            IGALGO         SERIAL      [  0]    ***   
       GUESS                IGUESS         MOREAD      [  0]    ***   
       HBAR                 IHBAR          OFF         [  0]    ***   
       HESS_TYPE            IHESTP         SCF         [  0]    ***   
       HF2_FILE             IHF2Fl         USE         [  1]    ***   
       HFSTABILITY          ISTABL         OFF         [  0]    ***   
       INCORE               INCORE         OFF         [  0]    ***   
       INPUT_MRCC           IMRCC          ON          [  1]    ***   
       INTEGRALS            INTTYP         VMOL        [  1]    ***   
       JODA_PRINT           IJPRNT              0               ***   
       KEYWORD_OUT          IDMPKW         NO          [  0]    ***   
       LINDEP_TOL           ILINDP              8               ***   
       LINEQ_CONV           IZTACN          10D-  7           cycles  
       LINEQ_EXPOR          ILMAXD              5               ***   
       LINEQ_MAXCY          ILMAXC            100               ***   
       LINEQ_TYPE           ILTYPE         DIIS        [  1]    ***   
       LOCK_ORBOCC          ILOCOC         OFF         [  0]    ***   
       MEMORY_SIZE          IMEMSZ         500000000           words  
       MEM_UNIT             IMEMU          INTEGERWORDS[  0]    ***   
       MRCC                 IMRCCC         OFF         [  0]    ***   
       MULTIPLICTY          IMULTP              1               ***   
       NACOUPLING           IVCOUP         OFF         [  0]    ***   
       NEGEVAL              IDIE           ABORT       [  0]    ***   
       NEWNORM              INEWNO         OFF         [  0]    ***   
       NON-HF               INONHF         OFF         [  0]    ***   
       NTOP_TAMP            ITOPT2             15               ***   
       NUC_MODEL            INUCMO         POINT       [  0]    ***   
       OCCUPATION           IOCCU   ESTIMATED BY SCF 
       OPEN-SHELL           IOPEN          SPIN-ORBITAL[  0]    ***   
       OPTVIB               IOPTVB         OFF         [  0]    ***   
       ORBITALS             IORBTP         STANDARD    [  0]    ***   
       PARALLEL             IPARAL         ON          [  1]    ***   
       PARA_INT             IPINTS         ON          [  1]    ***   
       PARA_PRINT           IPPRIN              0               ***   
       PERT_ORB             IPTORB         STANDARD    [  0]    ***   
       POINTS               IGRDFD              0               ***   
       PRINT                IPRNT               0               ***   
       PROPS                IPROPS         OFF         [  0]    ***   
       PROP_INTEGR          IINTYP         INTERNAL    [  0]    ***   
       PSI                  IPSI           OFF         [  0]    ***   
       QC_ALG               IQCALG         FLM         [  0]    ***   
       QC_LINALG            IQCLIN         TRIDIAG     [  2]    ***   
       QC_MAXCYC            IQCMAX          10D-100           cycles  
       QC_MAXSCFCY          IQCMSC          10D- 15           cycles  
       QC_RTRUST            IQCRTR          10D-  0           x 10-3  
       QC_SKIPSCF           IQCSKI         OFF         [  0]    ***   
       QC_START             IQCSTA          10D-  1             ***   
       QRHFGUESS            IQGUES         OFF         [  0]    ***   
       QUARTIC              IQUART         OFF         [  0]    ***   
       RAMAN_INT            IRAMIN         OFF         [  0]    ***   
       RAMAN_ORB            IRAMRE         UNRELAXED   [  0]    ***   
       RDO                  IRDOFM         ON          [  1]    ***   
       REDUCE_REPR          REDREP         Ir          [  0]    ***   
       REFERENCE            IREFNC         RHF         [  0]    ***   
       RELATIVIST           IRELAT         OFF         [  0]    ***   
       RELAX_DENS           IRDENS         ON          [  1]    ***   
       RESET_FLAGS          IRESET         OFF         [  0]    ***   
       RESTART_CC           ICCRES         OFF         [  0]    ***   
       ROT_EVEC             ROTVEC              0               ***   
       SAVE_INTS            ISVINT         OFF         [  0]    ***   
       SCALE_ON             ISTCRT              0               ***   
       SCF_CONV             ISCFCV          10D- 10             ***   
       SCF_DAMPING          IDAMP               0             x 10-3  
       SCF_EXPORDE          IRPPOR              6               ***   
       SCF_EXPSTAR          IRPPLS              8               ***   
       SCF_EXTRAPO          IRPP           ON          [  1]    ***   
       SCF_MAXCYC           ISCFCY            150              cycles 
       SCF_NOSTOP           ISCFST         OFF         [  0]    ***   
       SCF_PRINT            ISCFPR              0               ***   
       SCF_PROG             ISCFPR         SCF         [  0]    ***   
       SD_FIELD             IFINSD              0             x 10-6  
       SOPERT               IPERSO         OFF         [  0]    ***   
       SPHERICAL            IDFGHI         ON          [  1]    ***   
       SPINORBIT            ISOCAL         OFF         [  0]    ***   
       SPINROTATIO          ISRCON         OFF         [  0]    ***   
       SPIN_FLIP            ISPFLP         OFF         [  0]    ***   
       SPIN_ORBIT           ISPORB         OFF         [  0]    ***   
       SPIN_SCAL            ISCSMP         OFF         [  0]    ***   
       STEEPSCALE           ISTPSC              1000          x 10-3  
       SUBGROUP             ISUBGP         DEFAULT     [  0]    ***   
       SUBGRPAXIS           ISBXYZ         X           [  0]    ***   
       SYMMETRY             ISYM           ON          [  0]    ***   
       SYM_CHECK            ISYMCK         OVERRIDE    [  1]    ***   
       T3_EXTRAPOL          IT3EXT         OFF         [  0]    ***   
       T4_EXTRAPOL          IT4EXP         OFF         [  0]    ***   
       TAMP_SUM             IEVERY              5               ***   
       TESTSUITE            ITESTS         OFF         [  0]    ***   
       THERMOCH             ITHERM         OFF         [  0]    ***   
       TOL_CHOLESK          ITOLCH          10D-  4             ***   
       TRANGRAD             IRESRM         OFF         [  0]    ***   
       TRANS_INV            ITRAIN         IGNORE      [  1]    ***   
       TREAT_PERT           ITREAT         SIMULTANEOUS[  0]    ***   
       TRIP_ALGORI          ITRALG         NORMAL      [  0]    ***   
       UIJ_THRESHO          IUIJTH              1               ***   
       UNITS                IUNITS         ANGSTROM    [  0]    ***   
       UNOS                 IUNOS          OFF         [  0]    ***   
       UPDATE_HESS          IHUPDT         ON          [  1]    ***   
       VIBPHASE             ISETPH         STANDARD    [  0]    ***   
       VIBRATION            IVIB           ANALYTIC    [  1]    ***   
       VIB_ALGORIT          IGEALG         STANDARD    [  0]    ***   
       VNATORB              IVNORB         OFF         [  0]    ***   
       VTRAN                IVTRAN         FULL/PARTIAL[  0]    ***   
       XFIELD               IXEFLD              0             x 10-6  
       XFORM_TOL            IXFTOL          10D- 11             ***   
       YFIELD               IYEFLD              0             x 10-6  
       ZFIELD               IZEFLD            200             x 10-6  
       ZSCALE_EXP           IZEXPS         OFF         [  0]    ***   
    -------------------------------------------------------------------
   2 entries found in Z-matrix 
   Job Title : Carbon Monoxide DBOC calculation                                                
   There are  1 unique internal coordinates.
   Of these,  0 will be optimized.
   User supplied Z-matrix: 
--------------------------------------------------------------------------------
       SYMBOL    BOND      LENGTH    ANGLE     ANGLE     DIHED     ANGLE
                  TO      (ANGST)    WRT      (DEG)      WRT      (DEG)
--------------------------------------------------------------------------------
        C    
        O          1         r    
                  *Initial values for internal coordinates* 
                      Name             Value
                        r               1.6448275862
--------------------------------------------------------------------------------
  read isotopes from ZMAT file 
   Rotational constants (in cm-1): 
          0.9088072184             0.9088072184
   Rotational constants (in MHz): 
      27245.3588007663         27245.3588007663
********************************************************************************
   The full molecular point group is CXv .
   The largest Abelian subgroup of the full molecular point group is C2v .
   The computational point group is C2v .
********************************************************************************
--------------------------------------------------------------------------------
   Analysis of internal coordinates specified by Z-matrix 
--------------------------------------------------------------------------------
   *The nuclear repulsion energy is   15.442652477987419 a.u.
   *There is   1 degree of freedom within the tot. symm. molecular subspace.
   *Z-matrix requests optimization of   0 coordinates.
   *The optimization is constrained.
   *The following   1 parameters can have non-zero 
    derivatives within the totally symmetric subspace:
             r    [ 1]
   *The following   0 parameters are to be optimized:

   *The following coordinates must be varied in an  unconstrained optimization.
             r    [ 1]
--------------------------------------------------------------------------------


 ----------------------------------------------------------------
         Coordinates used in calculation (QCOMP) 
 ----------------------------------------------------------------
 Z-matrix   Atomic            Coordinates (in bohr)
  Symbol    Number           X              Y              Z
 ----------------------------------------------------------------
     C         6        -0.00000000     0.00000000     1.77591477
     O         8         0.00000000     0.00000000    -1.33235955
 ----------------------------------------------------------------
 
   Interatomic distance matrix (Angstroms) 
 
                 C             O    
                [ 1]        [ 2]
  C    [ 1]     0.00000
  O    [ 2]     1.64483     0.00000
 rotcon2
   Rotational constants (in cm-1): 
          0.9088072184             0.0000000000
   Rotational constants (in MHz): 
      27245.3588007663             0.0000000000
  ECPDATA file not present.   Using default ECPDATA. 
  @GTFLGS-I, Hessian will be transformed to curvilinear coordinates.
  There are  218 basis functions.
 @CHECKOUT-I, Total execution time (CPU/WALL):        0.12/       0.20 seconds.
--executable xjoda finished with status     0 in        0.23 seconds (walltime).
 --invoking executable--
/nfs/workspaces/public/cfour_mpi/bin/xvmol
 SERIAL VERSION OF MOLECULE STARTED
********************************************************************************
                    INPUT FROM MOL FILE
********************************************************************************
INTGRL        1    0    1    0    0    0    0    0    0                         
         *** CFOUR Program System (Release V0.1) ***                            
Carbon Monoxide DBOC calculation                                                
    2    2 X  Y       0.10E-08              0    0                              
   9999.00      3.00                                                            
          6.00000000    1    5    1    1    1    1    1                         
C #1  -0.000000000000000   0.000000000000000   1.775914765858284                
   16    9                                                                      
   33980.0000000000       9.100000000000000E-005 -1.900000000000000E-005        
  0.000000000000000E+000  0.000000000000000E+000  0.000000000000000E+000        
  0.000000000000000E+000  0.000000000000000E+000  0.000000000000000E+000        
  0.000000000000000E+000                                                        
   5089.00000000000       7.040000000000000E-004 -1.510000000000000E-004        
  0.000000000000000E+000  0.000000000000000E+000  0.000000000000000E+000        
  0.000000000000000E+000  0.000000000000000E+000  0.000000000000000E+000        
  0.000000000000000E+000                                                        
   1157.00000000000       3.693000000000000E-003 -7.850000000000000E-004        
  0.000000000000000E+000  0.000000000000000E+000  0.000000000000000E+000        
  0.000000000000000E+000  0.000000000000000E+000  0.000000000000000E+000        
  0.000000000000000E+000                                                        
   326.600000000000       1.536000000000000E-002 -3.324000000000000E-003        
  0.000000000000000E+000  0.000000000000000E+000  0.000000000000000E+000        
  0.000000000000000E+000  0.000000000000000E+000  0.000000000000000E+000        
  0.000000000000000E+000                                                        
   106.100000000000       5.292900000000000E-002 -1.151200000000000E-002        
  0.000000000000000E+000  0.000000000000000E+000  0.000000000000000E+000        
  0.000000000000000E+000  0.000000000000000E+000  0.000000000000000E+000        
  0.000000000000000E+000                                                        
   38.1100000000000       0.147043000000000      -3.416000000000000E-002        
  0.000000000000000E+000  0.000000000000000E+000  0.000000000000000E+000        
  0.000000000000000E+000  0.000000000000000E+000  0.000000000000000E+000        
  0.000000000000000E+000                                                        
   14.7500000000000       0.305631000000000      -7.717300000000001E-002        
  0.000000000000000E+000  0.000000000000000E+000  0.000000000000000E+000        
  0.000000000000000E+000  0.000000000000000E+000  0.000000000000000E+000        
  0.000000000000000E+000                                                        
   6.03500000000000       0.399345000000000      -0.141493000000000             
  0.000000000000000E+000  0.000000000000000E+000  0.000000000000000E+000        
  0.000000000000000E+000  0.000000000000000E+000  0.000000000000000E+000        
  0.000000000000000E+000                                                        
   2.53000000000000       0.217051000000000      -0.118019000000000             
  0.000000000000000E+000  0.000000000000000E+000  0.000000000000000E+000        
  0.000000000000000E+000  0.000000000000000E+000  0.000000000000000E+000        
  0.000000000000000E+000                                                        
  0.735500000000000       1.589400000000000E-002  0.273806000000000             
   1.00000000000000       0.000000000000000E+000  0.000000000000000E+000        
  0.000000000000000E+000  0.000000000000000E+000  0.000000000000000E+000        
  0.000000000000000E+000                                                        
  0.290500000000000      -3.084000000000000E-003  0.586510000000000             
  0.000000000000000E+000   1.00000000000000       0.000000000000000E+000        
  0.000000000000000E+000  0.000000000000000E+000  0.000000000000000E+000        
  0.000000000000000E+000                                                        
  0.111100000000000       9.779999999999999E-004  0.285430000000000             
  0.000000000000000E+000  0.000000000000000E+000   1.00000000000000             
  0.000000000000000E+000  0.000000000000000E+000  0.000000000000000E+000        
  0.000000000000000E+000                                                        
   7.21600000000000       0.000000000000000E+000  0.000000000000000E+000        
  0.000000000000000E+000  0.000000000000000E+000  0.000000000000000E+000        
   1.00000000000000       0.000000000000000E+000  0.000000000000000E+000        
  0.000000000000000E+000                                                        
   19.5700000000000       0.000000000000000E+000  0.000000000000000E+000        
  0.000000000000000E+000  0.000000000000000E+000  0.000000000000000E+000        
  0.000000000000000E+000   1.00000000000000       0.000000000000000E+000        
  0.000000000000000E+000                                                        
   53.0730000000000       0.000000000000000E+000  0.000000000000000E+000        
  0.000000000000000E+000  0.000000000000000E+000  0.000000000000000E+000        
  0.000000000000000E+000  0.000000000000000E+000   1.00000000000000             
  0.000000000000000E+000                                                        
  4.145000000000000E-002  0.000000000000000E+000  0.000000000000000E+000        
  0.000000000000000E+000  0.000000000000000E+000  0.000000000000000E+000        
  0.000000000000000E+000  0.000000000000000E+000  0.000000000000000E+000        
   1.00000000000000                                                             
   10    8                                                                      
   34.5100000000000       5.378000000000000E-003  0.000000000000000E+000        
  0.000000000000000E+000  0.000000000000000E+000  0.000000000000000E+000        
  0.000000000000000E+000  0.000000000000000E+000  0.000000000000000E+000        
   7.91500000000000       3.613200000000000E-002  0.000000000000000E+000        
  0.000000000000000E+000  0.000000000000000E+000  0.000000000000000E+000        
  0.000000000000000E+000  0.000000000000000E+000  0.000000000000000E+000        
   2.36800000000000       0.142493000000000       0.000000000000000E+000        
  0.000000000000000E+000  0.000000000000000E+000  0.000000000000000E+000        
  0.000000000000000E+000  0.000000000000000E+000  0.000000000000000E+000        
  0.813200000000000       0.342150000000000        1.00000000000000             
  0.000000000000000E+000  0.000000000000000E+000  0.000000000000000E+000        
  0.000000000000000E+000  0.000000000000000E+000  0.000000000000000E+000        
  0.289000000000000       0.463864000000000       0.000000000000000E+000        
   1.00000000000000       0.000000000000000E+000  0.000000000000000E+000        
  0.000000000000000E+000  0.000000000000000E+000  0.000000000000000E+000        
  0.100700000000000       0.250028000000000       0.000000000000000E+000        
  0.000000000000000E+000   1.00000000000000       0.000000000000000E+000        
  0.000000000000000E+000  0.000000000000000E+000  0.000000000000000E+000        
   8.18200000000000       0.000000000000000E+000  0.000000000000000E+000        
  0.000000000000000E+000  0.000000000000000E+000   1.00000000000000             
  0.000000000000000E+000  0.000000000000000E+000  0.000000000000000E+000        
   24.1860000000000       0.000000000000000E+000  0.000000000000000E+000        
  0.000000000000000E+000  0.000000000000000E+000  0.000000000000000E+000        
   1.00000000000000       0.000000000000000E+000  0.000000000000000E+000        
   71.4940000000000       0.000000000000000E+000  0.000000000000000E+000        
  0.000000000000000E+000  0.000000000000000E+000  0.000000000000000E+000        
  0.000000000000000E+000   1.00000000000000       0.000000000000000E+000        
  3.218000000000000E-002  0.000000000000000E+000  0.000000000000000E+000        
  0.000000000000000E+000  0.000000000000000E+000  0.000000000000000E+000        
  0.000000000000000E+000  0.000000000000000E+000   1.00000000000000             
    6    6                                                                      
   1.84800000000000        1.00000000000000       0.000000000000000E+000        
  0.000000000000000E+000  0.000000000000000E+000  0.000000000000000E+000        
  0.000000000000000E+000                                                        
  0.649000000000000       0.000000000000000E+000   1.00000000000000             
  0.000000000000000E+000  0.000000000000000E+000  0.000000000000000E+000        
  0.000000000000000E+000                                                        
  0.228000000000000       0.000000000000000E+000  0.000000000000000E+000        
   1.00000000000000       0.000000000000000E+000  0.000000000000000E+000        
  0.000000000000000E+000                                                        
   8.65600000000000       0.000000000000000E+000  0.000000000000000E+000        
  0.000000000000000E+000   1.00000000000000       0.000000000000000E+000        
  0.000000000000000E+000                                                        
   33.2130000000000       0.000000000000000E+000  0.000000000000000E+000        
  0.000000000000000E+000  0.000000000000000E+000   1.00000000000000             
  0.000000000000000E+000                                                        
  7.660000000000000E-002  0.000000000000000E+000  0.000000000000000E+000        
  0.000000000000000E+000  0.000000000000000E+000  0.000000000000000E+000        
   1.00000000000000                                                             
    4    4                                                                      
   1.41900000000000        1.00000000000000       0.000000000000000E+000        
  0.000000000000000E+000  0.000000000000000E+000                                
  0.485000000000000       0.000000000000000E+000   1.00000000000000             
  0.000000000000000E+000  0.000000000000000E+000                                
   24.6940000000000       0.000000000000000E+000  0.000000000000000E+000        
   1.00000000000000       0.000000000000000E+000                                
  0.187000000000000       0.000000000000000E+000  0.000000000000000E+000        
  0.000000000000000E+000   1.00000000000000                                     
    2    2                                                                      
   1.01100000000000        1.00000000000000       0.000000000000000E+000        
  0.424000000000000       0.000000000000000E+000   1.00000000000000             
          8.00000000    1    5    1    1    1    1    1                         
O #2   0.000000000000000   0.000000000000000  -1.332359545722653                
   16    9                                                                      
   61420.0000000000       9.000000000000001E-005 -2.000000000000000E-005        
  0.000000000000000E+000  0.000000000000000E+000  0.000000000000000E+000        
  0.000000000000000E+000  0.000000000000000E+000  0.000000000000000E+000        
  0.000000000000000E+000                                                        
   9199.00000000000       6.980000000000001E-004 -1.590000000000000E-004        
  0.000000000000000E+000  0.000000000000000E+000  0.000000000000000E+000        
  0.000000000000000E+000  0.000000000000000E+000  0.000000000000000E+000        
  0.000000000000000E+000                                                        
   2091.00000000000       3.664000000000000E-003 -8.290000000000000E-004        
  0.000000000000000E+000  0.000000000000000E+000  0.000000000000000E+000        
  0.000000000000000E+000  0.000000000000000E+000  0.000000000000000E+000        
  0.000000000000000E+000                                                        
   590.900000000000       1.521800000000000E-002 -3.508000000000000E-003        
  0.000000000000000E+000  0.000000000000000E+000  0.000000000000000E+000        
  0.000000000000000E+000  0.000000000000000E+000  0.000000000000000E+000        
  0.000000000000000E+000                                                        
   192.300000000000       5.242300000000000E-002 -1.215600000000000E-002        
  0.000000000000000E+000  0.000000000000000E+000  0.000000000000000E+000        
  0.000000000000000E+000  0.000000000000000E+000  0.000000000000000E+000        
  0.000000000000000E+000                                                        
   69.3200000000000       0.145921000000000      -3.626100000000000E-002        
  0.000000000000000E+000  0.000000000000000E+000  0.000000000000000E+000        
  0.000000000000000E+000  0.000000000000000E+000  0.000000000000000E+000        
  0.000000000000000E+000                                                        
   26.9700000000000       0.305258000000000      -8.299200000000000E-002        
  0.000000000000000E+000  0.000000000000000E+000  0.000000000000000E+000        
  0.000000000000000E+000  0.000000000000000E+000  0.000000000000000E+000        
  0.000000000000000E+000                                                        
   11.1000000000000       0.398508000000000      -0.152090000000000             
  0.000000000000000E+000  0.000000000000000E+000  0.000000000000000E+000        
  0.000000000000000E+000  0.000000000000000E+000  0.000000000000000E+000        
  0.000000000000000E+000                                                        
   4.68200000000000       0.216980000000000      -0.115331000000000             
  0.000000000000000E+000  0.000000000000000E+000  0.000000000000000E+000        
  0.000000000000000E+000  0.000000000000000E+000  0.000000000000000E+000        
  0.000000000000000E+000                                                        
   1.42800000000000       1.759400000000000E-002  0.288979000000000             
   1.00000000000000       0.000000000000000E+000  0.000000000000000E+000        
  0.000000000000000E+000  0.000000000000000E+000  0.000000000000000E+000        
  0.000000000000000E+000                                                        
  0.554700000000000      -2.502000000000000E-003  0.586128000000000             
  0.000000000000000E+000   1.00000000000000       0.000000000000000E+000        
  0.000000000000000E+000  0.000000000000000E+000  0.000000000000000E+000        
  0.000000000000000E+000                                                        
  0.206700000000000       9.540000000000000E-004  0.277624000000000             
  0.000000000000000E+000  0.000000000000000E+000   1.00000000000000             
  0.000000000000000E+000  0.000000000000000E+000  0.000000000000000E+000        
  0.000000000000000E+000                                                        
   12.9740000000000       0.000000000000000E+000  0.000000000000000E+000        
  0.000000000000000E+000  0.000000000000000E+000  0.000000000000000E+000        
   1.00000000000000       0.000000000000000E+000  0.000000000000000E+000        
  0.000000000000000E+000                                                        
   34.9000000000000       0.000000000000000E+000  0.000000000000000E+000        
  0.000000000000000E+000  0.000000000000000E+000  0.000000000000000E+000        
  0.000000000000000E+000   1.00000000000000       0.000000000000000E+000        
  0.000000000000000E+000                                                        
   93.8810000000000       0.000000000000000E+000  0.000000000000000E+000        
  0.000000000000000E+000  0.000000000000000E+000  0.000000000000000E+000        
  0.000000000000000E+000  0.000000000000000E+000   1.00000000000000             
  0.000000000000000E+000                                                        
  6.959000000000000E-002  0.000000000000000E+000  0.000000000000000E+000        
  0.000000000000000E+000  0.000000000000000E+000  0.000000000000000E+000        
  0.000000000000000E+000  0.000000000000000E+000  0.000000000000000E+000        
   1.00000000000000                                                             
   10    8                                                                      
   63.4200000000000       6.044000000000000E-003  0.000000000000000E+000        
  0.000000000000000E+000  0.000000000000000E+000  0.000000000000000E+000        
  0.000000000000000E+000  0.000000000000000E+000  0.000000000000000E+000        
   14.6600000000000       4.179900000000000E-002  0.000000000000000E+000        
  0.000000000000000E+000  0.000000000000000E+000  0.000000000000000E+000        
  0.000000000000000E+000  0.000000000000000E+000  0.000000000000000E+000        
   4.45900000000000       0.161143000000000       0.000000000000000E+000        
  0.000000000000000E+000  0.000000000000000E+000  0.000000000000000E+000        
  0.000000000000000E+000  0.000000000000000E+000  0.000000000000000E+000        
   1.53100000000000       0.356731000000000        1.00000000000000             
  0.000000000000000E+000  0.000000000000000E+000  0.000000000000000E+000        
  0.000000000000000E+000  0.000000000000000E+000  0.000000000000000E+000        
  0.530200000000000       0.448309000000000       0.000000000000000E+000        
   1.00000000000000       0.000000000000000E+000  0.000000000000000E+000        
  0.000000000000000E+000  0.000000000000000E+000  0.000000000000000E+000        
  0.175000000000000       0.244940000000000       0.000000000000000E+000        
  0.000000000000000E+000   1.00000000000000       0.000000000000000E+000        
  0.000000000000000E+000  0.000000000000000E+000  0.000000000000000E+000        
   14.4750000000000       0.000000000000000E+000  0.000000000000000E+000        
  0.000000000000000E+000  0.000000000000000E+000   1.00000000000000             
  0.000000000000000E+000  0.000000000000000E+000  0.000000000000000E+000        
   42.7300000000000       0.000000000000000E+000  0.000000000000000E+000        
  0.000000000000000E+000  0.000000000000000E+000  0.000000000000000E+000        
   1.00000000000000       0.000000000000000E+000  0.000000000000000E+000        
   126.140000000000       0.000000000000000E+000  0.000000000000000E+000        
  0.000000000000000E+000  0.000000000000000E+000  0.000000000000000E+000        
  0.000000000000000E+000   1.00000000000000       0.000000000000000E+000        
  5.348000000000000E-002  0.000000000000000E+000  0.000000000000000E+000        
  0.000000000000000E+000  0.000000000000000E+000  0.000000000000000E+000        
  0.000000000000000E+000  0.000000000000000E+000   1.00000000000000             
    6    6                                                                      
   3.77500000000000        1.00000000000000       0.000000000000000E+000        
  0.000000000000000E+000  0.000000000000000E+000  0.000000000000000E+000        
  0.000000000000000E+000                                                        
   1.30000000000000       0.000000000000000E+000   1.00000000000000             
  0.000000000000000E+000  0.000000000000000E+000  0.000000000000000E+000        
  0.000000000000000E+000                                                        
  0.444000000000000       0.000000000000000E+000  0.000000000000000E+000        
   1.00000000000000       0.000000000000000E+000  0.000000000000000E+000        
  0.000000000000000E+000                                                        
   14.9270000000000       0.000000000000000E+000  0.000000000000000E+000        
  0.000000000000000E+000   1.00000000000000       0.000000000000000E+000        
  0.000000000000000E+000                                                        
   57.5440000000000       0.000000000000000E+000  0.000000000000000E+000        
  0.000000000000000E+000  0.000000000000000E+000   1.00000000000000             
  0.000000000000000E+000                                                        
  0.154000000000000       0.000000000000000E+000  0.000000000000000E+000        
  0.000000000000000E+000  0.000000000000000E+000  0.000000000000000E+000        
   1.00000000000000                                                             
    4    4                                                                      
   2.66600000000000        1.00000000000000       0.000000000000000E+000        
  0.000000000000000E+000  0.000000000000000E+000                                
  0.859000000000000       0.000000000000000E+000   1.00000000000000             
  0.000000000000000E+000  0.000000000000000E+000                                
   26.4830000000000       0.000000000000000E+000  0.000000000000000E+000        
   1.00000000000000       0.000000000000000E+000                                
  0.324000000000000       0.000000000000000E+000  0.000000000000000E+000        
  0.000000000000000E+000   1.00000000000000                                     
    2    2                                                                      
   1.84600000000000        1.00000000000000       0.000000000000000E+000        
  0.714000000000000       0.000000000000000E+000   1.00000000000000             
FINISH                                                                          
 
********************************************************************************
 ONE- AND TWO-ELECTRON INTEGRALS OVER SYMMETRY-ADAPTED AOS ARE CALCULATED.

  SPHERICAL HARMONICS ARE USED.
  
  INTEGRALS LESS THAN  0.10E-13 ARE NEGLECTED.

  NUCLEAR REPULSION ENERGY :   15.4426524780 A.U.
  @MOLECU-I, ONE ELECTRON INTEGRALS (CPU/WALL):        0.07/       0.07 SECONDS.
  @TWOEL-I,    4413561 INTEGRALS OF SYMMETRY TYPE  I I I I
  @TWOEL-I,   19047887 INTEGRALS OF SYMMETRY TYPE  I J I J
  @TWOEL-I,   10029524 INTEGRALS OF SYMMETRY TYPE  I I J J
  @TWOEL-I,   14072828 INTEGRALS OF SYMMETRY TYPE  I J K L
  @TWOEL-I, TOTAL NUMBER OF 2-E INTEGRALS   47563800.
  @MOLECU-I, TWO ELECTRON INTEGRALS (CPU/WALL):      154.43/      22.56 SECONDS.
 @CHECKOUT-I, Total execution time (CPU/WALL):      154.52/      22.66 seconds.

Running with 14 threads/proc

--executable xvmol finished with status     0 in       22.70 seconds (walltime).
 --invoking executable--
/nfs/workspaces/public/cfour_mpi/bin/xvmol2ja
 @GETMEM-I,  Allocated    3814 MB of main memory.
 @CHECKOUT-I, Total execution time (CPU/WALL):        0.17/       0.03 seconds.
--executable xvmol2ja finished with status     0 in        0.07 seconds (walltime).
 --invoking executable--
/nfs/workspaces/public/cfour_mpi/bin/xvprop
 @GETMEM-I,  Allocated    3814 MB of main memory.
   Property integrals will be calculated.
    --------------------------------------------------------------
                                   Property evaluated at 
    Property type                X             Y             Z
    --------------------------------------------------------------
    Dipole moment               ----          ----          ----  
    Quadrupole moment           ----          ----          ----  
    Octopole moment             ----          ----          ----  
    Relativisitic corr.         ----          ----          ----  
    Second moment            0.0000000     0.0000000     0.0000000
    Electron density         0.0000000     0.0000000     1.7759148
    Electron density         0.0000000     0.0000000    -1.3323595
    Field gradient           0.0000000     0.0000000     1.7759148
    Field gradient           0.0000000     0.0000000    -1.3323595
    Potential                0.0000000     0.0000000     1.7759148
    Potential                0.0000000     0.0000000    -1.3323595
    --------------------------------------------------------------
 @CHECKOUT-I, Total execution time (CPU/WALL):        1.31/       1.32 seconds.
--executable xvprop finished with status     0 in        1.34 seconds (walltime).
 --invoking executable--
/nfs/workspaces/public/cfour_mpi/bin/xvscf
  There are  218 functions in the AO basis.

  There are 4 irreducible representations.

       Irrep        # of functions
         1                 86
         2                 52
         3                 52
         4                 28


  Parameters for SCF calculation: 
        SCF reference function:  RHF  
  Maximum number of iterations:  150
     Full symmetry point group: CXv 
     Computational point group: C2v 
        Initial density matrix: MOREAD                 
     SCF convergence tolerance: 10**(-10)
  DIIS convergence acceleration:  ON
          Latest start for DIIS:   8
                     DIIS order:   6

  Memory information:    2523578 words required.
  Fock matrices are constructed from AO integral file.
 @GETMEM-I,  Allocated      19 MB of main memory.
  Initialization and symmetry analysis required      0.002 seconds.

  Adding electric field perturbation to one-electron Hamiltonian.
  Field direction     : Z
  Field strength      :  0.0002000 a.u.

  @INITGES-I, Occupancies from core Hamiltonian:

          Alpha population by irrep:   5    1    1    0
           Beta population by irrep:   5    1    1    0


 total no. of electrons in initial guess :  0.000000000000000E+000
  --------------------------------------------------------------------
  Iteration         Total Energy            Largest Density Difference
  --------------------------------------------------------------------
       0            15.442653155541546              0.0000000000D+00
   current occupation vector 
     5  1  1  0
     5  1  1  0
       1           -93.650062520211435              0.1755569473D+02
   current occupation vector 
     5  1  1  0
     5  1  1  0
       2           -97.884920977291898              0.1755568240D+02
   current occupation vector 
     5  1  1  0
     5  1  1  0
       3          -100.170696468268460              0.6820858464D+01
   current occupation vector 
     5  1  1  0
     5  1  1  0
       4           -94.924018186670821              0.6817680395D+01
   current occupation vector 
     5  1  1  0
     5  1  1  0
       5          -100.128252513213482              0.7010651961D+01
   current occupation vector 
     5  1  1  0
     5  1  1  0
       6           -94.771596790929834              0.7010926407D+01
   current occupation vector 
     5  1  1  0
     5  1  1  0
       7          -100.121930978722048              0.7020563740D+01
   current occupation vector 
     5  1  1  0
     5  1  1  0
       8           -94.767178895034291              0.7020578882D+01
   current occupation vector 
     5  1  1  0
     5  1  1  0
       9          -107.358018529812853              0.5945939895D+01
   current occupation vector 
     5  1  1  0
     5  1  1  0
      10          -110.622402699685750              0.1323180735D+01
   current occupation vector 
     5  1  1  0
     5  1  1  0
      11          -112.360405206712045              0.1024226398D+01
   current occupation vector 
     5  1  1  0
     5  1  1  0
      12          -112.478347892214913              0.5099160211D+00
   current occupation vector 
     5  1  1  0
     5  1  1  0
      13          -112.500623261175519              0.1282888194D+00
   current occupation vector 
     5  1  1  0
     5  1  1  0
      14          -112.507270133745706              0.9062121431D-01
   current occupation vector 
     5  1  1  0
     5  1  1  0
      15          -112.507797412361938              0.2812857604D-01
   current occupation vector 
     5  1  1  0
     5  1  1  0
      16          -112.508295877233365              0.4315945664D-01
   current occupation vector 
     5  1  1  0
     5  1  1  0
      17          -112.508505886231944              0.3200362458D-01
   current occupation vector 
     5  1  1  0
     5  1  1  0
      18          -112.508551050888556              0.1944425121D-01
   current occupation vector 
     5  1  1  0
     5  1  1  0
      19          -112.508551460819064              0.1644064034D-02
   current occupation vector 
     5  1  1  0
     5  1  1  0
      20          -112.508551464614584              0.1410498206D-03
   current occupation vector 
     5  1  1  0
     5  1  1  0
      21          -112.508551464793740              0.1713586484D-04
   current occupation vector 
     5  1  1  0
     5  1  1  0
      22          -112.508551464794891              0.3348323212D-05
   current occupation vector 
     5  1  1  0
     5  1  1  0
      23          -112.508551464794280              0.9480481191D-06
   current occupation vector 
     5  1  1  0
     5  1  1  0
      24          -112.508551464794621              0.1029671869D-06
   current occupation vector 
     5  1  1  0
     5  1  1  0
      25          -112.508551464793399              0.3321694608D-07
   current occupation vector 
     5  1  1  0
     5  1  1  0
      26          -112.508551464794522              0.3344150068D-08
   current occupation vector 
     5  1  1  0
     5  1  1  0
      27          -112.508551464794891              0.5956650062D-08
   current occupation vector 
     5  1  1  0
     5  1  1  0
      28          -112.508551464794834              0.6553756648D-08
   current occupation vector 
     5  1  1  0
     5  1  1  0
      29          -112.508551464794408              0.9943939006D-09
   current occupation vector 
     5  1  1  0
     5  1  1  0

  SCF has converged.

 Density matrix saved to file den.dat
 total electron number:   14.0000000000000     
     E(SCF)=      -112.508551464793385              0.9678224888D-10

  Eigenvector printing suppressed.

 @PUTMOS-I, Writing converged MOs to NEWMOS. 
 @PUTMOS-I, Symmetry   1 Full Blocks 21 Partial Blocksize   2
 @PUTMOS-I, Symmetry   2 Full Blocks 13 Partial Blocksize   0
 @PUTMOS-I, Symmetry   3 Full Blocks 13 Partial Blocksize   0
 @PUTMOS-I, Symmetry   4 Full Blocks  7 Partial Blocksize   0
 @PUTFOCK-I, Writing converged Fock matrix to NEWFOCK. 
 @PUTFOCK-I, Symmetry   1 Full Blocks 21 Partial Blocksize   2
 @PUTFOCK-I, Symmetry   2 Full Blocks 13 Partial Blocksize   0
 @PUTFOCK-I, Symmetry   3 Full Blocks 13 Partial Blocksize   0
 @PUTFOCK-I, Symmetry   4 Full Blocks  7 Partial Blocksize   0


 
  ORBITAL EIGENVALUES (ALPHA)  (1H = 27.2113834 eV)

       MO #        E(hartree)               E(eV)           FULLSYM    COMPSYM
       ----   --------------------   --------------------   -------   ---------
    1     1         -20.6400980097        -561.6456203559     SG+        A1 (1)
    2     2         -11.5297112083        -313.7393921815     SG+        A1 (1)
    3     3          -1.2618887712         -34.3377391605     SG+        A1 (1)
    4     4          -0.8083373883         -21.9959785884     SG+        A1 (1)
    5     5          -0.5202061635         -14.1555293616     SG+        A1 (1)
    6    87          -0.4900430200         -13.3347485003      PI        B1 (2)
    7   139          -0.4900430200         -13.3347485003      PI        B2 (3)
  +++++++++++++++++++++++++++++++++++++++++++++++++++++++++++++++++++++++++++++
    8    88          -0.0138730005          -0.3775035358      PI        B1 (2)
    9   140          -0.0138730005          -0.3775035358      PI        B2 (3)
   10     6           0.0597069751           1.6247093920     SG+        A1 (1)
   11     7           0.0686177230           1.8671831692     SG+        A1 (1)
   12   141           0.0816568604           2.2219961364      PI        B2 (3)
   13    89           0.0816568604           2.2219961364      PI        B1 (2)
   14     8           0.1563710778           4.2550733500     SG+        A1 (1)
   15   142           0.1808007361           4.9198381490      PI        B2 (3)
   16    90           0.1808007361           4.9198381490      PI        B1 (2)
   17     9           0.1864201029           5.0727488938     SG+        A1 (1)
   18    10           0.2213831575           6.0241419781      DE        A1 (1)
   19   191           0.2213831575           6.0241419781      DE        A2 (4)
   20    91           0.2834141252           7.7120904216      PI        B1 (2)
   21   143           0.2834141252           7.7120904216      PI        B2 (3)
   22    11           0.2992607019           8.1432976948     SG+        A1 (1)
   23    12           0.3043520474           8.2818402498     SG+        A1 (1)
   24    92           0.4067978599          11.0695325333      PI        B1 (2)
   25   144           0.4067978599          11.0695325333      PI        B2 (3)
   26    13           0.4149693244          11.2918893851     SG+        A1 (1)
   27    14           0.5141450819          13.9905989459     SG+        A1 (1)
   28    15           0.5503144117          14.9748164470      DE        A1 (1)
   29   192           0.5503144117          14.9748164470      DE        A2 (4)
   30    93           0.6229066280          16.9501510769      PI        B1 (2)
   31   145           0.6229066280          16.9501510769      PI        B2 (3)
   32    16           0.7013774089          19.0854495825     SG+        A1 (1)
   33   146           0.7293622258          19.8469551630      PH        B2 (3)
   34    94           0.7293622258          19.8469551630      PH        B1 (2)
   35    17           0.7357904494          20.0218760206      DE        A1 (1)
   36   193           0.7357904494          20.0218760206      DE        A2 (4)
   37    95           0.7730404050          21.0354988450      PI        B1 (2)
   38   147           0.7730404050          21.0354988450      PI        B2 (3)
   39    18           0.8150844025          22.1795741793     SG+        A1 (1)
   40    19           0.8550671562          23.2675602194      DE        A1 (1)
   41   194           0.8550671562          23.2675602194      DE        A2 (4)
   42    96           0.8770789486          23.8665315432      PI        B1 (2)
   43   148           0.8770789486          23.8665315432      PI        B2 (3)
   44    20           0.8925369108          24.2871640772     SG+        A1 (1)
   45    97           1.0458415637          28.4587957648      PI        B1 (2)
   46   149           1.0458415637          28.4587957648      PI        B2 (3)
   47    21           1.1391974432          30.9991383951     SG+        A1 (1)
   48    22           1.3479490916          36.6795595349     SG+        A1 (1)
   49   150           1.4196696503          38.6311751561      PH        B2 (3)
   50    98           1.4196696503          38.6311751561      PH        B1 (2)
   51    99           1.4732242042          40.0884686546      PI        B1 (2)
   52   151           1.4732242042          40.0884686546      PI        B2 (3)
   53    23           1.5830020565          43.0756758811     SG+        A1 (1)
   54    24           1.5874255490          43.1960452325      DE        A1 (1)
   55   195           1.5874255490          43.1960452325      DE        A2 (4)
   56   100           1.6395152852          44.6134790155      PI        B1 (2)
   57   152           1.6395152852          44.6134790155      PI        B2 (3)
   58    25           1.6685329479          45.4030897595      DE        A1 (1)
   59   196           1.6685329479          45.4030897596      DE        A2 (4)
   60    26           1.9196102388          52.2352501868     SG+        A1 (1)
   61    27           1.9250000937          52.3819155947     SG+        A1 (1)
   62   101           2.0533130895          55.8734897196      PI        B1 (2)
   63   153           2.0533130895          55.8734897196      PI        B2 (3)
   64   197           2.0632888543          56.1449440788      PI        A2 (4)
   65    28           2.0632888543          56.1449440788      PI        A1 (1)
   66    29           2.1204328765          57.6999119762      DE        A1 (1)
   67   198           2.1204328765          57.6999119762      DE        A2 (4)
   68   154           2.1888776708          59.5623895162      PH        B2 (3)
   69   102           2.1888776708          59.5623895162      PH        B1 (2)
   70   103           2.2038309207          59.9692881310      PH        B1 (2)
   71   155           2.2038309207          59.9692881310      PH        B2 (3)
   72   104           2.2135008358          60.2324198990      PI        B1 (2)
   73   156           2.2135008358          60.2324198990      PI        B2 (3)
   74    30           2.2163380020          60.3096231175     SG+        A1 (1)
   75    31           2.2766427310          61.9505982193      DE        A1 (1)
   76   199           2.2766427310          61.9505982193      DE        A2 (4)
   77    32           2.3770892287          64.6838863794     SG+        A1 (1)
   78   105           2.4930302774          67.8388027069      PI        B1 (2)
   79   157           2.4930302774          67.8388027069      PI        B2 (3)
   80   200           2.6033403892          70.8404934512      DE        A2 (4)
   81    33           2.6033403892          70.8404934512      DE        A1 (1)
   82   106           2.6082042423          70.9728456236      PI        B1 (2)
   83   158           2.6082042423          70.9728456236      PI        B2 (3)
   84    34           2.6526226721          72.1815325472     SG+        A1 (1)
   85    35           2.8563011544          77.7239058188     SG+        A1 (1)
   86   107           3.3350259245          90.7506690811      PI        B1 (2)
   87   159           3.3350259245          90.7506690811      PI        B2 (3)
   88    36           3.7136623419         101.0538898035      PI        A1 (1)
   89   201           3.7136623419         101.0538898035      PI        A2 (4)
   90    37           3.8671077375         105.2293512943     SG+        A1 (1)
   91   160           3.8909225991         105.8773866249      PH        B2 (3)
   92   108           3.8909225991         105.8773866249      PH        B1 (2)
   93    38           4.0847560849         111.1518639229     SG+        A1 (1)
   94   161           4.1440378838         112.7650036813      PH        B2 (3)
   95   109           4.1440378838         112.7650036813      PH        B1 (2)
   96   110           4.1514009122         112.9653618691      PI        B1 (2)
   97   162           4.1514009122         112.9653618691      PI        B2 (3)
   98    39           4.1621414506         113.2576267779      DE        A1 (1)
   99   202           4.1621414506         113.2576267779      DE        A2 (4)
  100    40           4.3023957548         117.0741404231      DE        A1 (1)
  101   203           4.3023957548         117.0741404231      DE        A2 (4)
  102    41           4.3618152989         118.6910284185     SG+        A1 (1)
  103   111           4.5004263734         122.4628275088      PI        B1 (2)
  104   163           4.5004263734         122.4628275089      PI        B2 (3)
  105   204           4.6264270093         125.8914791227      DE        A2 (4)
  106    42           4.6264270093         125.8914791227      DE        A1 (1)
  107    43           4.8369237544         131.6193867573     SG+        A1 (1)
  108   112           5.0969371585         138.6947111844      PI        B1 (2)
  109   164           5.0969371585         138.6947111845      PI        B2 (3)
  110    44           5.1326597908         139.6667734299     SG+        A1 (1)
  111   113           5.3524674537         145.6480440174      PI        B1 (2)
  112   165           5.3524674537         145.6480440175      PI        B2 (3)
  113    45           5.8183081274         158.3242131948      PI        A1 (1)
  114   205           5.8183081274         158.3242131948      PI        A2 (4)
  115   114           5.8888705941         160.2443155297      PH        B1 (2)
  116   166           5.8888705941         160.2443155297      PH        B2 (3)
  117    46           5.9990709406         163.2430194093     SG+        A1 (1)
  118   206           6.0683316859         165.1277001046      DE        A2 (4)
  119    47           6.0683316859         165.1277001046      DE        A1 (1)
  120   115           6.1121499182         166.3200548222      PI        B1 (2)
  121   167           6.1121499182         166.3200548222      PI        B2 (3)
  122    48           6.1631059785         167.7066397151     SG+        A1 (1)
  123    49           6.2734983803         170.7105696869      DE        A1 (1)
  124   207           6.2734983803         170.7105696869      DE        A2 (4)
  125   168           6.3432819309         172.6094766363      PH        B2 (3)
  126   116           6.3432819309         172.6094766363      PH        B1 (2)
  127   208           6.4756115034         176.2103473677      DE        A2 (4)
  128    50           6.4756115034         176.2103473677      DE        A1 (1)
  129   117           6.7403130826         183.4132435279      PI        B1 (2)
  130   169           6.7403130826         183.4132435279      PI        B2 (3)
  131    51           7.0722344208         192.4452823196     SG+        A1 (1)
  132   118           7.1236931685         193.8455460319      PI        B1 (2)
  133   170           7.1236931685         193.8455460319      PI        B2 (3)
  134    52           7.6287871222         207.5898512587     SG+        A1 (1)
  135    53           9.4490073454         257.1205616248     SG+        A1 (1)
  136   171           9.6632296140         262.9498459098      PI        B2 (3)
  137   119           9.6632296140         262.9498459100      PI        B1 (2)
  138    54          10.6658369955         290.2321797665      PI        A1 (1)
  139   209          10.6658369955         290.2321797665      PI        A2 (4)
  140    55          10.6754015336         290.4924440793     SG+        A1 (1)
  141   172          10.7308549023         292.0014069575      PH        B2 (3)
  142   120          10.7308549023         292.0014069575      PH        B1 (2)
  143   210          10.9452357693         297.8350069221      DE        A2 (4)
  144    56          10.9452357693         297.8350069221      DE        A1 (1)
  145   121          10.9830871568         298.8649955381      PI        B1 (2)
  146   173          10.9830871568         298.8649955381      PI        B2 (3)
  147    57          11.1434291347         303.2281225755     SG+        A1 (1)
  148   122          11.9018264499         323.8651626879      PH        B1 (2)
  149   174          11.9018264499         323.8651626879      PH        B2 (3)
  150    58          11.9811375133         326.0233264413      DE        A1 (1)
  151   211          11.9811375133         326.0233264413      DE        A2 (4)
  152   175          12.2705768296         333.8993706488      PI        B2 (3)
  153   123          12.2705768296         333.8993706488      PI        B1 (2)
  154    59          12.5295756316         340.9470863504     SG+        A1 (1)
  155    60          12.7246025594         346.2540388574      DE        A1 (1)
  156   212          12.7246025594         346.2540388574      DE        A2 (4)
  157   124          13.1071009108         356.6623481457      PI        B1 (2)
  158   176          13.1071009108         356.6623481457      PI        B2 (3)
  159    61          13.4047558381         364.7619504942     SG+        A1 (1)
  160    62          17.2767699144         470.1248100551     SG+        A1 (1)
  161   125          18.6887057631         508.5455377696      PI        B1 (2)
  162   177          18.6887057631         508.5455377699      PI        B2 (3)
  163    63          19.5164131643         531.0686012058     SG+        A1 (1)
  164   213          26.2433049704         714.1166332325      DE        A2 (4)
  165    64          26.2433049704         714.1166332325      DE        A1 (1)
  166   178          26.5009612339         721.1278166055      PI        B2 (3)
  167   126          26.5009612339         721.1278166055      PI        B1 (2)
  168    65          26.9453571503         733.2204442670     SG+        A1 (1)
  169   179          33.3792442629         908.2954132399      PI        B2 (3)
  170   127          33.3792442629         908.2954132409      PI        B1 (2)
  171    66          34.2642100599         932.3765568392     SG+        A1 (1)
  172    67          35.5257323089         966.7043224231     SG+        A1 (1)
  173    68          47.0763596921        1281.0128726588      DE        A1 (1)
  174   214          47.0763596921        1281.0128726588      DE        A2 (4)
  175   128          47.2641947216        1286.1241236619      PI        B1 (2)
  176   180          47.2641947216        1286.1241236620      PI        B2 (3)
  177    69          47.4397028322        1290.8999421496     SG+        A1 (1)
  178    70          63.7061262388        1733.5318260124     SG+        A1 (1)
  179   129          66.2787840964        1803.5374053331      PI        B1 (2)
  180   181          66.2787840964        1803.5374053333      PI        B2 (3)
  181    71          66.8934883775        1820.2643592027     SG+        A1 (1)
  182   182          98.4986153392        2680.2835863638      PH        B2 (3)
  183   130          98.4986153392        2680.2835863638      PH        B1 (2)
  184   215          98.5127888955        2680.6692684388      DE        A2 (4)
  185    72          98.5127888955        2680.6692684388      DE        A1 (1)
  186   131          98.5259234335        2681.0266773883      PI        B1 (2)
  187   183          98.5259234335        2681.0266773883      PI        B2 (3)
  188    73          98.5342765510        2681.2539772696     SG+        A1 (1)
  189   216         103.3154511703        2811.3563529385      DE        A2 (4)
  190    74         103.3154511703        2811.3563529402      DE        A1 (1)
  191   132         103.3200396552        2811.4812119617      PH        B1 (2)
  192   184         103.3200396552        2811.4812119617      PH        B2 (3)
  193   133         103.3340405816        2811.8621965363      PI        B1 (2)
  194   185         103.3340405816        2811.8621965364      PI        B2 (3)
  195    75         103.3443634739        2812.1430967166     SG+        A1 (1)
  196   217         114.9487484263        3127.9144647794      DE        A2 (4)
  197    76         114.9487484263        3127.9144647794      DE        A1 (1)
  198   134         115.0744794428        3131.3357796730      PI        B1 (2)
  199   186         115.0744794428        3131.3357796730      PI        B2 (3)
  200    77         115.2692985673        3136.6370775643     SG+        A1 (1)
  201   187         116.6916351711        3175.3408242144      PI        B2 (3)
  202   135         116.6916351712        3175.3408242153      PI        B1 (2)
  203    78         117.4181004401        3195.1089491742     SG+        A1 (1)
  204    79         121.8057243787        3314.5022663844     SG+        A1 (1)
  205    80         198.5597664642        5403.0859330706      DE        A1 (1)
  206   218         198.5597664642        5403.0859330707      DE        A2 (4)
  207   136         198.6621481245        5405.8718796829      PI        B1 (2)
  208   188         198.6621481245        5405.8718796829      PI        B2 (3)
  209    81         198.7529213136        5408.3419437336     SG+        A1 (1)
  210    82         216.2327441026        5883.9921034086     SG+        A1 (1)
  211   137         224.7643158191        6116.1479723917      PI        B1 (2)
  212   189         224.7643158191        6116.1479723919      PI        B2 (3)
  213    83         225.2502175921        6129.3700318311     SG+        A1 (1)
  214   190         395.2328821045       10754.8334872324      PI        B2 (3)
  215   138         395.2328821045       10754.8334872327      PI        B1 (2)
  216    84         395.7911815645       10770.0255878912     SG+        A1 (1)
  217    85         508.5524590121       13838.4159411900     SG+        A1 (1)
  218    86         895.0445663945       24355.4008562483     SG+        A1 (1)


  VSCF finished.

 @CHECKOUT-I, Total execution time (CPU/WALL):       49.27/       8.46 seconds.
--executable xvscf finished with status     0 in        8.50 seconds (walltime).
 --invoking executable--
/nfs/workspaces/public/cfour_mpi/bin/xvtran
 @GETMEM-I,  Allocated    3814 MB of main memory.
  Full RHF integral transformation
  Transformation of IIII integrals :
  1 pass through the AO integral file was required.
     4413561 AO integrals were read.
     8610486 MO integrals were written to HF2.
  Transformation of IIJJ integrals :
  1 pass through the AO integral file was required.
    10029524 AO integrals were read.
    14362857 MO integrals were written to HF2.
  Transformation of IJIJ integrals :
  1 pass through the AO integral file was required.
    19047887 AO integrals were read.
    26705583 MO integrals were written to HF2.
  Transformation of IJKL integrals :
  1 pass through the AO integral file was required.
    14072828 AO integrals were read.
    18087888 MO integrals were written to HF2.
  Summary of active molecular orbitals: 
------------------------------------------------------------------------
 
  Index      Eigenvalue    Symmetry    Index      Eigenvalue    Symmetry
------------------------------------------------------------------------
     1       -20.6400980        1       110         4.1440379        2
     2       -11.5297112        1       111         4.1514009        2
     3        -1.2618888        1       112         4.5004264        2
     4        -0.8083374        1       113         5.0969372        2
     5        -0.5202062        1       114         5.3524675        2
     6        -0.4900430        2       115         5.8888706        2
     7        -0.4900430        3       116         6.1121499        2
     8         0.0597070        1       117         6.3432819        2
     9         0.0686177        1       118         6.7403131        2
    10         0.1563711        1       119         7.1236932        2
    11         0.1864201        1       120         9.6632296        2
    12         0.2213832        1       121        10.7308549        2
    13         0.2992607        1       122        10.9830872        2
    14         0.3043520        1       123        11.9018264        2
    15         0.4149693        1       124        12.2705768        2
    16         0.5141451        1       125        13.1071009        2
    17         0.5503144        1       126        18.6887058        2
    18         0.7013774        1       127        26.5009612        2
    19         0.7357904        1       128        33.3792443        2
    20         0.8150844        1       129        47.2641947        2
    21         0.8550672        1       130        66.2787841        2
    22         0.8925369        1       131        98.4986153        2
    23         1.1391974        1       132        98.5259234        2
    24         1.3479491        1       133       103.3200397        2
    25         1.5830021        1       134       103.3340406        2
    26         1.5874255        1       135       115.0744794        2
    27         1.6685329        1       136       116.6916352        2
    28         1.9196102        1       137       198.6621481        2
    29         1.9250001        1       138       224.7643158        2
    30         2.0632889        1       139       395.2328821        2
    31         2.1204329        1       140        -0.0138730        3
    32         2.2163380        1       141         0.0816569        3
    33         2.2766427        1       142         0.1808007        3
    34         2.3770892        1       143         0.2834141        3
    35         2.6033404        1       144         0.4067979        3
    36         2.6526227        1       145         0.6229066        3
    37         2.8563012        1       146         0.7293622        3
    38         3.7136623        1       147         0.7730404        3
    39         3.8671077        1       148         0.8770789        3
    40         4.0847561        1       149         1.0458416        3
    41         4.1621415        1       150         1.4196697        3
    42         4.3023958        1       151         1.4732242        3
    43         4.3618153        1       152         1.6395153        3
    44         4.6264270        1       153         2.0533131        3
    45         4.8369238        1       154         2.1888777        3
    46         5.1326598        1       155         2.2038309        3
    47         5.8183081        1       156         2.2135008        3
    48         5.9990709        1       157         2.4930303        3
    49         6.0683317        1       158         2.6082042        3
    50         6.1631060        1       159         3.3350259        3
    51         6.2734984        1       160         3.8909226        3
    52         6.4756115        1       161         4.1440379        3
    53         7.0722344        1       162         4.1514009        3
    54         7.6287871        1       163         4.5004264        3
    55         9.4490073        1       164         5.0969372        3
    56        10.6658370        1       165         5.3524675        3
    57        10.6754015        1       166         5.8888706        3
    58        10.9452358        1       167         6.1121499        3
    59        11.1434291        1       168         6.3432819        3
    60        11.9811375        1       169         6.7403131        3
    61        12.5295756        1       170         7.1236932        3
    62        12.7246026        1       171         9.6632296        3
    63        13.4047558        1       172        10.7308549        3
    64        17.2767699        1       173        10.9830872        3
    65        19.5164132        1       174        11.9018264        3
    66        26.2433050        1       175        12.2705768        3
    67        26.9453572        1       176        13.1071009        3
    68        34.2642101        1       177        18.6887058        3
    69        35.5257323        1       178        26.5009612        3
    70        47.0763597        1       179        33.3792443        3
    71        47.4397028        1       180        47.2641947        3
    72        63.7061262        1       181        66.2787841        3
    73        66.8934884        1       182        98.4986153        3
    74        98.5127889        1       183        98.5259234        3
    75        98.5342766        1       184       103.3200397        3
    76       103.3154512        1       185       103.3340406        3
    77       103.3443635        1       186       115.0744794        3
    78       114.9487484        1       187       116.6916352        3
    79       115.2692986        1       188       198.6621481        3
    80       117.4181004        1       189       224.7643158        3
    81       121.8057244        1       190       395.2328821        3
    82       198.5597665        1       191         0.2213832        4
    83       198.7529213        1       192         0.5503144        4
    84       216.2327441        1       193         0.7357904        4
    85       225.2502176        1       194         0.8550672        4
    86       395.7911816        1       195         1.5874255        4
    87       508.5524590        1       196         1.6685329        4
    88       895.0445664        1       197         2.0632889        4
    89        -0.0138730        2       198         2.1204329        4
    90         0.0816569        2       199         2.2766427        4
    91         0.1808007        2       200         2.6033404        4
    92         0.2834141        2       201         3.7136623        4
    93         0.4067979        2       202         4.1621415        4
    94         0.6229066        2       203         4.3023958        4
    95         0.7293622        2       204         4.6264270        4
    96         0.7730404        2       205         5.8183081        4
    97         0.8770789        2       206         6.0683317        4
    98         1.0458416        2       207         6.2734984        4
    99         1.4196697        2       208         6.4756115        4
   100         1.4732242        2       209        10.6658370        4
   101         1.6395153        2       210        10.9452358        4
   102         2.0533131        2       211        11.9811375        4
   103         2.1888777        2       212        12.7246026        4
   104         2.2038309        2       213        26.2433050        4
   105         2.2135008        2       214        47.0763597        4
   106         2.4930303        2       215        98.5127889        4
   107         2.6082042        2       216       103.3154512        4
   108         3.3350259        2       217       114.9487484        4
   109         3.8909226        2       218       198.5597665        4
------------------------------------------------------------------------
  -20.6400980097122       -11.5297112083445       -1.26188877117165     
 -0.808337388254824      -0.520206163482978      -0.490043020022891     
 -0.490043020022882       5.970697513129224E-002  6.861772302388044E-002
  0.156371077773826       0.186420102913145       0.221383157537323     
  0.299260701858521       0.304352047378355       0.414969324384944     
  0.514145081868322       0.550314411688239       0.701377408931939     
  0.735790449397214       0.815084402480905       0.855067156175153     
  0.892536910753555        1.13919744319502        1.34794909158987     
   1.58300205645134        1.58742554899070        1.66853294785261     
   1.91961023880963        1.92500009370061        2.06328885428111     
   2.12043287649147        2.21633800203968        2.27664273104695     
   2.37708922874699        2.60334038919754        2.65262267214213     
   2.85630115442171        3.71366234189738        3.86710773750338     
   4.08475608494400        4.16214145061994        4.30239575482663     
   4.36181529890477        4.62642700931768        4.83692375439031     
   5.13265979082327        5.81830812742798        5.99907094063232     
   6.06833168594335        6.16310597847303        6.27349838034557     
   6.47561150337330        7.07223442081876        7.62878712218384     
[...]
 Convergence information after    16 iterations: 
 Largest element of residual vector :  0.10816356E-05.
 Largest element of DIIS residual   :  0.35720593E-06.
 Convergence information after    17 iterations: 
 Largest element of residual vector :  0.49911004E-06.
 Largest element of DIIS residual   :  0.20852034E-06.
 Convergence information after    18 iterations: 
 Largest element of residual vector :  0.88946686E-07.
 Largest element of DIIS residual   : -0.39740354E-07.
 Perturbed amplitude equations converged in    18 iterations.
  Dominant contributions to perturbed wavefunction:
    7    7  140   45  -0.2297184985 ABAB
    7    7   45  140  -0.2297184985 ABAB
    7    7  140   22  -0.2206467843 ABAB
    7    7   22  140  -0.2206467843 ABAB
    7    7  140   28   0.2159523763 ABAB
    7    7   28  140   0.2159523763 ABAB
    7    0   36    0   0.1975588130 AA  
    7    7  140   39  -0.1844471639 ABAB
    7    7   39  140  -0.1844471639 ABAB
    7    0   45    0   0.1700500501 AA  
    7    7  140   32  -0.1689269848 ABAB
    7    7   32  140  -0.1689269848 ABAB
    7    0   22    0   0.1688159157 AA  
    7    0   39    0   0.1580008536 AA  
    7    7  140   57  -0.1567193926 ABAB
    7    7   57  140  -0.1567193926 ABAB
    7    0   28    0  -0.1559888256 AA  
    7    7  140   36  -0.1440066311 ABAB
    7    7   36  140  -0.1440066311 ABAB
    7    6   45   89  -0.1432871085 ABAB
  norm of converged amps    1.61654381705590     
 Starting iterative solution of the perturbed Lambda equations.
 The DIIS procedure is used to accelerate convergence.
 Convergence criterion is 10**(-7).
 Maximum number of iterations is 100.
 Convergence information after     1 iterations: 
 Largest element of residual vector :  0.80308161E-01.
 Largest element of DIIS residual   :  0.80308161E-01.
 Convergence information after     2 iterations: 
 Largest element of residual vector :  0.17471794E-01.
 Largest element of DIIS residual   :  0.13621000E-01.
 Convergence information after     3 iterations: 
 Largest element of residual vector :  0.70575277E-02.
 Largest element of DIIS residual   :  0.62025201E-02.
 Convergence information after     4 iterations: 
 Largest element of residual vector :  0.35735752E-02.
 Largest element of DIIS residual   :  0.32954800E-02.
 Convergence information after     5 iterations: 
 Largest element of residual vector :  0.32754177E-02.
 Largest element of DIIS residual   :  0.27549166E-02.
 Convergence information after     6 iterations: 
 Largest element of residual vector :  0.18165908E-02.
 Largest element of DIIS residual   :  0.81720591E-03.
 Convergence information after     7 iterations: 
 Largest element of residual vector :  0.87805101E-03.
 Largest element of DIIS residual   :  0.44049699E-03.
 Convergence information after     8 iterations: 
 Largest element of residual vector :  0.32622409E-03.
 Largest element of DIIS residual   : -0.20036366E-03.
 Convergence information after     9 iterations: 
 Largest element of residual vector :  0.14434214E-03.
 Largest element of DIIS residual   : -0.89295584E-04.
 Convergence information after    10 iterations: 
 Largest element of residual vector : -0.78768813E-04.
 Largest element of DIIS residual   : -0.42602761E-04.
 Convergence information after    11 iterations: 
 Largest element of residual vector : -0.21842948E-04.
 Largest element of DIIS residual   : -0.77173295E-05.
 Convergence information after    12 iterations: 
 Largest element of residual vector :  0.91465196E-05.
 Largest element of DIIS residual   :  0.54440571E-05.
 Convergence information after    13 iterations: 
 Largest element of residual vector :  0.23821081E-05.
 Largest element of DIIS residual   :  0.20134087E-05.
 Convergence information after    14 iterations: 
 Largest element of residual vector :  0.25831305E-05.
 Largest element of DIIS residual   :  0.15532157E-05.
 Convergence information after    15 iterations: 
 Largest element of residual vector :  0.14110398E-05.
 Largest element of DIIS residual   :  0.69835344E-06.
 Convergence information after    16 iterations: 
 Largest element of residual vector :  0.65914349E-06.
 Largest element of DIIS residual   :  0.21143066E-06.
 Convergence information after    17 iterations: 
 Largest element of residual vector :  0.30413884E-06.
 Largest element of DIIS residual   :  0.13094725E-06.
 Convergence information after    18 iterations: 
 Largest element of residual vector :  0.62620823E-07.
 Largest element of DIIS residual   : -0.29098661E-07.
 Perturbed Lambda equations converged in    18 iterations.
  Dominant contributions to perturbed wavefunction:
    7    7  140   45  -0.1817309953 ABAB
    7    7   45  140  -0.1817309953 ABAB
    7    7  140   22  -0.1733853773 ABAB
    7    7   22  140  -0.1733853773 ABAB
    7    7  140   28   0.1707073513 ABAB
    7    7   28  140   0.1707073513 ABAB
    7    7  140   39  -0.1438198780 ABAB
    7    7   39  140  -0.1438198780 ABAB
    7    7  140   32  -0.1335207517 ABAB
    7    7   32  140  -0.1335207517 ABAB
    7    7  140   57  -0.1226950929 ABAB
    7    7   57  140  -0.1226950929 ABAB
    7    6   45   89  -0.1127020706 ABAB
    6    7   89   45  -0.1127020706 ABAB
    7    6   22   89  -0.1067514641 ABAB
    6    7   89   22  -0.1067514641 ABAB
    7    7  140   16   0.1061663711 ABAB
    7    7   16  140   0.1061663711 ABAB
    7    7  140   36  -0.1058605160 ABAB
    7    7   36  140  -0.1058605160 ABAB
        The DBOC first-order density matrix is being calculated 
             (Symmetry block 3, perturbation   2)
 term   2.71516750651111     
 final tnorm  0.767074171109728     
  norm contr. I: |<0|L dT/dx|0>|^2   0.000000000000000E+000
  norm contr. II: <0|[nabla(1+L)e-T][nabla e^T]|0>   2.71516750651111     
  total norm contribution   2.71516750651111     
 oo  1.026873134087428E-002
 vv  -20.3020440936599     
 vo  5.008890390671031E-002
  Correlated perturbed 1-el contribution to DBOC  -20.2416864584123       cm**-1
  SUM_I |dc_I/dx|^2 contribution to DBOC   10.2218171975007       cm**-1
 
 
  The total diagonal Born-Oppenheimer correction (DBOC) is:      0.0041412477 a.u.
  The total diagonal Born-Oppenheimer correction (DBOC) is:        908.898821 cm-1
 
 Total CC energy including DBOC  -113.056162872067     
 First-order density matrix is being calculated  (Symmetry block 3, perturbation   2)
 Calculation of the contributions of <pq||rs> to dI(i,j)/dx required   1.4 seconds.
 Calculation of the contributions of <pq||rs> to dI(a,b)/dx required  14.8 seconds.
 Calculation of the contributions of <pq||rs> to dI(i,a)/dx required   9.0 seconds.
 First-order Z-vector equations are solved for 1 perturbation.
 Convergence reached after  19 iterations.
        U*G(pq,rs) contribution is being calculated
             (Symmetry block 3, perturbation   2)

 CCSD contribution to force constants 

        0.0000000000        0.0000000000        0.0000000000
        0.0000000000        0.0000000000        0.0000000000
        0.0000000000        0.0000000000        0.0000000000
        0.0000000000        0.0000000000        0.0000000000
        0.0000000000        0.0000000000        0.0000000000
        0.0000000000        0.0000000000        0.0000000000
        0.0000000000        0.0000000000        0.0000000000
        0.0000000000        0.0000000000        0.0000000000
        0.0000000000        0.0000000000        0.0000000000
        0.0000000000        0.0000000000        0.0000000000
        0.0000000000        0.0000000000        0.0000000000
        0.0000000000       -6.1713846519        6.1713846519

 CCSD contribution to dipole derivatives 

        0.0000000000        0.0000000000        0.0000000000
        0.0000000000        0.0000000000        0.0000000000
        0.0000000000        0.0000000000        0.0000000000
        0.0000000000        0.0000000000       -0.0573572009
        0.0000000000        0.0000000000        0.0000000000
        0.0000000000        0.0000000000        0.0000000000
 @CHECKOUT-I, Total execution time (CPU/WALL):     1035.89/     209.01 seconds.
--executable xsdcc finished with status     0 in      209.05 seconds (walltime).
 --invoking executable--
/nfs/workspaces/public/cfour_mpi/bin/xanti
 @GETMEM-I,  Allocated    3814 MB of main memory.
 CCSD MO derivative gammas will be sorted to Mulliken order.
 @CHECKOUT-I, Total execution time (CPU/WALL):        9.76/      25.96 seconds.
--executable xanti finished with status     0 in       25.99 seconds (walltime).
 --invoking executable--
/nfs/workspaces/public/cfour_mpi/bin/xbcktrn
 @GETMEM-I,  Allocated    3814 MB of main memory.
 CCSD MO derivative gammas will be transformed to the AO basis.
 @CHECKOUT-I, Total execution time (CPU/WALL):       16.42/       3.36 seconds.
--executable xbcktrn finished with status     0 in        3.39 seconds (walltime).
 --invoking executable--
/nfs/workspaces/public/cfour_mpi/bin/xvdint
 @GETMEM-I,  Allocated    3814 MB of main memory.
 One- and two-electron integral derivatives are calculated
 for RHF-CC/MBPT hessians and dipole derivatives.
 Spherical gaussians are used.
  magnet F F
                    8722  records have been written to the Sort file.
  Total length of Sort file :             178609116  words.
 Evaluation of 2el integral derivatives

                      Two-electron integral gradient
                      ------------------------------

                         C #1 z     0.0000000000
                         O #2 z     0.0000000000


 C #1       0.0000000000            0.0805555539            0.0000000000
 O #2       0.0000000000           -0.0805555539            0.0000000000


 Evaluation of 2e integral derivatives required  255.97 seconds.
  contribution to Hessian
        0.0000000000        0.0000000000        0.0000000000
        0.0000000000        0.0805555539       -0.0805555539
 @CHECKOUT-I, Total execution time (CPU/WALL):      255.96/      62.36 seconds.
--executable xvdint finished with status     0 in       62.39 seconds (walltime).
 --invoking executable--
/nfs/workspaces/public/cfour_mpi/bin/xanti
 @GETMEM-I,  Allocated    3814 MB of main memory.
 CCSD MO gammas will be sorted to Mulliken order.
 @CHECKOUT-I, Total execution time (CPU/WALL):       10.53/       9.12 seconds.
--executable xanti finished with status     0 in        9.15 seconds (walltime).
 --invoking executable--
/nfs/workspaces/public/cfour_mpi/bin/xbcktrn
 @GETMEM-I,  Allocated    3814 MB of main memory.
 CCSD MO gammas will be transformed to the AO basis.
 @CHECKOUT-I, Total execution time (CPU/WALL):       22.91/       5.89 seconds.
--executable xbcktrn finished with status     0 in        5.91 seconds (walltime).
 --invoking executable--
/nfs/workspaces/public/cfour_mpi/bin/xvdint
 @GETMEM-I,  Allocated    3814 MB of main memory.
 One- and two-electron integral derivatives are calculated
 for RHF-CC/MBPT hessians and dipole derivatives.
 Spherical gaussians are used.
  magnet F F

                     Kinetic energy integral gradient
                     --------------------------------

                         C #1 z    -0.4801095822
                         O #2 z     0.4801095822


 C #1       0.0000000000            0.0000000000           -0.4801095822
 O #2       0.0000000000            0.0000000000            0.4801095822



                   Nuclear attraction integral gradient
                   ------------------------------------

                         C #1 z    13.0118854145
                         O #2 z   -13.0118854145


 C #1       0.0000000000            0.0000000000           13.0118854145
 O #2       0.0000000000            0.0000000000          -13.0118854145



                      Reorthonormalization gradient
                      -----------------------------

                         C #1 z     0.0000000000
                         O #2 z     0.0000000000


 C #1       0.0000000000            0.0000000000            0.0000000000
 O #2       0.0000000000            0.0000000000            0.0000000000



                     Kinetic energy integral Hessian
                     -------------------------------


           Symmetry 1

           C #1 z      O #2 z

 C #1 z    0.506632
 O #2 z   -0.506632    0.506632


           Symmetry 2

           C #1 x      O #2 x

 C #1 x   -0.349443
 O #2 x    0.349443   -0.349443


           Symmetry 3

           C #1 y      O #2 y

 C #1 y   -0.349443
 O #2 y    0.349443   -0.349443




           C #1 x      C #1 y      C #1 z      O #2 x      O #2 y      O #2 z

 C #1 x   -0.349443
 C #1 y    0.000000   -0.349443
 C #1 z    0.000000    0.000000    0.506632

 O #2 x    0.349443    0.000000    0.000000   -0.349443
 O #2 y    0.000000    0.349443    0.000000    0.000000   -0.349443
 O #2 z    0.000000    0.000000   -0.506632    0.000000    0.000000    0.506632




                   Nuclear attraction integral Hessian
                   -----------------------------------


           Symmetry 1

           C #1 z      O #2 z

 C #1 z   -7.834990
 O #2 z    7.834990   -7.834990


           Symmetry 2

           C #1 x      O #2 x

 C #1 x    6.658816
 O #2 x   -6.658816    6.658816


           Symmetry 3

           C #1 y      O #2 y

 C #1 y    6.658816
 O #2 y   -6.658816    6.658816




           C #1 x      C #1 y      C #1 z      O #2 x      O #2 y      O #2 z

 C #1 x    6.658816
 C #1 y    0.000000    6.658816
 C #1 z    0.000000    0.000000   -7.834990

 O #2 x   -6.658816    0.000000    0.000000    6.658816
 O #2 y    0.000000   -6.658816    0.000000    0.000000    6.658816
 O #2 z    0.000000    0.000000    7.834990    0.000000    0.000000   -7.834990




                Highest order reorthonormalization Hessian
                ------------------------------------------


           Symmetry 1

           C #1 z      O #2 z

 C #1 z    0.000000
 O #2 z    0.000000    0.000000


           Symmetry 2

           C #1 x      O #2 x

 C #1 x    0.000000
 O #2 x    0.000000    0.000000


           Symmetry 3

           C #1 y      O #2 y

 C #1 y    0.000000
 O #2 y    0.000000    0.000000




           C #1 x      C #1 y      C #1 z      O #2 x      O #2 y      O #2 z




                Electronic contributions to dipole moment
                -----------------------------------------

                               au             Debye

                    z      0.52936928      1.34552273

  Conversion factor used: 1 a.u. =   2.54174691 Debye 



   Electronic contributions to static part of dipole moment derivatives
   --------------------------------------------------------------------


                     Total dipole moment derivatives
                     -------------------------------


           Symmetry 1
                              Ez

               C #1 z    -5.66101407
               O #2 z    -8.33898593

           Symmetry 2
                              Ex

               C #1 x    -5.67698733
               O #2 x    -8.32301267

           Symmetry 3
                              Ey

               C #1 y    -5.67698733
               O #2 y    -8.32301267



                       Ex          Ey          Ez

      C #1    x   -5.676987    0.000000    0.000000
      C #1    y    0.000000   -5.676987    0.000000
      C #1    z    0.000000    0.000000   -5.661014

      O #2    x   -8.323013    0.000000    0.000000
      O #2    y    0.000000   -8.323013    0.000000
      O #2    z    0.000000    0.000000   -8.338986

 Evaluation of 1e integral derivatives required    1.64 seconds.
                    8815  records have been written to the Sort file.
  Total length of Sort file :             180513570  words.
 Evaluation of 2el integral derivatives

                      Two-electron integral gradient
                      ------------------------------

                         C #1 z    -7.0036598763
                         O #2 z     7.0036598763


 C #1       0.0000000000            0.0000000000           -7.0036598763
 O #2       0.0000000000            0.0000000000            7.0036598763


 Evaluation of 2e integral derivatives required  549.90 seconds.

                            Molecular gradient
                            ------------------

                         C #1 z     0.5598760485
                         O #2 z    -0.5598760485


 C #1       0.0000000000            0.0000000000            0.5598760485
 O #2       0.0000000000            0.0000000000           -0.5598760485


  Molecular gradient norm 0.792E+00

                            Molecular hessian
                            -----------------


           Symmetry 1

           C #1 z      O #2 z

 C #1 z   12.832234
 O #2 z  -12.832234   12.832234


           Symmetry 2

           C #1 x      O #2 x

 C #1 x    6.333566
 O #2 x   -6.333566    6.333566


           Symmetry 3

           C #1 y      O #2 y

 C #1 y    6.333566
 O #2 y   -6.333566    6.333566




           C #1 x      C #1 y      C #1 z      O #2 x      O #2 y      O #2 z

 C #1 x    6.333566
 C #1 y    0.000000    6.333566
 C #1 z    0.000000    0.000000   12.832234

 O #2 x   -6.333566    0.000000    0.000000    6.333566
 O #2 y    0.000000   -6.333566    0.000000    0.000000    6.333566
 O #2 z    0.000000    0.000000  -12.832234    0.000000    0.000000   12.832234




                           Total dipole moment
                           -------------------

                               au             Debye

                    z      0.52598151      1.33691187

  Conversion factor used: 1 a.u. =   2.54174691 Debye 



                     Total dipole moment derivatives
                     -------------------------------


           Symmetry 1
                              Ez

               C #1 z     0.55415392
               O #2 z    -0.55415392

           Symmetry 2
                              Ex

               C #1 x     0.17788856
               O #2 x    -0.17788856

           Symmetry 3
                              Ey

               C #1 y     0.17788856
               O #2 y    -0.17788856



                       Ex          Ey          Ez

      C #1    x    0.177889    0.000000    0.000000
      C #1    y    0.000000    0.177889    0.000000
      C #1    z    0.000000    0.000000    0.554154

      O #2    x   -0.177889    0.000000    0.000000
      O #2    y    0.000000   -0.177889    0.000000
      O #2    z    0.000000    0.000000   -0.554154

 @CHECKOUT-I, Total execution time (CPU/WALL):      551.53/      98.26 seconds.
--executable xvdint finished with status     0 in       98.30 seconds (walltime).
 --invoking executable--
/nfs/workspaces/public/cfour_mpi/bin/xjoda
  @GTFLGS-I, Hessian will be transformed to curvilinear coordinates.
  @GTFLGS-I, Hessian will be transformed to curvilinear coordinates.
  igrd and ihes are                      0                     1
  gradient from JOBARC 
   0.000000000000000   0.000000000000000   0.559876048549700
   0.000000000000000   0.000000000000000  -0.559876048549700
 
  @PROJFCM-I, Projecting force constant matrix onto totally symmetric subspace.
  Largest difference between matrix elements of symmetrized
  and unsymmetrized FCM :    -0.1084465850E-11.
  read isotopes from ZMAT file 
 
  Summary of diagonal Born-Oppenheimer correction at the correlated level
  The total diagonal Born-Oppenheimer correction (DBOC) is:      0.0041412477 a.u.
  The total diagonal Born-Oppenheimer correction (DBOC) is:        908.898821 cm-1
  The total diagonal Born-Oppenheimer correction (DBOC) is:            10.873 kJ/mole
  hellooooooo 
  readis is  F
 
 @CHECKOUT-I, Total execution time (CPU/WALL):        0.01/       0.01 seconds.
--executable xjoda finished with status     0 in        0.05 seconds (walltime).
  The final electronic energy is      -113.056162872067361 a.u. 
  This computation required                         2257.74 seconds (walltime).
