 --invoking executable--
/nfs/workspaces/public/cfour_mpi/bin/xjoda


   *************************************************************************
         <<<     CCCCCC     CCCCCC   |||     CCCCCC     CCCCCC   >>>
       <<<      CCC        CCC       |||    CCC        CCC         >>>
      <<<      CCC        CCC        |||   CCC        CCC            >>>
    <<<        CCC        CCC        |||   CCC        CCC              >>>
      <<<      CCC        CCC        |||   CCC        CCC            >>>
       <<<      CCC        CCC       |||    CCC        CCC         >>>
         <<<     CCCCCC     CCCCCC   |||     CCCCCC     CCCCCC   >>>
   *************************************************************************

     ****************************************************************
     * CFOUR Coupled-Cluster techniques for Computational Chemistry *
     ****************************************************************
 

   Department of Chemistry                Institut fuer Physikalische Chemie
   University of Florida                  Universitaet Mainz
   Gainesville, FL 32611, USA             D-55099 Mainz, Germany

   Department of Chemistry                Fakultaet fuer Chemie und Biowiss.
   Johns Hopkins University               Karlsruher Institut fuer Technologie
   Baltimore, MD 21218, USA               D-76131 Karlsruhe, Germany

   Department of Chemistry                Department of Physical Chemistry
   Southern Methodist University          Eotvos Lorand University
   Dallas, TX 75275, USA                  H-1053 Budapest, Hungary

 
                       Version 2.1
 
                     vincent.theory.phys.ucl.ac.uk                     
                     Tue 25 Feb 13:00:26 GMT 2025                      
                     integer*8 version is running
 
********************************************************************************
*                          Input from ZMAT file                                *
********************************************************************************
Carbon Monoxide DBOC calculation                                                
C                                                                               
O 1 r                                                                           
                                                                                
r=1.396551724137931                                                             
                                                                                
                                                                                
*CFOUR(CALC=CCSD,BASIS=AUG-PCVQZ,SCF_CONV=10                                    
CC_CONV=14,DBOC=ON,MEMORY=500000000                                             
ZFIELD=-200)                                                                    
                                                                                
%isotopes                                                                       
12                                                                              
16                                                                              
********************************************************************************
  @GTFLGS-I, Hessian will be transformed to curvilinear coordinates.
    -------------------------------------------------------------------
                    CFOUR Control Parameters 
    -------------------------------------------------------------------
        External           Internal           Value            Units
          Name               Name
    -------------------------------------------------------------------
       ABCDTYPE             IABCDT         STANDARD    [  0]    ***   
       ANHARMONIC           IANHAR         OFF         [  0]    ***   
       ANH_ALGORIT          IANALG         STANDARD    [  0]    ***   
       ANH_DERIVAT          IANDER         SECOND      [  1]    ***   
       ANH_MODE             ANHMOD         VIBRATION   [  0]    ***   
       ANH_STEPSIZ          ICUBST             50000          x 10-6  
       ANH_SYMMETR          IANHSM         ABELIAN     [  0]    ***   
       AO_LADDERS           IAOLAD         SINGLEPASS  [  1]    ***   
       AV_SCF               IAVSCF         OFF         [  0]    ***   
       BASIS                IBASIS         AUG-PCVQZ   [ 52]    ***   
       BOTHVECTORS          BOTHVC         OFF         [  0]    ***   
       BOX_POTENT           IPIAB          OFF         [  0]    ***   
       BREIT                IBREIT         OFF         [  0]    ***   
       BRUCK_CONV           IBRTOL          10D-  4             ***   
       BRUECKNER            IBRKNR         OFF         [  0]    ***   
       BUFFERSIZE           IBUFFS              4096            ***   
       CACHE_RECS           ICHREC             10               ***   
       CALCLEVEL            ICLLVL         CCSD        [ 10]    ***   
       CCORBOPT             ICCORB         OFF         [  0]  x 0.01  
       CC_CONV              ICCCNV          10D- 14             ***   
       CC_EXPORDER          ICCEOR              5               ***   
       CC_EXTRAPOL          ICCEXT         DIIS        [  1]    ***   
       CC_GUESS             ICCGES         MP2         [  0]    ***   
       CC_MAXCYC            ICCCYC            100              cycles 
       CC_PROGRAM           ICCPRO         VCC         [  0]    ***   
       CHARGE               ICHRGE              0               ***   
       CHOLESKY             ICHOLE         OFF         [  0]    ***   
       CIS_CONV             ICISTL              5               ***   
       COMM_SIZE            IPSIZE            ***               ***   
       CONSTANT             ICONST         OLD         [  1]    ***   
       CONTINUUM            ICONTU         NONE        [  0]    ***   
       CONTRACTION          ICNTYP         GENERAL     [  1]    ***   
       COORDINATES          ICOORD         INTERNAL    [  0]    ***   
       CPHF_CONVER          ICPHFT          10D- 16             ***   
       CPHF_MAXCYC          ICPHFC             64              cycles 
       CUBIC                ICUBIC         OFF         [  0]    ***   
       CURVILINEAR          ICURVY         ON          [  1]    ***   
       DBOC                 IDBOC          ON          [  1]    ***   
       DCT                  IDCT           OFF         [  0]    ***   
       DERIV_LEV            IDRLVL         SECOND      [  2]    ***   
       DEVMEM_SIZE          IDVMEM          50000000           MByte  
       DIAG_MRCC            IEOMST          10D-  0             ***   
       DIFF_TYPE            IDIFTY         RELAXED     [  0]    ***   
       DIRECT               IDIRCT         OFF         [  0]    ***   
       DROPMO               IDRPMO      NONE         
       ECP                  IECP           OFF         [  0]    ***   
       EIGENVECTOR          IVEC                1               ***   
       EL_ANHARM            IELANH         OFF         [  0]    ***   
       EOMFOLLOW            IEOMSR         ENERGY      [  0]    ***   
       EOMIP                IEOMIP         OFF         [  0]    ***   
       EOMLEVEL             HBARFM         SAME        [  0]    ***   
       EOM_MRCC             IMRCCE         NEW         [  1]    ***   
       EOM_NONIT            EOMNON         OFF         [  0]    ***   
       EOM_NSING            IEOMSI          10D-  0             ***   
       EOM_NSTATES          IMRCCD         DAVIDSON    [  0]    ***   
       EOM_NTRIP            IEOMTR          10D-  0             ***   
       EOM_ORDER            IEXORD         ENERGY      [  0]    ***   
       EOM_PROPSTA          IEOMST              0               ***   
       ESTATE_CONV          IEXTOL          10D-  5             ***   
       ESTATE_DIAG          IEXDIG         ITERATIVE   [  0]    ***   
       ESTATE_LOCK          IESLOC         ON          [  1]    ***   
       ESTATE_MAXC          IEXMXC             40               ***   
       ESTATE_PROP          IEXPRP         OFF         [  0]    ***   
       EVAL_HESS            IRECAL              0            # of cyc.
       EXCITATION           IEXCIT              0               ***   
       EXCITE               IEXCIT         NONE        [  0]    ***   
       EXTERN_POT           IEXPOT         OFF         [  0]    ***   
       FCGRADNEW            IFCGNW         OFF         [  0]    ***   
       FC_FIELD             IFINFC              0             x 10-6  
       FD_CALTYPE           IFDCAL         GRADONLY    [  0]    ***   
       FD_PROJECT           IFDPRJ         OFF         [  1]    ***   
       FD_STEPSIZE          IDISFD              0            10-4 bohr
       FD_USEGROUP          IFDGRP         FULL        [  0]    ***   
       FILE_RECSIZ          IFLREC              4096           words  
       FINITE_PERT          IFIPER              0             x 10-6  
       FIXGEOM              IFIXGM         OFF         [  0]    ***   
       FOCK                 IFOCK          AO          [  1]    ***   
       FREQ_ALGORI          IVIALG         STANDARD    [  0]    ***   
       FROZEN_CORE          IFROCO         OFF         [  0]    ***   
       GAMMA_ABCD           IGABCD         STORE       [  0]    ***   
       GAMMA_ABCI           IGABCI         STORE       [  0]    ***   
       GENBAS_1             IGNBS1              0               ***   
       GENBAS_2             IGNBS2              0               ***   
       GENBAS_3             IGNBS3              0               ***   
       GENBAS_4             IGNBS4              0               ***   
       GEO_CONV             ICONTL              5              H/bohr 
       GEO_MAXCYC           IOPTCY             50               ***   
       GEO_MAXSTEP          IMXSTP            300            millibohr
       GEO_METHOD           INR            SINGLE_POINT[  5]    ***   
       GIAO                 IGIAO          OFF         [  1]    ***   
       GIMIC                IGIMIC         OFF         [  0]    ***   
       GRID                 IGRID          OFF         [  0]    ***   
       GRID_ALGO            IGALGO         SERIAL      [  0]    ***   
       GUESS                IGUESS         MOREAD      [  0]    ***   
       HBAR                 IHBAR          OFF         [  0]    ***   
       HESS_TYPE            IHESTP         SCF         [  0]    ***   
       HF2_FILE             IHF2Fl         USE         [  1]    ***   
       HFSTABILITY          ISTABL         OFF         [  0]    ***   
       INCORE               INCORE         OFF         [  0]    ***   
       INPUT_MRCC           IMRCC          ON          [  1]    ***   
       INTEGRALS            INTTYP         VMOL        [  1]    ***   
       JODA_PRINT           IJPRNT              0               ***   
       KEYWORD_OUT          IDMPKW         NO          [  0]    ***   
       LINDEP_TOL           ILINDP              8               ***   
       LINEQ_CONV           IZTACN          10D-  7           cycles  
       LINEQ_EXPOR          ILMAXD              5               ***   
       LINEQ_MAXCY          ILMAXC            100               ***   
       LINEQ_TYPE           ILTYPE         DIIS        [  1]    ***   
       LOCK_ORBOCC          ILOCOC         OFF         [  0]    ***   
       MEMORY_SIZE          IMEMSZ         500000000           words  
       MEM_UNIT             IMEMU          INTEGERWORDS[  0]    ***   
       MRCC                 IMRCCC         OFF         [  0]    ***   
       MULTIPLICTY          IMULTP              1               ***   
       NACOUPLING           IVCOUP         OFF         [  0]    ***   
       NEGEVAL              IDIE           ABORT       [  0]    ***   
       NEWNORM              INEWNO         OFF         [  0]    ***   
       NON-HF               INONHF         OFF         [  0]    ***   
       NTOP_TAMP            ITOPT2             15               ***   
       NUC_MODEL            INUCMO         POINT       [  0]    ***   
       OCCUPATION           IOCCU   ESTIMATED BY SCF 
       OPEN-SHELL           IOPEN          SPIN-ORBITAL[  0]    ***   
       OPTVIB               IOPTVB         OFF         [  0]    ***   
       ORBITALS             IORBTP         STANDARD    [  0]    ***   
       PARALLEL             IPARAL         ON          [  1]    ***   
       PARA_INT             IPINTS         ON          [  1]    ***   
       PARA_PRINT           IPPRIN              0               ***   
       PERT_ORB             IPTORB         STANDARD    [  0]    ***   
       POINTS               IGRDFD              0               ***   
       PRINT                IPRNT               0               ***   
       PROPS                IPROPS         OFF         [  0]    ***   
       PROP_INTEGR          IINTYP         INTERNAL    [  0]    ***   
       PSI                  IPSI           OFF         [  0]    ***   
       QC_ALG               IQCALG         FLM         [  0]    ***   
       QC_LINALG            IQCLIN         TRIDIAG     [  2]    ***   
       QC_MAXCYC            IQCMAX          10D-100           cycles  
       QC_MAXSCFCY          IQCMSC          10D- 15           cycles  
       QC_RTRUST            IQCRTR          10D-  0           x 10-3  
       QC_SKIPSCF           IQCSKI         OFF         [  0]    ***   
       QC_START             IQCSTA          10D-  1             ***   
       QRHFGUESS            IQGUES         OFF         [  0]    ***   
       QUARTIC              IQUART         OFF         [  0]    ***   
       RAMAN_INT            IRAMIN         OFF         [  0]    ***   
       RAMAN_ORB            IRAMRE         UNRELAXED   [  0]    ***   
       RDO                  IRDOFM         ON          [  1]    ***   
       REDUCE_REPR          REDREP         Ir          [  0]    ***   
       REFERENCE            IREFNC         RHF         [  0]    ***   
       RELATIVIST           IRELAT         OFF         [  0]    ***   
       RELAX_DENS           IRDENS         ON          [  1]    ***   
       RESET_FLAGS          IRESET         OFF         [  0]    ***   
       RESTART_CC           ICCRES         OFF         [  0]    ***   
       ROT_EVEC             ROTVEC              0               ***   
       SAVE_INTS            ISVINT         OFF         [  0]    ***   
       SCALE_ON             ISTCRT              0               ***   
       SCF_CONV             ISCFCV          10D- 10             ***   
       SCF_DAMPING          IDAMP               0             x 10-3  
       SCF_EXPORDE          IRPPOR              6               ***   
       SCF_EXPSTAR          IRPPLS              8               ***   
       SCF_EXTRAPO          IRPP           ON          [  1]    ***   
       SCF_MAXCYC           ISCFCY            150              cycles 
       SCF_NOSTOP           ISCFST         OFF         [  0]    ***   
       SCF_PRINT            ISCFPR              0               ***   
       SCF_PROG             ISCFPR         SCF         [  0]    ***   
       SD_FIELD             IFINSD              0             x 10-6  
       SOPERT               IPERSO         OFF         [  0]    ***   
       SPHERICAL            IDFGHI         ON          [  1]    ***   
       SPINORBIT            ISOCAL         OFF         [  0]    ***   
       SPINROTATIO          ISRCON         OFF         [  0]    ***   
       SPIN_FLIP            ISPFLP         OFF         [  0]    ***   
       SPIN_ORBIT           ISPORB         OFF         [  0]    ***   
       SPIN_SCAL            ISCSMP         OFF         [  0]    ***   
       STEEPSCALE           ISTPSC              1000          x 10-3  
       SUBGROUP             ISUBGP         DEFAULT     [  0]    ***   
       SUBGRPAXIS           ISBXYZ         X           [  0]    ***   
       SYMMETRY             ISYM           ON          [  0]    ***   
       SYM_CHECK            ISYMCK         OVERRIDE    [  1]    ***   
       T3_EXTRAPOL          IT3EXT         OFF         [  0]    ***   
       T4_EXTRAPOL          IT4EXP         OFF         [  0]    ***   
       TAMP_SUM             IEVERY              5               ***   
       TESTSUITE            ITESTS         OFF         [  0]    ***   
       THERMOCH             ITHERM         OFF         [  0]    ***   
       TOL_CHOLESK          ITOLCH          10D-  4             ***   
       TRANGRAD             IRESRM         OFF         [  0]    ***   
       TRANS_INV            ITRAIN         IGNORE      [  1]    ***   
       TREAT_PERT           ITREAT         SIMULTANEOUS[  0]    ***   
       TRIP_ALGORI          ITRALG         NORMAL      [  0]    ***   
       UIJ_THRESHO          IUIJTH              1               ***   
       UNITS                IUNITS         ANGSTROM    [  0]    ***   
       UNOS                 IUNOS          OFF         [  0]    ***   
       UPDATE_HESS          IHUPDT         ON          [  1]    ***   
       VIBPHASE             ISETPH         STANDARD    [  0]    ***   
       VIBRATION            IVIB           ANALYTIC    [  1]    ***   
       VIB_ALGORIT          IGEALG         STANDARD    [  0]    ***   
       VNATORB              IVNORB         OFF         [  0]    ***   
       VTRAN                IVTRAN         FULL/PARTIAL[  0]    ***   
       XFIELD               IXEFLD              0             x 10-6  
       XFORM_TOL            IXFTOL          10D- 11             ***   
       YFIELD               IYEFLD              0             x 10-6  
       ZFIELD               IZEFLD            ***             x 10-6  
       ZSCALE_EXP           IZEXPS         OFF         [  0]    ***   
    -------------------------------------------------------------------
   2 entries found in Z-matrix 
   Job Title : Carbon Monoxide DBOC calculation                                                
   There are  1 unique internal coordinates.
   Of these,  0 will be optimized.
   User supplied Z-matrix: 
--------------------------------------------------------------------------------
       SYMBOL    BOND      LENGTH    ANGLE     ANGLE     DIHED     ANGLE
                  TO      (ANGST)    WRT      (DEG)      WRT      (DEG)
--------------------------------------------------------------------------------
        C    
        O          1         r    
                  *Initial values for internal coordinates* 
                      Name             Value
                        r               1.3965517241
--------------------------------------------------------------------------------
  read isotopes from ZMAT file 
   Rotational constants (in cm-1): 
          1.2606614698             1.2606614698
   Rotational constants (in MHz): 
      37793.6853685692         37793.6853685692
********************************************************************************
   The full molecular point group is CXv .
   The largest Abelian subgroup of the full molecular point group is C2v .
   The computational point group is C2v .
********************************************************************************
--------------------------------------------------------------------------------
   Analysis of internal coordinates specified by Z-matrix 
--------------------------------------------------------------------------------
   *The nuclear repulsion energy is   18.188012918518517 a.u.
   *There is   1 degree of freedom within the tot. symm. molecular subspace.
   *Z-matrix requests optimization of   0 coordinates.
   *The optimization is constrained.
   *The following   1 parameters can have non-zero 
    derivatives within the totally symmetric subspace:
             r    [ 1]
   *The following   0 parameters are to be optimized:

   *The following coordinates must be varied in an  unconstrained optimization.
             r    [ 1]
--------------------------------------------------------------------------------


 ----------------------------------------------------------------
         Coordinates used in calculation (QCOMP) 
 ----------------------------------------------------------------
 Z-matrix   Atomic            Coordinates (in bohr)
  Symbol    Number           X              Y              Z
 ----------------------------------------------------------------
     C         6        -0.00000000     0.00000000     1.50785216
     O         8         0.00000000     0.00000000    -1.13124867
 ----------------------------------------------------------------
 
   Interatomic distance matrix (Angstroms) 
 
                 C             O    
                [ 1]        [ 2]
  C    [ 1]     0.00000
  O    [ 2]     1.39655     0.00000
 rotcon2
   Rotational constants (in cm-1): 
          1.2606614698             0.0000000000
   Rotational constants (in MHz): 
      37793.6853685692             0.0000000000
  ECPDATA file not present.   Using default ECPDATA. 
  @GTFLGS-I, Hessian will be transformed to curvilinear coordinates.
  There are  218 basis functions.
 @CHECKOUT-I, Total execution time (CPU/WALL):        0.12/       0.15 seconds.
--executable xjoda finished with status     0 in        0.17 seconds (walltime).
 --invoking executable--
/nfs/workspaces/public/cfour_mpi/bin/xvmol
 SERIAL VERSION OF MOLECULE STARTED
********************************************************************************
                    INPUT FROM MOL FILE
********************************************************************************
INTGRL        1    0    1    0    0    0    0    0    0                         
         *** CFOUR Program System (Release V0.1) ***                            
Carbon Monoxide DBOC calculation                                                
    2    2 X  Y       0.10E-08              0    0                              
   9999.00      3.00                                                            
          6.00000000    1    5    1    1    1    1    1                         
C #1  -0.000000000000000   0.000000000000000   1.507852159690996                
   16    9                                                                      
   33980.0000000000       9.100000000000000E-005 -1.900000000000000E-005        
  0.000000000000000E+000  0.000000000000000E+000  0.000000000000000E+000        
  0.000000000000000E+000  0.000000000000000E+000  0.000000000000000E+000        
  0.000000000000000E+000                                                        
   5089.00000000000       7.040000000000000E-004 -1.510000000000000E-004        
  0.000000000000000E+000  0.000000000000000E+000  0.000000000000000E+000        
  0.000000000000000E+000  0.000000000000000E+000  0.000000000000000E+000        
  0.000000000000000E+000                                                        
   1157.00000000000       3.693000000000000E-003 -7.850000000000000E-004        
  0.000000000000000E+000  0.000000000000000E+000  0.000000000000000E+000        
  0.000000000000000E+000  0.000000000000000E+000  0.000000000000000E+000        
  0.000000000000000E+000                                                        
   326.600000000000       1.536000000000000E-002 -3.324000000000000E-003        
  0.000000000000000E+000  0.000000000000000E+000  0.000000000000000E+000        
  0.000000000000000E+000  0.000000000000000E+000  0.000000000000000E+000        
  0.000000000000000E+000                                                        
   106.100000000000       5.292900000000000E-002 -1.151200000000000E-002        
  0.000000000000000E+000  0.000000000000000E+000  0.000000000000000E+000        
  0.000000000000000E+000  0.000000000000000E+000  0.000000000000000E+000        
  0.000000000000000E+000                                                        
   38.1100000000000       0.147043000000000      -3.416000000000000E-002        
  0.000000000000000E+000  0.000000000000000E+000  0.000000000000000E+000        
  0.000000000000000E+000  0.000000000000000E+000  0.000000000000000E+000        
  0.000000000000000E+000                                                        
   14.7500000000000       0.305631000000000      -7.717300000000001E-002        
  0.000000000000000E+000  0.000000000000000E+000  0.000000000000000E+000        
  0.000000000000000E+000  0.000000000000000E+000  0.000000000000000E+000        
  0.000000000000000E+000                                                        
   6.03500000000000       0.399345000000000      -0.141493000000000             
  0.000000000000000E+000  0.000000000000000E+000  0.000000000000000E+000        
  0.000000000000000E+000  0.000000000000000E+000  0.000000000000000E+000        
  0.000000000000000E+000                                                        
   2.53000000000000       0.217051000000000      -0.118019000000000             
  0.000000000000000E+000  0.000000000000000E+000  0.000000000000000E+000        
  0.000000000000000E+000  0.000000000000000E+000  0.000000000000000E+000        
  0.000000000000000E+000                                                        
  0.735500000000000       1.589400000000000E-002  0.273806000000000             
   1.00000000000000       0.000000000000000E+000  0.000000000000000E+000        
  0.000000000000000E+000  0.000000000000000E+000  0.000000000000000E+000        
  0.000000000000000E+000                                                        
  0.290500000000000      -3.084000000000000E-003  0.586510000000000             
  0.000000000000000E+000   1.00000000000000       0.000000000000000E+000        
  0.000000000000000E+000  0.000000000000000E+000  0.000000000000000E+000        
  0.000000000000000E+000                                                        
  0.111100000000000       9.779999999999999E-004  0.285430000000000             
  0.000000000000000E+000  0.000000000000000E+000   1.00000000000000             
  0.000000000000000E+000  0.000000000000000E+000  0.000000000000000E+000        
  0.000000000000000E+000                                                        
   7.21600000000000       0.000000000000000E+000  0.000000000000000E+000        
  0.000000000000000E+000  0.000000000000000E+000  0.000000000000000E+000        
   1.00000000000000       0.000000000000000E+000  0.000000000000000E+000        
  0.000000000000000E+000                                                        
   19.5700000000000       0.000000000000000E+000  0.000000000000000E+000        
  0.000000000000000E+000  0.000000000000000E+000  0.000000000000000E+000        
  0.000000000000000E+000   1.00000000000000       0.000000000000000E+000        
  0.000000000000000E+000                                                        
   53.0730000000000       0.000000000000000E+000  0.000000000000000E+000        
  0.000000000000000E+000  0.000000000000000E+000  0.000000000000000E+000        
  0.000000000000000E+000  0.000000000000000E+000   1.00000000000000             
  0.000000000000000E+000                                                        
  4.145000000000000E-002  0.000000000000000E+000  0.000000000000000E+000        
  0.000000000000000E+000  0.000000000000000E+000  0.000000000000000E+000        
  0.000000000000000E+000  0.000000000000000E+000  0.000000000000000E+000        
   1.00000000000000                                                             
   10    8                                                                      
   34.5100000000000       5.378000000000000E-003  0.000000000000000E+000        
  0.000000000000000E+000  0.000000000000000E+000  0.000000000000000E+000        
  0.000000000000000E+000  0.000000000000000E+000  0.000000000000000E+000        
   7.91500000000000       3.613200000000000E-002  0.000000000000000E+000        
  0.000000000000000E+000  0.000000000000000E+000  0.000000000000000E+000        
  0.000000000000000E+000  0.000000000000000E+000  0.000000000000000E+000        
   2.36800000000000       0.142493000000000       0.000000000000000E+000        
  0.000000000000000E+000  0.000000000000000E+000  0.000000000000000E+000        
  0.000000000000000E+000  0.000000000000000E+000  0.000000000000000E+000        
  0.813200000000000       0.342150000000000        1.00000000000000             
  0.000000000000000E+000  0.000000000000000E+000  0.000000000000000E+000        
  0.000000000000000E+000  0.000000000000000E+000  0.000000000000000E+000        
  0.289000000000000       0.463864000000000       0.000000000000000E+000        
   1.00000000000000       0.000000000000000E+000  0.000000000000000E+000        
  0.000000000000000E+000  0.000000000000000E+000  0.000000000000000E+000        
  0.100700000000000       0.250028000000000       0.000000000000000E+000        
  0.000000000000000E+000   1.00000000000000       0.000000000000000E+000        
  0.000000000000000E+000  0.000000000000000E+000  0.000000000000000E+000        
   8.18200000000000       0.000000000000000E+000  0.000000000000000E+000        
  0.000000000000000E+000  0.000000000000000E+000   1.00000000000000             
  0.000000000000000E+000  0.000000000000000E+000  0.000000000000000E+000        
   24.1860000000000       0.000000000000000E+000  0.000000000000000E+000        
  0.000000000000000E+000  0.000000000000000E+000  0.000000000000000E+000        
   1.00000000000000       0.000000000000000E+000  0.000000000000000E+000        
   71.4940000000000       0.000000000000000E+000  0.000000000000000E+000        
  0.000000000000000E+000  0.000000000000000E+000  0.000000000000000E+000        
  0.000000000000000E+000   1.00000000000000       0.000000000000000E+000        
  3.218000000000000E-002  0.000000000000000E+000  0.000000000000000E+000        
  0.000000000000000E+000  0.000000000000000E+000  0.000000000000000E+000        
  0.000000000000000E+000  0.000000000000000E+000   1.00000000000000             
    6    6                                                                      
   1.84800000000000        1.00000000000000       0.000000000000000E+000        
  0.000000000000000E+000  0.000000000000000E+000  0.000000000000000E+000        
  0.000000000000000E+000                                                        
  0.649000000000000       0.000000000000000E+000   1.00000000000000             
  0.000000000000000E+000  0.000000000000000E+000  0.000000000000000E+000        
  0.000000000000000E+000                                                        
  0.228000000000000       0.000000000000000E+000  0.000000000000000E+000        
   1.00000000000000       0.000000000000000E+000  0.000000000000000E+000        
  0.000000000000000E+000                                                        
   8.65600000000000       0.000000000000000E+000  0.000000000000000E+000        
  0.000000000000000E+000   1.00000000000000       0.000000000000000E+000        
  0.000000000000000E+000                                                        
   33.2130000000000       0.000000000000000E+000  0.000000000000000E+000        
  0.000000000000000E+000  0.000000000000000E+000   1.00000000000000             
  0.000000000000000E+000                                                        
  7.660000000000000E-002  0.000000000000000E+000  0.000000000000000E+000        
  0.000000000000000E+000  0.000000000000000E+000  0.000000000000000E+000        
   1.00000000000000                                                             
    4    4                                                                      
   1.41900000000000        1.00000000000000       0.000000000000000E+000        
  0.000000000000000E+000  0.000000000000000E+000                                
  0.485000000000000       0.000000000000000E+000   1.00000000000000             
  0.000000000000000E+000  0.000000000000000E+000                                
   24.6940000000000       0.000000000000000E+000  0.000000000000000E+000        
   1.00000000000000       0.000000000000000E+000                                
  0.187000000000000       0.000000000000000E+000  0.000000000000000E+000        
  0.000000000000000E+000   1.00000000000000                                     
    2    2                                                                      
   1.01100000000000        1.00000000000000       0.000000000000000E+000        
  0.424000000000000       0.000000000000000E+000   1.00000000000000             
          8.00000000    1    5    1    1    1    1    1                         
O #2   0.000000000000000   0.000000000000000  -1.131248670896592                
   16    9                                                                      
   61420.0000000000       9.000000000000001E-005 -2.000000000000000E-005        
  0.000000000000000E+000  0.000000000000000E+000  0.000000000000000E+000        
  0.000000000000000E+000  0.000000000000000E+000  0.000000000000000E+000        
  0.000000000000000E+000                                                        
   9199.00000000000       6.980000000000001E-004 -1.590000000000000E-004        
  0.000000000000000E+000  0.000000000000000E+000  0.000000000000000E+000        
  0.000000000000000E+000  0.000000000000000E+000  0.000000000000000E+000        
  0.000000000000000E+000                                                        
   2091.00000000000       3.664000000000000E-003 -8.290000000000000E-004        
  0.000000000000000E+000  0.000000000000000E+000  0.000000000000000E+000        
  0.000000000000000E+000  0.000000000000000E+000  0.000000000000000E+000        
  0.000000000000000E+000                                                        
   590.900000000000       1.521800000000000E-002 -3.508000000000000E-003        
  0.000000000000000E+000  0.000000000000000E+000  0.000000000000000E+000        
  0.000000000000000E+000  0.000000000000000E+000  0.000000000000000E+000        
  0.000000000000000E+000                                                        
   192.300000000000       5.242300000000000E-002 -1.215600000000000E-002        
  0.000000000000000E+000  0.000000000000000E+000  0.000000000000000E+000        
  0.000000000000000E+000  0.000000000000000E+000  0.000000000000000E+000        
  0.000000000000000E+000                                                        
   69.3200000000000       0.145921000000000      -3.626100000000000E-002        
  0.000000000000000E+000  0.000000000000000E+000  0.000000000000000E+000        
  0.000000000000000E+000  0.000000000000000E+000  0.000000000000000E+000        
  0.000000000000000E+000                                                        
   26.9700000000000       0.305258000000000      -8.299200000000000E-002        
  0.000000000000000E+000  0.000000000000000E+000  0.000000000000000E+000        
  0.000000000000000E+000  0.000000000000000E+000  0.000000000000000E+000        
  0.000000000000000E+000                                                        
   11.1000000000000       0.398508000000000      -0.152090000000000             
  0.000000000000000E+000  0.000000000000000E+000  0.000000000000000E+000        
  0.000000000000000E+000  0.000000000000000E+000  0.000000000000000E+000        
  0.000000000000000E+000                                                        
   4.68200000000000       0.216980000000000      -0.115331000000000             
  0.000000000000000E+000  0.000000000000000E+000  0.000000000000000E+000        
  0.000000000000000E+000  0.000000000000000E+000  0.000000000000000E+000        
  0.000000000000000E+000                                                        
   1.42800000000000       1.759400000000000E-002  0.288979000000000             
   1.00000000000000       0.000000000000000E+000  0.000000000000000E+000        
  0.000000000000000E+000  0.000000000000000E+000  0.000000000000000E+000        
  0.000000000000000E+000                                                        
  0.554700000000000      -2.502000000000000E-003  0.586128000000000             
  0.000000000000000E+000   1.00000000000000       0.000000000000000E+000        
  0.000000000000000E+000  0.000000000000000E+000  0.000000000000000E+000        
  0.000000000000000E+000                                                        
  0.206700000000000       9.540000000000000E-004  0.277624000000000             
  0.000000000000000E+000  0.000000000000000E+000   1.00000000000000             
  0.000000000000000E+000  0.000000000000000E+000  0.000000000000000E+000        
  0.000000000000000E+000                                                        
   12.9740000000000       0.000000000000000E+000  0.000000000000000E+000        
  0.000000000000000E+000  0.000000000000000E+000  0.000000000000000E+000        
   1.00000000000000       0.000000000000000E+000  0.000000000000000E+000        
  0.000000000000000E+000                                                        
   34.9000000000000       0.000000000000000E+000  0.000000000000000E+000        
  0.000000000000000E+000  0.000000000000000E+000  0.000000000000000E+000        
  0.000000000000000E+000   1.00000000000000       0.000000000000000E+000        
  0.000000000000000E+000                                                        
   93.8810000000000       0.000000000000000E+000  0.000000000000000E+000        
  0.000000000000000E+000  0.000000000000000E+000  0.000000000000000E+000        
  0.000000000000000E+000  0.000000000000000E+000   1.00000000000000             
  0.000000000000000E+000                                                        
  6.959000000000000E-002  0.000000000000000E+000  0.000000000000000E+000        
  0.000000000000000E+000  0.000000000000000E+000  0.000000000000000E+000        
  0.000000000000000E+000  0.000000000000000E+000  0.000000000000000E+000        
   1.00000000000000                                                             
   10    8                                                                      
   63.4200000000000       6.044000000000000E-003  0.000000000000000E+000        
  0.000000000000000E+000  0.000000000000000E+000  0.000000000000000E+000        
  0.000000000000000E+000  0.000000000000000E+000  0.000000000000000E+000        
   14.6600000000000       4.179900000000000E-002  0.000000000000000E+000        
  0.000000000000000E+000  0.000000000000000E+000  0.000000000000000E+000        
  0.000000000000000E+000  0.000000000000000E+000  0.000000000000000E+000        
   4.45900000000000       0.161143000000000       0.000000000000000E+000        
  0.000000000000000E+000  0.000000000000000E+000  0.000000000000000E+000        
  0.000000000000000E+000  0.000000000000000E+000  0.000000000000000E+000        
   1.53100000000000       0.356731000000000        1.00000000000000             
  0.000000000000000E+000  0.000000000000000E+000  0.000000000000000E+000        
  0.000000000000000E+000  0.000000000000000E+000  0.000000000000000E+000        
  0.530200000000000       0.448309000000000       0.000000000000000E+000        
   1.00000000000000       0.000000000000000E+000  0.000000000000000E+000        
  0.000000000000000E+000  0.000000000000000E+000  0.000000000000000E+000        
  0.175000000000000       0.244940000000000       0.000000000000000E+000        
  0.000000000000000E+000   1.00000000000000       0.000000000000000E+000        
  0.000000000000000E+000  0.000000000000000E+000  0.000000000000000E+000        
   14.4750000000000       0.000000000000000E+000  0.000000000000000E+000        
  0.000000000000000E+000  0.000000000000000E+000   1.00000000000000             
  0.000000000000000E+000  0.000000000000000E+000  0.000000000000000E+000        
   42.7300000000000       0.000000000000000E+000  0.000000000000000E+000        
  0.000000000000000E+000  0.000000000000000E+000  0.000000000000000E+000        
   1.00000000000000       0.000000000000000E+000  0.000000000000000E+000        
   126.140000000000       0.000000000000000E+000  0.000000000000000E+000        
  0.000000000000000E+000  0.000000000000000E+000  0.000000000000000E+000        
  0.000000000000000E+000   1.00000000000000       0.000000000000000E+000        
  5.348000000000000E-002  0.000000000000000E+000  0.000000000000000E+000        
  0.000000000000000E+000  0.000000000000000E+000  0.000000000000000E+000        
  0.000000000000000E+000  0.000000000000000E+000   1.00000000000000             
    6    6                                                                      
   3.77500000000000        1.00000000000000       0.000000000000000E+000        
  0.000000000000000E+000  0.000000000000000E+000  0.000000000000000E+000        
  0.000000000000000E+000                                                        
   1.30000000000000       0.000000000000000E+000   1.00000000000000             
  0.000000000000000E+000  0.000000000000000E+000  0.000000000000000E+000        
  0.000000000000000E+000                                                        
  0.444000000000000       0.000000000000000E+000  0.000000000000000E+000        
   1.00000000000000       0.000000000000000E+000  0.000000000000000E+000        
  0.000000000000000E+000                                                        
   14.9270000000000       0.000000000000000E+000  0.000000000000000E+000        
  0.000000000000000E+000   1.00000000000000       0.000000000000000E+000        
  0.000000000000000E+000                                                        
   57.5440000000000       0.000000000000000E+000  0.000000000000000E+000        
  0.000000000000000E+000  0.000000000000000E+000   1.00000000000000             
  0.000000000000000E+000                                                        
  0.154000000000000       0.000000000000000E+000  0.000000000000000E+000        
  0.000000000000000E+000  0.000000000000000E+000  0.000000000000000E+000        
   1.00000000000000                                                             
    4    4                                                                      
   2.66600000000000        1.00000000000000       0.000000000000000E+000        
  0.000000000000000E+000  0.000000000000000E+000                                
  0.859000000000000       0.000000000000000E+000   1.00000000000000             
  0.000000000000000E+000  0.000000000000000E+000                                
   26.4830000000000       0.000000000000000E+000  0.000000000000000E+000        
   1.00000000000000       0.000000000000000E+000                                
  0.324000000000000       0.000000000000000E+000  0.000000000000000E+000        
  0.000000000000000E+000   1.00000000000000                                     
    2    2                                                                      
   1.84600000000000        1.00000000000000       0.000000000000000E+000        
  0.714000000000000       0.000000000000000E+000   1.00000000000000             
FINISH                                                                          
 
********************************************************************************
 ONE- AND TWO-ELECTRON INTEGRALS OVER SYMMETRY-ADAPTED AOS ARE CALCULATED.

  SPHERICAL HARMONICS ARE USED.
  
  INTEGRALS LESS THAN  0.10E-13 ARE NEGLECTED.

  NUCLEAR REPULSION ENERGY :   18.1880129185 A.U.
  @MOLECU-I, ONE ELECTRON INTEGRALS (CPU/WALL):        0.06/       0.06 SECONDS.
  @TWOEL-I,    4497928 INTEGRALS OF SYMMETRY TYPE  I I I I
  @TWOEL-I,   19389670 INTEGRALS OF SYMMETRY TYPE  I J I J
  @TWOEL-I,   10209152 INTEGRALS OF SYMMETRY TYPE  I I J J
  @TWOEL-I,   14352678 INTEGRALS OF SYMMETRY TYPE  I J K L
  @TWOEL-I, TOTAL NUMBER OF 2-E INTEGRALS   48449428.
  @MOLECU-I, TWO ELECTRON INTEGRALS (CPU/WALL):      161.59/      21.98 SECONDS.
 @CHECKOUT-I, Total execution time (CPU/WALL):      161.67/      22.06 seconds.

Running with 14 threads/proc

--executable xvmol finished with status     0 in       22.08 seconds (walltime).
 --invoking executable--
/nfs/workspaces/public/cfour_mpi/bin/xvmol2ja
 @GETMEM-I,  Allocated    3814 MB of main memory.
 @CHECKOUT-I, Total execution time (CPU/WALL):        0.14/       0.04 seconds.
--executable xvmol2ja finished with status     0 in        0.07 seconds (walltime).
 --invoking executable--
/nfs/workspaces/public/cfour_mpi/bin/xvprop
 @GETMEM-I,  Allocated    3814 MB of main memory.
   Property integrals will be calculated.
    --------------------------------------------------------------
                                   Property evaluated at 
    Property type                X             Y             Z
    --------------------------------------------------------------
    Dipole moment               ----          ----          ----  
    Quadrupole moment           ----          ----          ----  
    Octopole moment             ----          ----          ----  
    Relativisitic corr.         ----          ----          ----  
    Second moment            0.0000000     0.0000000     0.0000000
    Electron density         0.0000000     0.0000000     1.5078522
    Electron density         0.0000000     0.0000000    -1.1312487
    Field gradient           0.0000000     0.0000000     1.5078522
    Field gradient           0.0000000     0.0000000    -1.1312487
    Potential                0.0000000     0.0000000     1.5078522
    Potential                0.0000000     0.0000000    -1.1312487
    --------------------------------------------------------------
 @CHECKOUT-I, Total execution time (CPU/WALL):        1.30/       1.30 seconds.
--executable xvprop finished with status     0 in        1.32 seconds (walltime).
 --invoking executable--
/nfs/workspaces/public/cfour_mpi/bin/xvscf
  There are  218 functions in the AO basis.

  There are 4 irreducible representations.

       Irrep        # of functions
         1                 86
         2                 52
         3                 52
         4                 28


  Parameters for SCF calculation: 
        SCF reference function:  RHF  
  Maximum number of iterations:  150
     Full symmetry point group: CXv 
     Computational point group: C2v 
        Initial density matrix: MOREAD                 
     SCF convergence tolerance: 10**(-10)
  DIIS convergence acceleration:  ON
          Latest start for DIIS:   8
                     DIIS order:   6

  Memory information:    2523578 words required.
  Fock matrices are constructed from AO integral file.
 @GETMEM-I,  Allocated      19 MB of main memory.
  Initialization and symmetry analysis required      0.002 seconds.

  Adding electric field perturbation to one-electron Hamiltonian.
  Field direction     : Z
  Field strength      : -0.0002000 a.u.

  @INITGES-I, Occupancies from core Hamiltonian:

          Alpha population by irrep:   5    1    1    0
           Beta population by irrep:   5    1    1    0


 total no. of electrons in initial guess :  0.000000000000000E+000
  --------------------------------------------------------------------
  Iteration         Total Energy            Largest Density Difference
  --------------------------------------------------------------------
       0            18.188012343236714              0.0000000000D+00
   current occupation vector 
     5  1  1  0
     5  1  1  0
       1           -93.157111839101475              0.1763729144D+02
   current occupation vector 
     5  1  1  0
     5  1  1  0
       2           -98.377233147469383              0.1763462721D+02
   current occupation vector 
     5  1  1  0
     5  1  1  0
       3          -103.312291950466062              0.6691999689D+01
   current occupation vector 
     5  1  1  0
     5  1  1  0
       4           -98.601977313014288              0.6685263396D+01
   current occupation vector 
     5  1  1  0
     5  1  1  0
       5          -101.287809123543809              0.6446705582D+01
   current occupation vector 
     5  1  1  0
     5  1  1  0
       6           -97.024492001994759              0.6433692655D+01
   current occupation vector 
     5  1  1  0
     5  1  1  0
       7          -101.264840010083390              0.6576538084D+01
   current occupation vector 
     5  1  1  0
     5  1  1  0
       8           -96.937771672101718              0.6576544021D+01
   current occupation vector 
     5  1  1  0
     5  1  1  0
       9          -108.165238180688192              0.5044228802D+01
   current occupation vector 
     5  1  1  0
     5  1  1  0
      10          -110.062532363196340              0.9997780634D+00
   current occupation vector 
     5  1  1  0
     5  1  1  0
      11          -112.397857010283701              0.1363874417D+01
   current occupation vector 
     5  1  1  0
     5  1  1  0
      12          -112.658738665110945              0.5148856359D+00
   current occupation vector 
     5  1  1  0
     5  1  1  0
      13          -112.661230674604013              0.8203158643D-01
   current occupation vector 
     5  1  1  0
     5  1  1  0
      14          -112.661728280106018              0.3296575819D-01
   current occupation vector 
     5  1  1  0
     5  1  1  0
      15          -112.661761117574258              0.9426226634D-02
   current occupation vector 
     5  1  1  0
     5  1  1  0
      16          -112.661762584017566              0.2135721034D-02
   current occupation vector 
     5  1  1  0
     5  1  1  0
      17          -112.661762795961096              0.9507136486D-03
   current occupation vector 
     5  1  1  0
     5  1  1  0
      18          -112.661762830439386              0.3831328662D-03
   current occupation vector 
     5  1  1  0
     5  1  1  0
      19          -112.661762831777139              0.9747528948D-04
   current occupation vector 
     5  1  1  0
     5  1  1  0
      20          -112.661762831794050              0.4019332861D-05
   current occupation vector 
     5  1  1  0
     5  1  1  0
      21          -112.661762831795585              0.7019869854D-06
   current occupation vector 
     5  1  1  0
     5  1  1  0
      22          -112.661762831795841              0.1245975292D-06
   current occupation vector 
     5  1  1  0
     5  1  1  0
      23          -112.661762831795812              0.2672293586D-07
   current occupation vector 
     5  1  1  0
     5  1  1  0
      24          -112.661762831795812              0.3296560358D-08
   current occupation vector 
     5  1  1  0
     5  1  1  0
      25          -112.661762831794192              0.9467364670D-09
   current occupation vector 
     5  1  1  0
     5  1  1  0
      26          -112.661762831795983              0.3403139992D-09
   current occupation vector 
     5  1  1  0
     5  1  1  0
      27          -112.661762831795755              0.1710720454D-09
   current occupation vector 
     5  1  1  0
     5  1  1  0
      28          -112.661762831795642              0.1049627052D-09
   current occupation vector 
     5  1  1  0
     5  1  1  0

  SCF has converged.

 Density matrix saved to file den.dat
 total electron number:   13.9999999999999     
     E(SCF)=      -112.661762831796068              0.3250621994D-10

  Eigenvector printing suppressed.

 @PUTMOS-I, Writing converged MOs to NEWMOS. 
 @PUTMOS-I, Symmetry   1 Full Blocks 21 Partial Blocksize   2
 @PUTMOS-I, Symmetry   2 Full Blocks 13 Partial Blocksize   0
 @PUTMOS-I, Symmetry   3 Full Blocks 13 Partial Blocksize   0
 @PUTMOS-I, Symmetry   4 Full Blocks  7 Partial Blocksize   0
 @PUTFOCK-I, Writing converged Fock matrix to NEWFOCK. 
 @PUTFOCK-I, Symmetry   1 Full Blocks 21 Partial Blocksize   2
 @PUTFOCK-I, Symmetry   2 Full Blocks 13 Partial Blocksize   0
 @PUTFOCK-I, Symmetry   3 Full Blocks 13 Partial Blocksize   0
 @PUTFOCK-I, Symmetry   4 Full Blocks  7 Partial Blocksize   0


 
  ORBITAL EIGENVALUES (ALPHA)  (1H = 27.2113834 eV)

       MO #        E(hartree)               E(eV)           FULLSYM    COMPSYM
       ----   --------------------   --------------------   -------   ---------
    1     1         -20.6615421733        -562.2291457127     SG+        A1 (1)
    2     2         -11.4678182884        -312.0552002081     SG+        A1 (1)
    3     3          -1.3615238678         -37.0489479763     SG+        A1 (1)
    4     4          -0.7934546055         -21.5909974812     SG+        A1 (1)
    5     5          -0.5620585102         -15.2943896132     SG+        A1 (1)
    6    87          -0.5449115928         -14.8277982697      PI        B1 (2)
    7   139          -0.5449115928         -14.8277982697      PI        B2 (3)
  +++++++++++++++++++++++++++++++++++++++++++++++++++++++++++++++++++++++++++++
    8   140           0.0331022098           0.9007569223      PI        B2 (3)
    9    88           0.0331022098           0.9007569223      PI        B1 (2)
   10     6           0.0634146608           1.7256006473     SG+        A1 (1)
   11     7           0.0685866866           1.8663386241     SG+        A1 (1)
   12   141           0.0899004415           2.4463153807      PI        B2 (3)
   13    89           0.0899004415           2.4463153807      PI        B1 (2)
   14     8           0.1573107521           4.2806431894     SG+        A1 (1)
   15   142           0.1727330084           4.7003041186      PI        B2 (3)
   16    90           0.1727330084           4.7003041186      PI        B1 (2)
   17     9           0.2248628567           6.1188294061     SG+        A1 (1)
   18    10           0.2251499938           6.1266428037      DE        A1 (1)
   19   191           0.2251499938           6.1266428037      DE        A2 (4)
   20   143           0.2970157285           8.0822088642      PI        B2 (3)
   21    91           0.2970157285           8.0822088642      PI        B1 (2)
   22    11           0.2993720007           8.1463262901     SG+        A1 (1)
   23    12           0.3682690644          10.0211107054     SG+        A1 (1)
   24   144           0.3986851508          10.8487744949      PI        B2 (3)
   25    92           0.3986851508          10.8487744949      PI        B1 (2)
   26    13           0.4930572253          13.4167691964     SG+        A1 (1)
   27    14           0.5120192053          13.9327509030     SG+        A1 (1)
   28    15           0.5466660900          14.8755405678      DE        A1 (1)
   29   192           0.5466660900          14.8755405678      DE        A2 (4)
   30   145           0.6254086415          17.0182343266      PI        B2 (3)
   31    93           0.6254086415          17.0182343266      PI        B1 (2)
   32    16           0.7355253005          20.0146609525     SG+        A1 (1)
   33    94           0.7401906236          20.1416108483      PH        B1 (2)
   34   146           0.7401906236          20.1416108483      PH        B2 (3)
   35    17           0.7523421712          20.4722712676      DE        A1 (1)
   36   193           0.7523421712          20.4722712676      DE        A2 (4)
   37   147           0.7929660621          21.5777035389      PI        B2 (3)
   38    95           0.7929660621          21.5777035389      PI        B1 (2)
   39    18           0.8251125618          22.4524542683     SG+        A1 (1)
   40    19           0.8677130169          23.6116715836     SG+        A1 (1)
   41   194           0.8744336781          23.7945500740      DE        A2 (4)
   42    20           0.8744336781          23.7945500740      DE        A1 (1)
   43   148           0.8976066506          24.4251187108      PI        B2 (3)
   44    96           0.8976066506          24.4251187108      PI        B1 (2)
   45    97           1.0341976308          28.1419482444      PI        B1 (2)
   46   149           1.0341976308          28.1419482444      PI        B2 (3)
   47    21           1.1225123192          30.5451130881     SG+        A1 (1)
   48    22           1.4016627825          38.1411833733     SG+        A1 (1)
   49   150           1.4293199269          38.8937725322      PH        B2 (3)
   50    98           1.4293199269          38.8937725322      PH        B1 (2)
   51   151           1.5565141295          42.3549027442      PI        B2 (3)
   52    99           1.5565141295          42.3549027442      PI        B1 (2)
   53   195           1.5622297865          42.5104336803      DE        A2 (4)
   54    23           1.5622297865          42.5104336803      DE        A1 (1)
   55    24           1.6339377667          44.4617070227     SG+        A1 (1)
   56   152           1.6497653909          44.8923985721      PI        B2 (3)
   57   100           1.6497653909          44.8923985721      PI        B1 (2)
   58   196           1.7184978965          46.7627051349      DE        A2 (4)
   59    25           1.7184978965          46.7627051349      DE        A1 (1)
   60    26           1.8774152351          51.0870657635     SG+        A1 (1)
   61    27           2.0110132147          54.7224516081     SG+        A1 (1)
   62   153           2.0826478513          56.6717291702      PI        B2 (3)
   63   101           2.0826478513          56.6717291703      PI        B1 (2)
   64    28           2.0847441900          56.7287734446      PI        A1 (1)
   65   197           2.0847441900          56.7287734446      PI        A2 (4)
   66   198           2.1506293066          58.5215986139      DE        A2 (4)
   67    29           2.1506293066          58.5215986140      DE        A1 (1)
   68   102           2.2262169715          60.5784435426      PH        B1 (2)
   69   154           2.2262169715          60.5784435426      PH        B2 (3)
   70   155           2.2652748353          61.6412620490      PI        B2 (3)
   71   103           2.2652748353          61.6412620490      PI        B1 (2)
   72   156           2.2689845377          61.7422081830      PH        B2 (3)
   73   104           2.2689845377          61.7422081830      PH        B1 (2)
   74    30           2.2730281751          61.8522411522     SG+        A1 (1)
   75    31           2.3168035453          63.0434295347      DE        A1 (1)
   76   199           2.3168035453          63.0434295347      DE        A2 (4)
   77    32           2.4979911239          67.9737942010     SG+        A1 (1)
   78   157           2.5267328574          68.7558965327      PI        B2 (3)
   79   105           2.5267328574          68.7558965328      PI        B1 (2)
   80    33           2.6164925342          71.1983815103     SG+        A1 (1)
   81   158           2.6487099108          72.0750608982      PI        B2 (3)
   82   106           2.6487099108          72.0750608982      PI        B1 (2)
   83   200           2.7833568992          75.7389917244      DE        A2 (4)
   84    34           2.7833568992          75.7389917244      DE        A1 (1)
   85    35           3.2525385118          88.5060724670     SG+        A1 (1)
   86   107           3.5738947509          97.2506202987      PI        B1 (2)
   87   159           3.5738947509          97.2506202987      PI        B2 (3)
   88   201           3.7012003258         100.7147811065      PI        A2 (4)
   89    36           3.7012003258         100.7147811065      PI        A1 (1)
   90    37           3.9011729460         106.1563127427     SG+        A1 (1)
   91   160           4.0227853395         109.4655542077      PH        B2 (3)
   92   108           4.0227853395         109.4655542077      PH        B1 (2)
   93   109           4.1264868220         112.2874150087      PH        B1 (2)
   94   161           4.1264868220         112.2874150087      PH        B2 (3)
   95   162           4.1692974291         113.4523508510      PI        B2 (3)
   96   110           4.1692974291         113.4523508511      PI        B1 (2)
   97    38           4.2086839935         114.5241137565     SG+        A1 (1)
   98    39           4.2212641782         114.8664379863      DE        A1 (1)
   99   202           4.2212641782         114.8664379863      DE        A2 (4)
  100   203           4.2793099086         116.4459426093      DE        A2 (4)
  101    40           4.2793099086         116.4459426093      DE        A1 (1)
  102    41           4.4010165032         119.7577474196     SG+        A1 (1)
  103   163           4.7228489976         128.5152548150      PI        B2 (3)
  104   111           4.7228489976         128.5152548150      PI        B1 (2)
  105    42           4.8859304456         132.9529266220      DE        A1 (1)
  106   204           4.8859304456         132.9529266220      DE        A2 (4)
  107    43           4.9336064322         134.2502561709     SG+        A1 (1)
  108   164           5.0769178445         138.1499579561      PI        B2 (3)
  109   112           5.0769178445         138.1499579562      PI        B1 (2)
  110    44           5.3788328984         146.3654842426     SG+        A1 (1)
  111   165           5.4834559341         149.2124217809      PI        B2 (3)
  112   113           5.4834559341         149.2124217810      PI        B1 (2)
  113   205           5.8585266045         159.4186135936      PI        A2 (4)
  114    45           5.8585266045         159.4186135936      PI        A1 (1)
  115   114           5.9546273304         162.0336472929      PH        B1 (2)
  116   166           5.9546273304         162.0336472929      PH        B2 (3)
  117    46           6.1706402427         167.9116574673     SG+        A1 (1)
  118   206           6.1932720255         168.5274995862      DE        A2 (4)
  119    47           6.1932720255         168.5274995862      DE        A1 (1)
  120   167           6.2183594820         169.2101639849      PI        B2 (3)
  121   115           6.2183594820         169.2101639849      PI        B1 (2)
  122    48           6.3296159884         172.2376074339     SG+        A1 (1)
  123   168           6.3923334557         173.9442364829      PH        B2 (3)
  124   116           6.3923334557         173.9442364829      PH        B1 (2)
  125   207           6.5246215736         177.5439791797      DE        A2 (4)
  126    49           6.5246215736         177.5439791797      DE        A1 (1)
  127    50           6.5728358257         178.8559556786      DE        A1 (1)
  128   208           6.5728358257         178.8559556786      DE        A2 (4)
  129   169           6.9905504066         190.2225472908      PI        B2 (3)
  130   117           6.9905504066         190.2225472908      PI        B1 (2)
  131    51           7.2870567709         198.2908956513     SG+        A1 (1)
  132   170           7.7035105588         209.6231793418      PI        B2 (3)
  133   118           7.7035105588         209.6231793418      PI        B1 (2)
  134    52           8.2884547362         225.5403196197     SG+        A1 (1)
  135    53           9.7717674587         265.9033108140     SG+        A1 (1)
  136   119           9.9759372303         271.4590527478      PI        B1 (2)
  137   171           9.9759372303         271.4590527479      PI        B2 (3)
  138   209          10.6266835675         289.1667608266      PI        A2 (4)
  139    54          10.6266835675         289.1667608266      PI        A1 (1)
  140   120          10.7691627922         293.0438176364      PH        B1 (2)
  141   172          10.7691627922         293.0438176364      PH        B2 (3)
  142    55          10.7749537018         293.2013962979     SG+        A1 (1)
  143    56          11.0036233517         299.4238138121      DE        A1 (1)
  144   210          11.0036233517         299.4238138121      DE        A2 (4)
  145   121          11.0711705063         301.2618653342      PI        B1 (2)
  146   173          11.0711705063         301.2618653342      PI        B2 (3)
  147    57          11.3679632043         309.3380052301     SG+        A1 (1)
  148   174          11.8686760283         322.9630938566      PH        B2 (3)
  149   122          11.8686760283         322.9630938566      PH        B1 (2)
  150   211          12.0658888479         328.3295275032      DE        A2 (4)
  151    58          12.0658888480         328.3295275034      DE        A1 (1)
  152   175          12.5987624941         342.8297565920      PI        B2 (3)
  153   123          12.5987624941         342.8297565920      PI        B1 (2)
  154   212          12.7612874846         347.2522864204      DE        A2 (4)
  155    59          12.7612874846         347.2522864204      DE        A1 (1)
  156    60          12.8955714551         350.9063390273     SG+        A1 (1)
  157   176          13.1299873955         357.2851210573      PI        B2 (3)
  158   124          13.1299873955         357.2851210573      PI        B1 (2)
  159    61          13.9989635900         380.9311654496     SG+        A1 (1)
  160    62          17.5259995486         476.9066931847     SG+        A1 (1)
  161   177          18.9021413790         514.3534161461      PI        B2 (3)
  162   125          18.9021413791         514.3534161465      PI        B1 (2)
  163    63          20.3112082744         552.6960756728     SG+        A1 (1)
  164   213          26.3347939234         716.6061742090      DE        A2 (4)
  165    64          26.3347939234         716.6061742090      DE        A1 (1)
  166   178          26.7469154411         727.8205708349      PI        B2 (3)
  167   126          26.7469154411         727.8205708349      PI        B1 (2)
  168    65          27.2720474787         742.1101400457     SG+        A1 (1)
  169   127          33.6279411912         915.0628007077      PI        B1 (2)
  170   179          33.6279411913         915.0628007084      PI        B2 (3)
  171    66          34.3756733828         935.4096280516     SG+        A1 (1)
  172    67          36.0195257275         980.1411244573     SG+        A1 (1)
  173    68          47.0790199807        1281.0852627913      DE        A1 (1)
  174   214          47.0790199807        1281.0852627914      DE        A2 (4)
  175   180          47.2736786748        1286.3821951485      PI        B2 (3)
  176   128          47.2736786748        1286.3821951485      PI        B1 (2)
  177    69          47.8083157603        1300.9304098608     SG+        A1 (1)
  178    70          63.9145588665        1739.2035661569     SG+        A1 (1)
  179   181          66.4489497722        1808.1678487793      PI        B2 (3)
  180   129          66.4489497722        1808.1678487795      PI        B1 (2)
  181    71          67.4597325111        1835.6726454207     SG+        A1 (1)
  182   130          98.5634916233        2682.0489598035      PH        B1 (2)
  183   182          98.5634916233        2682.0489598035      PH        B2 (3)
  184   215          98.5771269163        2682.4199949892      DE        A2 (4)
  185    72          98.5771269163        2682.4199949892      DE        A1 (1)
  186   183          98.5979735250        2682.9872600521      PI        B2 (3)
  187   131          98.5979735250        2682.9872600522      PI        B1 (2)
  188    73          98.6179994451        2683.5321930418     SG+        A1 (1)
  189   184         103.2902569865        2810.6707843453      PH        B2 (3)
  190   132         103.2902569865        2810.6707843453      PH        B1 (2)
  191    74         103.3067314140        2811.1190763064      DE        A1 (1)
  192   216         103.3067314141        2811.1190763087      DE        A2 (4)
  193   185         103.3508020755        2812.3182999735      PI        B2 (3)
  194   133         103.3508020755        2812.3182999735      PI        B1 (2)
  195    75         103.3541457080        2812.4092848386     SG+        A1 (1)
  196    76         115.0265222723        3130.0307987209      DE        A1 (1)
  197   217         115.0265222723        3130.0307987209      DE        A2 (4)
  198   134         115.2243522667        3135.4140265472      PI        B1 (2)
  199   186         115.2243522667        3135.4140265472      PI        B2 (3)
  200    77         115.5078774292        3143.1291384451     SG+        A1 (1)
  201   135         116.9015387900        3181.0525920647      PI        B1 (2)
  202   187         116.9015387900        3181.0525920653      PI        B2 (3)
  203    78         117.5154370618        3197.7576133073     SG+        A1 (1)
  204    79         122.2063838726        3325.4047654859     SG+        A1 (1)
  205    80         198.5522793688        5402.8821988475      DE        A1 (1)
  206   218         198.5522793688        5402.8821988477      DE        A2 (4)
  207   188         198.6570351432        5405.7327483884      PI        B2 (3)
  208   136         198.6570351432        5405.7327483885      PI        B1 (2)
  209    81         198.9379421773        5413.3766173946     SG+        A1 (1)
  210    82         216.4456722483        5889.7861728192     SG+        A1 (1)
  211   189         224.9105163852        6120.1262920489      PI        B2 (3)
  212   137         224.9105163852        6120.1262920490      PI        B1 (2)
  213    83         225.6973109082        6141.5360594727     SG+        A1 (1)
  214   138         395.3813628564       10758.8738539002      PI        B1 (2)
  215   190         395.3813628564       10758.8738539011      PI        B2 (3)
  216    84         395.9070927951       10773.1796928274     SG+        A1 (1)
  217    85         508.8449229920       13846.3742906785     SG+        A1 (1)
  218    86         895.2783801049       24361.7632507665     SG+        A1 (1)


  VSCF finished.

 @CHECKOUT-I, Total execution time (CPU/WALL):       47.91/       8.40 seconds.
--executable xvscf finished with status     0 in        8.42 seconds (walltime).
 --invoking executable--
/nfs/workspaces/public/cfour_mpi/bin/xvtran
 @GETMEM-I,  Allocated    3814 MB of main memory.
  Full RHF integral transformation
  Transformation of IIII integrals :
  1 pass through the AO integral file was required.
     4497928 AO integrals were read.
     8748724 MO integrals were written to HF2.
  Transformation of IIJJ integrals :
  1 pass through the AO integral file was required.
    10209152 AO integrals were read.
    14515461 MO integrals were written to HF2.
  Transformation of IJIJ integrals :
  1 pass through the AO integral file was required.
    19389670 AO integrals were read.
    27159027 MO integrals were written to HF2.
  Transformation of IJKL integrals :
  1 pass through the AO integral file was required.
    14352678 AO integrals were read.
    18364787 MO integrals were written to HF2.
  Summary of active molecular orbitals: 
------------------------------------------------------------------------
 
  Index      Eigenvalue    Symmetry    Index      Eigenvalue    Symmetry
------------------------------------------------------------------------
     1       -20.6615422        1       110         4.1264868        2
     2       -11.4678183        1       111         4.1692974        2
     3        -1.3615239        1       112         4.7228490        2
     4        -0.7934546        1       113         5.0769178        2
     5        -0.5620585        1       114         5.4834559        2
     6        -0.5449116        2       115         5.9546273        2
     7        -0.5449116        3       116         6.2183595        2
     8         0.0634147        1       117         6.3923335        2
     9         0.0685867        1       118         6.9905504        2
    10         0.1573108        1       119         7.7035106        2
    11         0.2248629        1       120         9.9759372        2
    12         0.2251500        1       121        10.7691628        2
    13         0.2993720        1       122        11.0711705        2
    14         0.3682691        1       123        11.8686760        2
    15         0.4930572        1       124        12.5987625        2
    16         0.5120192        1       125        13.1299874        2
    17         0.5466661        1       126        18.9021414        2
    18         0.7355253        1       127        26.7469154        2
    19         0.7523422        1       128        33.6279412        2
    20         0.8251126        1       129        47.2736787        2
    21         0.8677130        1       130        66.4489498        2
    22         0.8744337        1       131        98.5634916        2
    23         1.1225123        1       132        98.5979735        2
    24         1.4016628        1       133       103.2902570        2
    25         1.5622298        1       134       103.3508021        2
    26         1.6339378        1       135       115.2243523        2
    27         1.7184979        1       136       116.9015388        2
    28         1.8774152        1       137       198.6570351        2
    29         2.0110132        1       138       224.9105164        2
    30         2.0847442        1       139       395.3813629        2
    31         2.1506293        1       140         0.0331022        3
    32         2.2730282        1       141         0.0899004        3
    33         2.3168035        1       142         0.1727330        3
    34         2.4979911        1       143         0.2970157        3
    35         2.6164925        1       144         0.3986852        3
    36         2.7833569        1       145         0.6254086        3
    37         3.2525385        1       146         0.7401906        3
    38         3.7012003        1       147         0.7929661        3
    39         3.9011729        1       148         0.8976067        3
    40         4.2086840        1       149         1.0341976        3
    41         4.2212642        1       150         1.4293199        3
    42         4.2793099        1       151         1.5565141        3
    43         4.4010165        1       152         1.6497654        3
    44         4.8859304        1       153         2.0826479        3
    45         4.9336064        1       154         2.2262170        3
    46         5.3788329        1       155         2.2652748        3
    47         5.8585266        1       156         2.2689845        3
    48         6.1706402        1       157         2.5267329        3
    49         6.1932720        1       158         2.6487099        3
    50         6.3296160        1       159         3.5738948        3
    51         6.5246216        1       160         4.0227853        3
    52         6.5728358        1       161         4.1264868        3
    53         7.2870568        1       162         4.1692974        3
    54         8.2884547        1       163         4.7228490        3
    55         9.7717675        1       164         5.0769178        3
    56        10.6266836        1       165         5.4834559        3
    57        10.7749537        1       166         5.9546273        3
    58        11.0036234        1       167         6.2183595        3
    59        11.3679632        1       168         6.3923335        3
    60        12.0658888        1       169         6.9905504        3
    61        12.7612875        1       170         7.7035106        3
    62        12.8955715        1       171         9.9759372        3
    63        13.9989636        1       172        10.7691628        3
    64        17.5259995        1       173        11.0711705        3
    65        20.3112083        1       174        11.8686760        3
    66        26.3347939        1       175        12.5987625        3
    67        27.2720475        1       176        13.1299874        3
    68        34.3756734        1       177        18.9021414        3
    69        36.0195257        1       178        26.7469154        3
    70        47.0790200        1       179        33.6279412        3
    71        47.8083158        1       180        47.2736787        3
    72        63.9145589        1       181        66.4489498        3
    73        67.4597325        1       182        98.5634916        3
    74        98.5771269        1       183        98.5979735        3
    75        98.6179994        1       184       103.2902570        3
    76       103.3067314        1       185       103.3508021        3
    77       103.3541457        1       186       115.2243523        3
    78       115.0265223        1       187       116.9015388        3
    79       115.5078774        1       188       198.6570351        3
    80       117.5154371        1       189       224.9105164        3
    81       122.2063839        1       190       395.3813629        3
    82       198.5522794        1       191         0.2251500        4
    83       198.9379422        1       192         0.5466661        4
    84       216.4456722        1       193         0.7523422        4
    85       225.6973109        1       194         0.8744337        4
    86       395.9070928        1       195         1.5622298        4
    87       508.8449230        1       196         1.7184979        4
    88       895.2783801        1       197         2.0847442        4
    89         0.0331022        2       198         2.1506293        4
    90         0.0899004        2       199         2.3168035        4
    91         0.1727330        2       200         2.7833569        4
    92         0.2970157        2       201         3.7012003        4
    93         0.3986852        2       202         4.2212642        4
    94         0.6254086        2       203         4.2793099        4
    95         0.7401906        2       204         4.8859304        4
    96         0.7929661        2       205         5.8585266        4
    97         0.8976067        2       206         6.1932720        4
    98         1.0341976        2       207         6.5246216        4
    99         1.4293199        2       208         6.5728358        4
   100         1.5565141        2       209        10.6266836        4
   101         1.6497654        2       210        11.0036234        4
   102         2.0826479        2       211        12.0658888        4
   103         2.2262170        2       212        12.7612875        4
   104         2.2652748        2       213        26.3347939        4
   105         2.2689845        2       214        47.0790200        4
   106         2.5267329        2       215        98.5771269        4
   107         2.6487099        2       216       103.3067314        4
   108         3.5738948        2       217       115.0265223        4
   109         4.0227853        2       218       198.5522794        4
------------------------------------------------------------------------
  -20.6615421732928       -11.4678182884328       -1.36152386784989     
 -0.793454605518009      -0.562058510160649      -0.544911592759779     
 -0.544911592759771       6.341466076839282E-002  6.858668655747766E-002
  0.157310752139619       0.224862856700045       0.225149993797320     
  0.299372000692451       0.368269064385615       0.493057225321628     
  0.512019205278883       0.546666090038512       0.735525300506377     
  0.752342171166350       0.825112561838412       0.867713016882871     
  0.874433678149043        1.12251231916895        1.40166278254439     
   1.56222978653382        1.63393776674558        1.71849789654309     
   1.87741523510535        2.01101321471518        2.08474418998509     
   2.15062930662874        2.27302817512063        2.31680354533994     
   2.49799112385388        2.61649253416308        2.78335689924598     
   3.25253851177035        3.70120032583592        3.90117294597877     
   4.20868399349605        4.22126417822250        4.27930990856200     
   4.40101650324913        4.88593044563688        4.93360643218524     
   5.37883289839047        5.85852660448025        6.17064024268978     
   6.19327202549356        6.32961598835690        6.52462157362074     
   6.57283582570925        7.28705677092718        8.28845473617680     
   9.77176745868775        10.6266835675338        10.7749537018352     
   11.0036233516925        11.3679632043303        12.0658888479529     
[...]
 Convergence information after    14 iterations: 
 Largest element of residual vector : -0.10526617E-05.
 Largest element of DIIS residual   : -0.64851101E-06.
 Convergence information after    15 iterations: 
 Largest element of residual vector : -0.46055267E-06.
 Largest element of DIIS residual   : -0.29732589E-06.
 Convergence information after    16 iterations: 
 Largest element of residual vector : -0.27535879E-06.
 Largest element of DIIS residual   : -0.11918279E-06.
 Convergence information after    17 iterations: 
 Largest element of residual vector : -0.68490448E-07.
 Largest element of DIIS residual   :  0.26815184E-07.
 Perturbed amplitude equations converged in    17 iterations.
  Dominant contributions to perturbed wavefunction:
    7    7  140   28   0.2464334768 ABAB
    7    7   28  140   0.2464334768 ABAB
    7    7  140   39  -0.2183719786 ABAB
    7    7   39  140  -0.2183719786 ABAB
    7    7  140   54  -0.1714819489 ABAB
    7    7   54  140  -0.1714819489 ABAB
    7    6   28   89   0.1567644987 ABAB
    6    7   89   28   0.1567644987 ABAB
    7    7  140   21  -0.1490611499 ABAB
    7    7   21  140  -0.1490611499 ABAB
    7    7  140   45   0.1443881038 ABAB
    7    7   45  140   0.1443881038 ABAB
    7    7  140   20  -0.1415804713 ABAB
    7    7   20  140  -0.1415804713 ABAB
    7    6   39   89  -0.1395207358 ABAB
    6    7   89   39  -0.1395207358 ABAB
    7    7  141   28   0.1353302028 ABAB
    7    7   28  141   0.1353302028 ABAB
    7    7  140   24   0.1275132950 ABAB
    7    7   24  140   0.1275132950 ABAB
  norm of converged amps    1.90889158149604     
 Starting iterative solution of the perturbed Lambda equations.
 The DIIS procedure is used to accelerate convergence.
 Convergence criterion is 10**(-7).
 Maximum number of iterations is 100.
 Convergence information after     1 iterations: 
 Largest element of residual vector :  0.63271797E-01.
 Largest element of DIIS residual   :  0.63271797E-01.
 Convergence information after     2 iterations: 
 Largest element of residual vector : -0.12413715E-01.
 Largest element of DIIS residual   : -0.83776601E-02.
 Convergence information after     3 iterations: 
 Largest element of residual vector :  0.56677787E-02.
 Largest element of DIIS residual   :  0.51646377E-02.
 Convergence information after     4 iterations: 
 Largest element of residual vector :  0.35802140E-02.
 Largest element of DIIS residual   :  0.31295181E-02.
 Convergence information after     5 iterations: 
 Largest element of residual vector :  0.26082422E-02.
 Largest element of DIIS residual   :  0.16013339E-02.
 Convergence information after     6 iterations: 
 Largest element of residual vector :  0.10796889E-02.
 Largest element of DIIS residual   :  0.45275798E-03.
 Convergence information after     7 iterations: 
 Largest element of residual vector :  0.44085734E-03.
 Largest element of DIIS residual   : -0.16027358E-03.
 Convergence information after     8 iterations: 
 Largest element of residual vector :  0.10818994E-03.
 Largest element of DIIS residual   :  0.81390310E-04.
 Convergence information after     9 iterations: 
 Largest element of residual vector :  0.49357546E-04.
 Largest element of DIIS residual   : -0.13481141E-04.
 Convergence information after    10 iterations: 
 Largest element of residual vector : -0.11048650E-04.
 Largest element of DIIS residual   : -0.59053602E-05.
 Convergence information after    11 iterations: 
 Largest element of residual vector : -0.34341877E-05.
 Largest element of DIIS residual   : -0.22556787E-05.
 Convergence information after    12 iterations: 
 Largest element of residual vector : -0.21429531E-05.
 Largest element of DIIS residual   : -0.17159737E-05.
 Convergence information after    13 iterations: 
 Largest element of residual vector : -0.12692538E-05.
 Largest element of DIIS residual   : -0.10162398E-05.
 Convergence information after    14 iterations: 
 Largest element of residual vector : -0.95035035E-06.
 Largest element of DIIS residual   : -0.74077133E-06.
 Convergence information after    15 iterations: 
 Largest element of residual vector : -0.51658567E-06.
 Largest element of DIIS residual   : -0.32800835E-06.
 Convergence information after    16 iterations: 
 Largest element of residual vector : -0.29706207E-06.
 Largest element of DIIS residual   : -0.14303907E-06.
 Convergence information after    17 iterations: 
 Largest element of residual vector : -0.88950033E-07.
 Largest element of DIIS residual   :  0.38271556E-07.
 Perturbed Lambda equations converged in    17 iterations.
  Dominant contributions to perturbed wavefunction:
    7    7  140   28   0.2220850338 ABAB
    7    7   28  140   0.2220850338 ABAB
    7    7  140   39  -0.1943458579 ABAB
    7    7   39  140  -0.1943458579 ABAB
    7    7  140   54  -0.1557730849 ABAB
    7    7   54  140  -0.1557730849 ABAB
    7    6   28   89   0.1387717641 ABAB
    6    7   89   28   0.1387717641 ABAB
    7    7  140   21  -0.1335840671 ABAB
    7    7   21  140  -0.1335840671 ABAB
    7    7  140   45   0.1283202614 ABAB
    7    7   45  140   0.1283202614 ABAB
    7    7  140   20  -0.1249429047 ABAB
    7    7   20  140  -0.1249429047 ABAB
    7    6   39   89  -0.1220341466 ABAB
    6    7   89   39  -0.1220341466 ABAB
    7    7  141   28   0.1206355011 ABAB
    7    7   28  141   0.1206355011 ABAB
    7    7  140   57   0.1120268261 ABAB
    7    7   57  140   0.1120268261 ABAB
        The DBOC first-order density matrix is being calculated 
             (Symmetry block 3, perturbation   2)
 term   4.04677342861023     
 final tnorm  0.846631012130570     
  norm contr. I: |<0|L dT/dx|0>|^2   0.000000000000000E+000
  norm contr. II: <0|[nabla(1+L)e-T][nabla e^T]|0>   4.04677342861023     
  total norm contribution   4.04677342861023     
 oo  8.085430956626704E-003
 vv  -30.3331617858229     
 vo  6.953860671728075E-002
  Correlated perturbed 1-el contribution to DBOC  -30.2555377481490       cm**-1
  SUM_I |dc_I/dx|^2 contribution to DBOC   15.2349268057166       cm**-1
 
 
  The total diagonal Born-Oppenheimer correction (DBOC) is:      0.0041392654 a.u.
  The total diagonal Born-Oppenheimer correction (DBOC) is:        908.463755 cm-1
 
 Total CC energy including DBOC  -113.183865649706     
 First-order density matrix is being calculated  (Symmetry block 3, perturbation   2)
 Calculation of the contributions of <pq||rs> to dI(i,j)/dx required   1.4 seconds.
 Calculation of the contributions of <pq||rs> to dI(a,b)/dx required  12.9 seconds.
 Calculation of the contributions of <pq||rs> to dI(i,a)/dx required   8.7 seconds.
 First-order Z-vector equations are solved for 1 perturbation.
 Convergence reached after  20 iterations.
        U*G(pq,rs) contribution is being calculated
             (Symmetry block 3, perturbation   2)

 CCSD contribution to force constants 

        0.0000000000        0.0000000000        0.0000000000
        0.0000000000        0.0000000000        0.0000000000
        0.0000000000        0.0000000000        0.0000000000
        0.0000000000        0.0000000000        0.0000000000
        0.0000000000        0.0000000000        0.0000000000
        0.0000000000        0.0000000000        0.0000000000
        0.0000000000        0.0000000000        0.0000000000
        0.0000000000        0.0000000000        0.0000000000
        0.0000000000        0.0000000000        0.0000000000
        0.0000000000        0.0000000000        0.0000000000
        0.0000000000        0.0000000000        0.0000000000
        0.0000000000        0.3475052621       -0.3475052621

 CCSD contribution to dipole derivatives 

        0.0000000000        0.0000000000        0.0000000000
        0.0000000000        0.0000000000        0.0000000000
        0.0000000000        0.0000000000        0.0000000000
        0.0000000000        0.0000000000       -0.0542305000
        0.0000000000        0.0000000000        0.0000000000
        0.0000000000        0.0000000000        0.0000000000
 @CHECKOUT-I, Total execution time (CPU/WALL):      984.95/     199.93 seconds.
--executable xsdcc finished with status     0 in      199.98 seconds (walltime).
 --invoking executable--
/nfs/workspaces/public/cfour_mpi/bin/xanti
 @GETMEM-I,  Allocated    3814 MB of main memory.
 CCSD MO derivative gammas will be sorted to Mulliken order.
 @CHECKOUT-I, Total execution time (CPU/WALL):        8.37/       9.88 seconds.
--executable xanti finished with status     0 in        9.91 seconds (walltime).
 --invoking executable--
/nfs/workspaces/public/cfour_mpi/bin/xbcktrn
 @GETMEM-I,  Allocated    3814 MB of main memory.
 CCSD MO derivative gammas will be transformed to the AO basis.
 @CHECKOUT-I, Total execution time (CPU/WALL):       16.69/       4.97 seconds.
--executable xbcktrn finished with status     0 in        5.00 seconds (walltime).
 --invoking executable--
/nfs/workspaces/public/cfour_mpi/bin/xvdint
 @GETMEM-I,  Allocated    3814 MB of main memory.
 One- and two-electron integral derivatives are calculated
 for RHF-CC/MBPT hessians and dipole derivatives.
 Spherical gaussians are used.
  magnet F F
                    8722  records have been written to the Sort file.
  Total length of Sort file :             178609116  words.
 Evaluation of 2el integral derivatives

                      Two-electron integral gradient
                      ------------------------------

                         C #1 z     0.0000000000
                         O #2 z     0.0000000000


 C #1       0.0000000000           -0.0642380961            0.0000000000
 O #2       0.0000000000            0.0642380961            0.0000000000


 Evaluation of 2e integral derivatives required  253.59 seconds.
  contribution to Hessian
        0.0000000000        0.0000000000        0.0000000000
        0.0000000000       -0.0642380961        0.0642380961
 @CHECKOUT-I, Total execution time (CPU/WALL):      253.58/      56.26 seconds.
--executable xvdint finished with status     0 in       56.28 seconds (walltime).
 --invoking executable--
/nfs/workspaces/public/cfour_mpi/bin/xanti
 @GETMEM-I,  Allocated    3814 MB of main memory.
 CCSD MO gammas will be sorted to Mulliken order.
 @CHECKOUT-I, Total execution time (CPU/WALL):       10.43/       9.03 seconds.
--executable xanti finished with status     0 in        9.06 seconds (walltime).
 --invoking executable--
/nfs/workspaces/public/cfour_mpi/bin/xbcktrn
 @GETMEM-I,  Allocated    3814 MB of main memory.
 CCSD MO gammas will be transformed to the AO basis.
 @CHECKOUT-I, Total execution time (CPU/WALL):       23.09/       3.54 seconds.
--executable xbcktrn finished with status     0 in        3.57 seconds (walltime).
 --invoking executable--
/nfs/workspaces/public/cfour_mpi/bin/xvdint
 @GETMEM-I,  Allocated    3814 MB of main memory.
 One- and two-electron integral derivatives are calculated
 for RHF-CC/MBPT hessians and dipole derivatives.
 Spherical gaussians are used.
  magnet F F

                     Kinetic energy integral gradient
                     --------------------------------

                         C #1 z    -0.8272382323
                         O #2 z     0.8272382323


 C #1       0.0000000000            0.0000000000           -0.8272382323
 O #2       0.0000000000            0.0000000000            0.8272382323



                   Nuclear attraction integral gradient
                   ------------------------------------

                         C #1 z    17.1944224785
                         O #2 z   -17.1944224785


 C #1       0.0000000000            0.0000000000           17.1944224785
 O #2       0.0000000000            0.0000000000          -17.1944224785



                      Reorthonormalization gradient
                      -----------------------------

                         C #1 z     0.0000000000
                         O #2 z     0.0000000000


 C #1       0.0000000000            0.0000000000            0.0000000000
 O #2       0.0000000000            0.0000000000            0.0000000000



                     Kinetic energy integral Hessian
                     -------------------------------


           Symmetry 1

           C #1 z      O #2 z

 C #1 z    0.826658
 O #2 z   -0.826658    0.826658


           Symmetry 2

           C #1 x      O #2 x

 C #1 x   -0.775958
 O #2 x    0.775958   -0.775958


           Symmetry 3

           C #1 y      O #2 y

 C #1 y   -0.775958
 O #2 y    0.775958   -0.775958




           C #1 x      C #1 y      C #1 z      O #2 x      O #2 y      O #2 z

 C #1 x   -0.775958
 C #1 y    0.000000   -0.775958
 C #1 z    0.000000    0.000000    0.826658

 O #2 x    0.775958    0.000000    0.000000   -0.775958
 O #2 y    0.000000    0.775958    0.000000    0.000000   -0.775958
 O #2 z    0.000000    0.000000   -0.826658    0.000000    0.000000    0.826658




                   Nuclear attraction integral Hessian
                   -----------------------------------


           Symmetry 1

           C #1 z      O #2 z

 C #1 z  -10.652461
 O #2 z   10.652461  -10.652461


           Symmetry 2

           C #1 x      O #2 x

 C #1 x   11.174949
 O #2 x  -11.174949   11.174949


           Symmetry 3

           C #1 y      O #2 y

 C #1 y   11.174949
 O #2 y  -11.174949   11.174949




           C #1 x      C #1 y      C #1 z      O #2 x      O #2 y      O #2 z

 C #1 x   11.174949
 C #1 y    0.000000   11.174949
 C #1 z    0.000000    0.000000  -10.652461

 O #2 x  -11.174949    0.000000    0.000000   11.174949
 O #2 y    0.000000  -11.174949    0.000000    0.000000   11.174949
 O #2 z    0.000000    0.000000   10.652461    0.000000    0.000000  -10.652461




                Highest order reorthonormalization Hessian
                ------------------------------------------


           Symmetry 1

           C #1 z      O #2 z

 C #1 z    0.000000
 O #2 z    0.000000    0.000000


           Symmetry 2

           C #1 x      O #2 x

 C #1 x    0.000000
 O #2 x    0.000000    0.000000


           Symmetry 3

           C #1 y      O #2 y

 C #1 y    0.000000
 O #2 y    0.000000    0.000000




           C #1 x      C #1 y      C #1 z      O #2 x      O #2 y      O #2 z




                Electronic contributions to dipole moment
                -----------------------------------------

                               au             Debye

                    z      0.27627950      0.70223257

  Conversion factor used: 1 a.u. =   2.54174691 Debye 



   Electronic contributions to static part of dipole moment derivatives
   --------------------------------------------------------------------


                     Total dipole moment derivatives
                     -------------------------------


           Symmetry 1
                              Ez

               C #1 z    -5.64928371
               O #2 z    -8.35071629

           Symmetry 2
                              Ex

               C #1 x    -5.68161327
               O #2 x    -8.31838673

           Symmetry 3
                              Ey

               C #1 y    -5.68161327
               O #2 y    -8.31838673



                       Ex          Ey          Ez

      C #1    x   -5.681613    0.000000    0.000000
      C #1    y    0.000000   -5.681613    0.000000
      C #1    z    0.000000    0.000000   -5.649284

      O #2    x   -8.318387    0.000000    0.000000
      O #2    y    0.000000   -8.318387    0.000000
      O #2    z    0.000000    0.000000   -8.350716

 Evaluation of 1e integral derivatives required    1.68 seconds.
                    8815  records have been written to the Sort file.
  Total length of Sort file :             180513570  words.
 Evaluation of 2el integral derivatives

                      Two-electron integral gradient
                      ------------------------------

                         C #1 z    -8.8046891854
                         O #2 z     8.8046891854


 C #1       0.0000000000            0.0000000000           -8.8046891854
 O #2       0.0000000000            0.0000000000            8.8046891854


 Evaluation of 2e integral derivatives required  548.49 seconds.

                            Molecular gradient
                            ------------------

                         C #1 z     0.6707489374
                         O #2 z    -0.6707489374


 C #1       0.0000000000            0.0000000000            0.6707489374
 O #2       0.0000000000            0.0000000000           -0.6707489374


  Molecular gradient norm 0.949E+00

                            Molecular hessian
                            -----------------


           Symmetry 1

           C #1 z      O #2 z

 C #1 z   31.141354
 O #2 z  -31.141354   31.141354


           Symmetry 2

           C #1 x      O #2 x

 C #1 x    0.003517
 O #2 x   -0.003517    0.003517


           Symmetry 3

           C #1 y      O #2 y

 C #1 y    0.003517
 O #2 y   -0.003517    0.003517




           C #1 x      C #1 y      C #1 z      O #2 x      O #2 y      O #2 z

 C #1 x    0.003517
 C #1 y    0.000000    0.003517
 C #1 z    0.000000    0.000000   31.141354

 O #2 x   -0.003517    0.000000    0.000000    0.003517
 O #2 y    0.000000   -0.003517    0.000000    0.000000    0.003517
 O #2 z    0.000000    0.000000  -31.141354    0.000000    0.000000   31.141354




                           Total dipole moment
                           -------------------

                               au             Debye

                    z      0.27340309      0.69492146

  Conversion factor used: 1 a.u. =   2.54174691 Debye 



                     Total dipole moment derivatives
                     -------------------------------


           Symmetry 1
                              Ez

               C #1 z     0.66940054
               O #2 z    -0.66940054

           Symmetry 2
                              Ex

               C #1 x     0.10696626
               O #2 x    -0.10696626

           Symmetry 3
                              Ey

               C #1 y     0.10696626
               O #2 y    -0.10696626



                       Ex          Ey          Ez

      C #1    x    0.106966    0.000000    0.000000
      C #1    y    0.000000    0.106966    0.000000
      C #1    z    0.000000    0.000000    0.669401

      O #2    x   -0.106966    0.000000    0.000000
      O #2    y    0.000000   -0.106966    0.000000
      O #2    z    0.000000    0.000000   -0.669401

 @CHECKOUT-I, Total execution time (CPU/WALL):      550.16/      94.26 seconds.
--executable xvdint finished with status     0 in       94.29 seconds (walltime).
 --invoking executable--
/nfs/workspaces/public/cfour_mpi/bin/xjoda
  @GTFLGS-I, Hessian will be transformed to curvilinear coordinates.
  @GTFLGS-I, Hessian will be transformed to curvilinear coordinates.
  igrd and ihes are                      0                     1
  gradient from JOBARC 
   0.000000000000000   0.000000000000000   0.670748937368866
   0.000000000000000   0.000000000000000  -0.670748937368866
 
  @PROJFCM-I, Projecting force constant matrix onto totally symmetric subspace.
  Largest difference between matrix elements of symmetrized
  and unsymmetrized FCM :    -0.5845934847E-11.
  read isotopes from ZMAT file 
 
  Summary of diagonal Born-Oppenheimer correction at the correlated level
  The total diagonal Born-Oppenheimer correction (DBOC) is:      0.0041392654 a.u.
  The total diagonal Born-Oppenheimer correction (DBOC) is:        908.463755 cm-1
  The total diagonal Born-Oppenheimer correction (DBOC) is:            10.868 kJ/mole
  hellooooooo 
  readis is  F
 
 @CHECKOUT-I, Total execution time (CPU/WALL):        0.01/       0.01 seconds.
--executable xjoda finished with status     0 in        0.04 seconds (walltime).
  The final electronic energy is      -113.183865649706277 a.u. 
  This computation required                         2121.18 seconds (walltime).
