 --invoking executable--
/nfs/workspaces/public/cfour_mpi/bin/xjoda


   *************************************************************************
         <<<     CCCCCC     CCCCCC   |||     CCCCCC     CCCCCC   >>>
       <<<      CCC        CCC       |||    CCC        CCC         >>>
      <<<      CCC        CCC        |||   CCC        CCC            >>>
    <<<        CCC        CCC        |||   CCC        CCC              >>>
      <<<      CCC        CCC        |||   CCC        CCC            >>>
       <<<      CCC        CCC       |||    CCC        CCC         >>>
         <<<     CCCCCC     CCCCCC   |||     CCCCCC     CCCCCC   >>>
   *************************************************************************

     ****************************************************************
     * CFOUR Coupled-Cluster techniques for Computational Chemistry *
     ****************************************************************
 

   Department of Chemistry                Institut fuer Physikalische Chemie
   University of Florida                  Universitaet Mainz
   Gainesville, FL 32611, USA             D-55099 Mainz, Germany

   Department of Chemistry                Fakultaet fuer Chemie und Biowiss.
   Johns Hopkins University               Karlsruher Institut fuer Technologie
   Baltimore, MD 21218, USA               D-76131 Karlsruhe, Germany

   Department of Chemistry                Department of Physical Chemistry
   Southern Methodist University          Eotvos Lorand University
   Dallas, TX 75275, USA                  H-1053 Budapest, Hungary

 
                       Version 2.1
 
                     vincent.theory.phys.ucl.ac.uk                     
                     Tue 25 Feb 05:10:06 GMT 2025                      
                     integer*8 version is running
 
********************************************************************************
*                          Input from ZMAT file                                *
********************************************************************************
Carbon Monoxide DBOC calculation                                                
C                                                                               
O 1 r                                                                           
                                                                                
r=1.2413793103448276                                                            
                                                                                
                                                                                
*CFOUR(CALC=CCSD,BASIS=AUG-PCVQZ,SCF_CONV=10                                    
CC_CONV=14,DBOC=ON,MEMORY=500000000                                             
ZFIELD=200)                                                                     
                                                                                
%isotopes                                                                       
12                                                                              
16                                                                              
********************************************************************************
  @GTFLGS-I, Hessian will be transformed to curvilinear coordinates.
    -------------------------------------------------------------------
                    CFOUR Control Parameters 
    -------------------------------------------------------------------
        External           Internal           Value            Units
          Name               Name
    -------------------------------------------------------------------
       ABCDTYPE             IABCDT         STANDARD    [  0]    ***   
       ANHARMONIC           IANHAR         OFF         [  0]    ***   
       ANH_ALGORIT          IANALG         STANDARD    [  0]    ***   
       ANH_DERIVAT          IANDER         SECOND      [  1]    ***   
       ANH_MODE             ANHMOD         VIBRATION   [  0]    ***   
       ANH_STEPSIZ          ICUBST             50000          x 10-6  
       ANH_SYMMETR          IANHSM         ABELIAN     [  0]    ***   
       AO_LADDERS           IAOLAD         SINGLEPASS  [  1]    ***   
       AV_SCF               IAVSCF         OFF         [  0]    ***   
       BASIS                IBASIS         AUG-PCVQZ   [ 52]    ***   
       BOTHVECTORS          BOTHVC         OFF         [  0]    ***   
       BOX_POTENT           IPIAB          OFF         [  0]    ***   
       BREIT                IBREIT         OFF         [  0]    ***   
       BRUCK_CONV           IBRTOL          10D-  4             ***   
       BRUECKNER            IBRKNR         OFF         [  0]    ***   
       BUFFERSIZE           IBUFFS              4096            ***   
       CACHE_RECS           ICHREC             10               ***   
       CALCLEVEL            ICLLVL         CCSD        [ 10]    ***   
       CCORBOPT             ICCORB         OFF         [  0]  x 0.01  
       CC_CONV              ICCCNV          10D- 14             ***   
       CC_EXPORDER          ICCEOR              5               ***   
       CC_EXTRAPOL          ICCEXT         DIIS        [  1]    ***   
       CC_GUESS             ICCGES         MP2         [  0]    ***   
       CC_MAXCYC            ICCCYC            100              cycles 
       CC_PROGRAM           ICCPRO         VCC         [  0]    ***   
       CHARGE               ICHRGE              0               ***   
       CHOLESKY             ICHOLE         OFF         [  0]    ***   
       CIS_CONV             ICISTL              5               ***   
       COMM_SIZE            IPSIZE            ***               ***   
       CONSTANT             ICONST         OLD         [  1]    ***   
       CONTINUUM            ICONTU         NONE        [  0]    ***   
       CONTRACTION          ICNTYP         GENERAL     [  1]    ***   
       COORDINATES          ICOORD         INTERNAL    [  0]    ***   
       CPHF_CONVER          ICPHFT          10D- 16             ***   
       CPHF_MAXCYC          ICPHFC             64              cycles 
       CUBIC                ICUBIC         OFF         [  0]    ***   
       CURVILINEAR          ICURVY         ON          [  1]    ***   
       DBOC                 IDBOC          ON          [  1]    ***   
       DCT                  IDCT           OFF         [  0]    ***   
       DERIV_LEV            IDRLVL         SECOND      [  2]    ***   
       DEVMEM_SIZE          IDVMEM          50000000           MByte  
       DIAG_MRCC            IEOMST          10D-  0             ***   
       DIFF_TYPE            IDIFTY         RELAXED     [  0]    ***   
       DIRECT               IDIRCT         OFF         [  0]    ***   
       DROPMO               IDRPMO      NONE         
       ECP                  IECP           OFF         [  0]    ***   
       EIGENVECTOR          IVEC                1               ***   
       EL_ANHARM            IELANH         OFF         [  0]    ***   
       EOMFOLLOW            IEOMSR         ENERGY      [  0]    ***   
       EOMIP                IEOMIP         OFF         [  0]    ***   
       EOMLEVEL             HBARFM         SAME        [  0]    ***   
       EOM_MRCC             IMRCCE         NEW         [  1]    ***   
       EOM_NONIT            EOMNON         OFF         [  0]    ***   
       EOM_NSING            IEOMSI          10D-  0             ***   
       EOM_NSTATES          IMRCCD         DAVIDSON    [  0]    ***   
       EOM_NTRIP            IEOMTR          10D-  0             ***   
       EOM_ORDER            IEXORD         ENERGY      [  0]    ***   
       EOM_PROPSTA          IEOMST              0               ***   
       ESTATE_CONV          IEXTOL          10D-  5             ***   
       ESTATE_DIAG          IEXDIG         ITERATIVE   [  0]    ***   
       ESTATE_LOCK          IESLOC         ON          [  1]    ***   
       ESTATE_MAXC          IEXMXC             40               ***   
       ESTATE_PROP          IEXPRP         OFF         [  0]    ***   
       EVAL_HESS            IRECAL              0            # of cyc.
       EXCITATION           IEXCIT              0               ***   
       EXCITE               IEXCIT         NONE        [  0]    ***   
       EXTERN_POT           IEXPOT         OFF         [  0]    ***   
       FCGRADNEW            IFCGNW         OFF         [  0]    ***   
       FC_FIELD             IFINFC              0             x 10-6  
       FD_CALTYPE           IFDCAL         GRADONLY    [  0]    ***   
       FD_PROJECT           IFDPRJ         OFF         [  1]    ***   
       FD_STEPSIZE          IDISFD              0            10-4 bohr
       FD_USEGROUP          IFDGRP         FULL        [  0]    ***   
       FILE_RECSIZ          IFLREC              4096           words  
       FINITE_PERT          IFIPER              0             x 10-6  
       FIXGEOM              IFIXGM         OFF         [  0]    ***   
       FOCK                 IFOCK          AO          [  1]    ***   
       FREQ_ALGORI          IVIALG         STANDARD    [  0]    ***   
       FROZEN_CORE          IFROCO         OFF         [  0]    ***   
       GAMMA_ABCD           IGABCD         STORE       [  0]    ***   
       GAMMA_ABCI           IGABCI         STORE       [  0]    ***   
       GENBAS_1             IGNBS1              0               ***   
       GENBAS_2             IGNBS2              0               ***   
       GENBAS_3             IGNBS3              0               ***   
       GENBAS_4             IGNBS4              0               ***   
       GEO_CONV             ICONTL              5              H/bohr 
       GEO_MAXCYC           IOPTCY             50               ***   
       GEO_MAXSTEP          IMXSTP            300            millibohr
       GEO_METHOD           INR            SINGLE_POINT[  5]    ***   
       GIAO                 IGIAO          OFF         [  1]    ***   
       GIMIC                IGIMIC         OFF         [  0]    ***   
       GRID                 IGRID          OFF         [  0]    ***   
       GRID_ALGO            IGALGO         SERIAL      [  0]    ***   
       GUESS                IGUESS         MOREAD      [  0]    ***   
       HBAR                 IHBAR          OFF         [  0]    ***   
       HESS_TYPE            IHESTP         SCF         [  0]    ***   
       HF2_FILE             IHF2Fl         USE         [  1]    ***   
       HFSTABILITY          ISTABL         OFF         [  0]    ***   
       INCORE               INCORE         OFF         [  0]    ***   
       INPUT_MRCC           IMRCC          ON          [  1]    ***   
       INTEGRALS            INTTYP         VMOL        [  1]    ***   
       JODA_PRINT           IJPRNT              0               ***   
       KEYWORD_OUT          IDMPKW         NO          [  0]    ***   
       LINDEP_TOL           ILINDP              8               ***   
       LINEQ_CONV           IZTACN          10D-  7           cycles  
       LINEQ_EXPOR          ILMAXD              5               ***   
       LINEQ_MAXCY          ILMAXC            100               ***   
       LINEQ_TYPE           ILTYPE         DIIS        [  1]    ***   
       LOCK_ORBOCC          ILOCOC         OFF         [  0]    ***   
       MEMORY_SIZE          IMEMSZ         500000000           words  
       MEM_UNIT             IMEMU          INTEGERWORDS[  0]    ***   
       MRCC                 IMRCCC         OFF         [  0]    ***   
       MULTIPLICTY          IMULTP              1               ***   
       NACOUPLING           IVCOUP         OFF         [  0]    ***   
       NEGEVAL              IDIE           ABORT       [  0]    ***   
       NEWNORM              INEWNO         OFF         [  0]    ***   
       NON-HF               INONHF         OFF         [  0]    ***   
       NTOP_TAMP            ITOPT2             15               ***   
       NUC_MODEL            INUCMO         POINT       [  0]    ***   
       OCCUPATION           IOCCU   ESTIMATED BY SCF 
       OPEN-SHELL           IOPEN          SPIN-ORBITAL[  0]    ***   
       OPTVIB               IOPTVB         OFF         [  0]    ***   
       ORBITALS             IORBTP         STANDARD    [  0]    ***   
       PARALLEL             IPARAL         ON          [  1]    ***   
       PARA_INT             IPINTS         ON          [  1]    ***   
       PARA_PRINT           IPPRIN              0               ***   
       PERT_ORB             IPTORB         STANDARD    [  0]    ***   
       POINTS               IGRDFD              0               ***   
       PRINT                IPRNT               0               ***   
       PROPS                IPROPS         OFF         [  0]    ***   
       PROP_INTEGR          IINTYP         INTERNAL    [  0]    ***   
       PSI                  IPSI           OFF         [  0]    ***   
       QC_ALG               IQCALG         FLM         [  0]    ***   
       QC_LINALG            IQCLIN         TRIDIAG     [  2]    ***   
       QC_MAXCYC            IQCMAX          10D-100           cycles  
       QC_MAXSCFCY          IQCMSC          10D- 15           cycles  
       QC_RTRUST            IQCRTR          10D-  0           x 10-3  
       QC_SKIPSCF           IQCSKI         OFF         [  0]    ***   
       QC_START             IQCSTA          10D-  1             ***   
       QRHFGUESS            IQGUES         OFF         [  0]    ***   
       QUARTIC              IQUART         OFF         [  0]    ***   
       RAMAN_INT            IRAMIN         OFF         [  0]    ***   
       RAMAN_ORB            IRAMRE         UNRELAXED   [  0]    ***   
       RDO                  IRDOFM         ON          [  1]    ***   
       REDUCE_REPR          REDREP         Ir          [  0]    ***   
       REFERENCE            IREFNC         RHF         [  0]    ***   
       RELATIVIST           IRELAT         OFF         [  0]    ***   
       RELAX_DENS           IRDENS         ON          [  1]    ***   
       RESET_FLAGS          IRESET         OFF         [  0]    ***   
       RESTART_CC           ICCRES         OFF         [  0]    ***   
       ROT_EVEC             ROTVEC              0               ***   
       SAVE_INTS            ISVINT         OFF         [  0]    ***   
       SCALE_ON             ISTCRT              0               ***   
       SCF_CONV             ISCFCV          10D- 10             ***   
       SCF_DAMPING          IDAMP               0             x 10-3  
       SCF_EXPORDE          IRPPOR              6               ***   
       SCF_EXPSTAR          IRPPLS              8               ***   
       SCF_EXTRAPO          IRPP           ON          [  1]    ***   
       SCF_MAXCYC           ISCFCY            150              cycles 
       SCF_NOSTOP           ISCFST         OFF         [  0]    ***   
       SCF_PRINT            ISCFPR              0               ***   
       SCF_PROG             ISCFPR         SCF         [  0]    ***   
       SD_FIELD             IFINSD              0             x 10-6  
       SOPERT               IPERSO         OFF         [  0]    ***   
       SPHERICAL            IDFGHI         ON          [  1]    ***   
       SPINORBIT            ISOCAL         OFF         [  0]    ***   
       SPINROTATIO          ISRCON         OFF         [  0]    ***   
       SPIN_FLIP            ISPFLP         OFF         [  0]    ***   
       SPIN_ORBIT           ISPORB         OFF         [  0]    ***   
       SPIN_SCAL            ISCSMP         OFF         [  0]    ***   
       STEEPSCALE           ISTPSC              1000          x 10-3  
       SUBGROUP             ISUBGP         DEFAULT     [  0]    ***   
       SUBGRPAXIS           ISBXYZ         X           [  0]    ***   
       SYMMETRY             ISYM           ON          [  0]    ***   
       SYM_CHECK            ISYMCK         OVERRIDE    [  1]    ***   
       T3_EXTRAPOL          IT3EXT         OFF         [  0]    ***   
       T4_EXTRAPOL          IT4EXP         OFF         [  0]    ***   
       TAMP_SUM             IEVERY              5               ***   
       TESTSUITE            ITESTS         OFF         [  0]    ***   
       THERMOCH             ITHERM         OFF         [  0]    ***   
       TOL_CHOLESK          ITOLCH          10D-  4             ***   
       TRANGRAD             IRESRM         OFF         [  0]    ***   
       TRANS_INV            ITRAIN         IGNORE      [  1]    ***   
       TREAT_PERT           ITREAT         SIMULTANEOUS[  0]    ***   
       TRIP_ALGORI          ITRALG         NORMAL      [  0]    ***   
       UIJ_THRESHO          IUIJTH              1               ***   
       UNITS                IUNITS         ANGSTROM    [  0]    ***   
       UNOS                 IUNOS          OFF         [  0]    ***   
       UPDATE_HESS          IHUPDT         ON          [  1]    ***   
       VIBPHASE             ISETPH         STANDARD    [  0]    ***   
       VIBRATION            IVIB           ANALYTIC    [  1]    ***   
       VIB_ALGORIT          IGEALG         STANDARD    [  0]    ***   
       VNATORB              IVNORB         OFF         [  0]    ***   
       VTRAN                IVTRAN         FULL/PARTIAL[  0]    ***   
       XFIELD               IXEFLD              0             x 10-6  
       XFORM_TOL            IXFTOL          10D- 11             ***   
       YFIELD               IYEFLD              0             x 10-6  
       ZFIELD               IZEFLD            200             x 10-6  
       ZSCALE_EXP           IZEXPS         OFF         [  0]    ***   
    -------------------------------------------------------------------
   2 entries found in Z-matrix 
   Job Title : Carbon Monoxide DBOC calculation                                                
   There are  1 unique internal coordinates.
   Of these,  0 will be optimized.
   User supplied Z-matrix: 
--------------------------------------------------------------------------------
       SYMBOL    BOND      LENGTH    ANGLE     ANGLE     DIHED     ANGLE
                  TO      (ANGST)    WRT      (DEG)      WRT      (DEG)
--------------------------------------------------------------------------------
        C    
        O          1         r    
                  *Initial values for internal coordinates* 
                      Name             Value
                        r               1.2413793103
--------------------------------------------------------------------------------
  read isotopes from ZMAT file 
   Rotational constants (in cm-1): 
          1.5955246727             1.5955246727
   Rotational constants (in MHz): 
      47832.6330445953         47832.6330445953
********************************************************************************
   The full molecular point group is CXv .
   The largest Abelian subgroup of the full molecular point group is C2v .
   The computational point group is C2v .
********************************************************************************
--------------------------------------------------------------------------------
   Analysis of internal coordinates specified by Z-matrix 
--------------------------------------------------------------------------------
   *The nuclear repulsion energy is   20.461514533333329 a.u.
   *There is   1 degree of freedom within the tot. symm. molecular subspace.
   *Z-matrix requests optimization of   0 coordinates.
   *The optimization is constrained.
   *The following   1 parameters can have non-zero 
    derivatives within the totally symmetric subspace:
             r    [ 1]
   *The following   0 parameters are to be optimized:

   *The following coordinates must be varied in an  unconstrained optimization.
             r    [ 1]
--------------------------------------------------------------------------------


 ----------------------------------------------------------------
         Coordinates used in calculation (QCOMP) 
 ----------------------------------------------------------------
 Z-matrix   Atomic            Coordinates (in bohr)
  Symbol    Number           X              Y              Z
 ----------------------------------------------------------------
     C         6        -0.00000000     0.00000000     1.34031303
     O         8         0.00000000     0.00000000    -1.00555437
 ----------------------------------------------------------------
 
   Interatomic distance matrix (Angstroms) 
 
                 C             O    
                [ 1]        [ 2]
  C    [ 1]     0.00000
  O    [ 2]     1.24138     0.00000
 rotcon2
   Rotational constants (in cm-1): 
          1.5955246727             0.0000000000
   Rotational constants (in MHz): 
      47832.6330445953             0.0000000000
  ECPDATA file not present.   Using default ECPDATA. 
  @GTFLGS-I, Hessian will be transformed to curvilinear coordinates.
  There are  218 basis functions.
 @CHECKOUT-I, Total execution time (CPU/WALL):        0.12/       0.16 seconds.
--executable xjoda finished with status     0 in        0.17 seconds (walltime).
 --invoking executable--
/nfs/workspaces/public/cfour_mpi/bin/xvmol
 SERIAL VERSION OF MOLECULE STARTED
********************************************************************************
                    INPUT FROM MOL FILE
********************************************************************************
INTGRL        1    0    1    0    0    0    0    0    0                         
         *** CFOUR Program System (Release V0.1) ***                            
Carbon Monoxide DBOC calculation                                                
    2    2 X  Y       0.10E-08              0    0                              
   9999.00      3.00                                                            
          6.00000000    1    5    1    1    1    1    1                         
C #1  -0.000000000000000   0.000000000000000   1.340313030836441                
   16    9                                                                      
   33980.0000000000       9.100000000000000E-005 -1.900000000000000E-005        
  0.000000000000000E+000  0.000000000000000E+000  0.000000000000000E+000        
  0.000000000000000E+000  0.000000000000000E+000  0.000000000000000E+000        
  0.000000000000000E+000                                                        
   5089.00000000000       7.040000000000000E-004 -1.510000000000000E-004        
  0.000000000000000E+000  0.000000000000000E+000  0.000000000000000E+000        
  0.000000000000000E+000  0.000000000000000E+000  0.000000000000000E+000        
  0.000000000000000E+000                                                        
   1157.00000000000       3.693000000000000E-003 -7.850000000000000E-004        
  0.000000000000000E+000  0.000000000000000E+000  0.000000000000000E+000        
  0.000000000000000E+000  0.000000000000000E+000  0.000000000000000E+000        
  0.000000000000000E+000                                                        
   326.600000000000       1.536000000000000E-002 -3.324000000000000E-003        
  0.000000000000000E+000  0.000000000000000E+000  0.000000000000000E+000        
  0.000000000000000E+000  0.000000000000000E+000  0.000000000000000E+000        
  0.000000000000000E+000                                                        
   106.100000000000       5.292900000000000E-002 -1.151200000000000E-002        
  0.000000000000000E+000  0.000000000000000E+000  0.000000000000000E+000        
  0.000000000000000E+000  0.000000000000000E+000  0.000000000000000E+000        
  0.000000000000000E+000                                                        
   38.1100000000000       0.147043000000000      -3.416000000000000E-002        
  0.000000000000000E+000  0.000000000000000E+000  0.000000000000000E+000        
  0.000000000000000E+000  0.000000000000000E+000  0.000000000000000E+000        
  0.000000000000000E+000                                                        
   14.7500000000000       0.305631000000000      -7.717300000000001E-002        
  0.000000000000000E+000  0.000000000000000E+000  0.000000000000000E+000        
  0.000000000000000E+000  0.000000000000000E+000  0.000000000000000E+000        
  0.000000000000000E+000                                                        
   6.03500000000000       0.399345000000000      -0.141493000000000             
  0.000000000000000E+000  0.000000000000000E+000  0.000000000000000E+000        
  0.000000000000000E+000  0.000000000000000E+000  0.000000000000000E+000        
  0.000000000000000E+000                                                        
   2.53000000000000       0.217051000000000      -0.118019000000000             
  0.000000000000000E+000  0.000000000000000E+000  0.000000000000000E+000        
  0.000000000000000E+000  0.000000000000000E+000  0.000000000000000E+000        
  0.000000000000000E+000                                                        
  0.735500000000000       1.589400000000000E-002  0.273806000000000             
   1.00000000000000       0.000000000000000E+000  0.000000000000000E+000        
  0.000000000000000E+000  0.000000000000000E+000  0.000000000000000E+000        
  0.000000000000000E+000                                                        
  0.290500000000000      -3.084000000000000E-003  0.586510000000000             
  0.000000000000000E+000   1.00000000000000       0.000000000000000E+000        
  0.000000000000000E+000  0.000000000000000E+000  0.000000000000000E+000        
  0.000000000000000E+000                                                        
  0.111100000000000       9.779999999999999E-004  0.285430000000000             
  0.000000000000000E+000  0.000000000000000E+000   1.00000000000000             
  0.000000000000000E+000  0.000000000000000E+000  0.000000000000000E+000        
  0.000000000000000E+000                                                        
   7.21600000000000       0.000000000000000E+000  0.000000000000000E+000        
  0.000000000000000E+000  0.000000000000000E+000  0.000000000000000E+000        
   1.00000000000000       0.000000000000000E+000  0.000000000000000E+000        
  0.000000000000000E+000                                                        
   19.5700000000000       0.000000000000000E+000  0.000000000000000E+000        
  0.000000000000000E+000  0.000000000000000E+000  0.000000000000000E+000        
  0.000000000000000E+000   1.00000000000000       0.000000000000000E+000        
  0.000000000000000E+000                                                        
   53.0730000000000       0.000000000000000E+000  0.000000000000000E+000        
  0.000000000000000E+000  0.000000000000000E+000  0.000000000000000E+000        
  0.000000000000000E+000  0.000000000000000E+000   1.00000000000000             
  0.000000000000000E+000                                                        
  4.145000000000000E-002  0.000000000000000E+000  0.000000000000000E+000        
  0.000000000000000E+000  0.000000000000000E+000  0.000000000000000E+000        
  0.000000000000000E+000  0.000000000000000E+000  0.000000000000000E+000        
   1.00000000000000                                                             
   10    8                                                                      
   34.5100000000000       5.378000000000000E-003  0.000000000000000E+000        
  0.000000000000000E+000  0.000000000000000E+000  0.000000000000000E+000        
  0.000000000000000E+000  0.000000000000000E+000  0.000000000000000E+000        
   7.91500000000000       3.613200000000000E-002  0.000000000000000E+000        
  0.000000000000000E+000  0.000000000000000E+000  0.000000000000000E+000        
  0.000000000000000E+000  0.000000000000000E+000  0.000000000000000E+000        
   2.36800000000000       0.142493000000000       0.000000000000000E+000        
  0.000000000000000E+000  0.000000000000000E+000  0.000000000000000E+000        
  0.000000000000000E+000  0.000000000000000E+000  0.000000000000000E+000        
  0.813200000000000       0.342150000000000        1.00000000000000             
  0.000000000000000E+000  0.000000000000000E+000  0.000000000000000E+000        
  0.000000000000000E+000  0.000000000000000E+000  0.000000000000000E+000        
  0.289000000000000       0.463864000000000       0.000000000000000E+000        
   1.00000000000000       0.000000000000000E+000  0.000000000000000E+000        
  0.000000000000000E+000  0.000000000000000E+000  0.000000000000000E+000        
  0.100700000000000       0.250028000000000       0.000000000000000E+000        
  0.000000000000000E+000   1.00000000000000       0.000000000000000E+000        
  0.000000000000000E+000  0.000000000000000E+000  0.000000000000000E+000        
   8.18200000000000       0.000000000000000E+000  0.000000000000000E+000        
  0.000000000000000E+000  0.000000000000000E+000   1.00000000000000             
  0.000000000000000E+000  0.000000000000000E+000  0.000000000000000E+000        
   24.1860000000000       0.000000000000000E+000  0.000000000000000E+000        
  0.000000000000000E+000  0.000000000000000E+000  0.000000000000000E+000        
   1.00000000000000       0.000000000000000E+000  0.000000000000000E+000        
   71.4940000000000       0.000000000000000E+000  0.000000000000000E+000        
  0.000000000000000E+000  0.000000000000000E+000  0.000000000000000E+000        
  0.000000000000000E+000   1.00000000000000       0.000000000000000E+000        
  3.218000000000000E-002  0.000000000000000E+000  0.000000000000000E+000        
  0.000000000000000E+000  0.000000000000000E+000  0.000000000000000E+000        
  0.000000000000000E+000  0.000000000000000E+000   1.00000000000000             
    6    6                                                                      
   1.84800000000000        1.00000000000000       0.000000000000000E+000        
  0.000000000000000E+000  0.000000000000000E+000  0.000000000000000E+000        
  0.000000000000000E+000                                                        
  0.649000000000000       0.000000000000000E+000   1.00000000000000             
  0.000000000000000E+000  0.000000000000000E+000  0.000000000000000E+000        
  0.000000000000000E+000                                                        
  0.228000000000000       0.000000000000000E+000  0.000000000000000E+000        
   1.00000000000000       0.000000000000000E+000  0.000000000000000E+000        
  0.000000000000000E+000                                                        
   8.65600000000000       0.000000000000000E+000  0.000000000000000E+000        
  0.000000000000000E+000   1.00000000000000       0.000000000000000E+000        
  0.000000000000000E+000                                                        
   33.2130000000000       0.000000000000000E+000  0.000000000000000E+000        
  0.000000000000000E+000  0.000000000000000E+000   1.00000000000000             
  0.000000000000000E+000                                                        
  7.660000000000000E-002  0.000000000000000E+000  0.000000000000000E+000        
  0.000000000000000E+000  0.000000000000000E+000  0.000000000000000E+000        
   1.00000000000000                                                             
    4    4                                                                      
   1.41900000000000        1.00000000000000       0.000000000000000E+000        
  0.000000000000000E+000  0.000000000000000E+000                                
  0.485000000000000       0.000000000000000E+000   1.00000000000000             
  0.000000000000000E+000  0.000000000000000E+000                                
   24.6940000000000       0.000000000000000E+000  0.000000000000000E+000        
   1.00000000000000       0.000000000000000E+000                                
  0.187000000000000       0.000000000000000E+000  0.000000000000000E+000        
  0.000000000000000E+000   1.00000000000000                                     
    2    2                                                                      
   1.01100000000000        1.00000000000000       0.000000000000000E+000        
  0.424000000000000       0.000000000000000E+000   1.00000000000000             
          8.00000000    1    5    1    1    1    1    1                         
O #2   0.000000000000000   0.000000000000000  -1.005554374130304                
   16    9                                                                      
   61420.0000000000       9.000000000000001E-005 -2.000000000000000E-005        
  0.000000000000000E+000  0.000000000000000E+000  0.000000000000000E+000        
  0.000000000000000E+000  0.000000000000000E+000  0.000000000000000E+000        
  0.000000000000000E+000                                                        
   9199.00000000000       6.980000000000001E-004 -1.590000000000000E-004        
  0.000000000000000E+000  0.000000000000000E+000  0.000000000000000E+000        
  0.000000000000000E+000  0.000000000000000E+000  0.000000000000000E+000        
  0.000000000000000E+000                                                        
   2091.00000000000       3.664000000000000E-003 -8.290000000000000E-004        
  0.000000000000000E+000  0.000000000000000E+000  0.000000000000000E+000        
  0.000000000000000E+000  0.000000000000000E+000  0.000000000000000E+000        
  0.000000000000000E+000                                                        
   590.900000000000       1.521800000000000E-002 -3.508000000000000E-003        
  0.000000000000000E+000  0.000000000000000E+000  0.000000000000000E+000        
  0.000000000000000E+000  0.000000000000000E+000  0.000000000000000E+000        
  0.000000000000000E+000                                                        
   192.300000000000       5.242300000000000E-002 -1.215600000000000E-002        
  0.000000000000000E+000  0.000000000000000E+000  0.000000000000000E+000        
  0.000000000000000E+000  0.000000000000000E+000  0.000000000000000E+000        
  0.000000000000000E+000                                                        
   69.3200000000000       0.145921000000000      -3.626100000000000E-002        
  0.000000000000000E+000  0.000000000000000E+000  0.000000000000000E+000        
  0.000000000000000E+000  0.000000000000000E+000  0.000000000000000E+000        
  0.000000000000000E+000                                                        
   26.9700000000000       0.305258000000000      -8.299200000000000E-002        
  0.000000000000000E+000  0.000000000000000E+000  0.000000000000000E+000        
  0.000000000000000E+000  0.000000000000000E+000  0.000000000000000E+000        
  0.000000000000000E+000                                                        
   11.1000000000000       0.398508000000000      -0.152090000000000             
  0.000000000000000E+000  0.000000000000000E+000  0.000000000000000E+000        
  0.000000000000000E+000  0.000000000000000E+000  0.000000000000000E+000        
  0.000000000000000E+000                                                        
   4.68200000000000       0.216980000000000      -0.115331000000000             
  0.000000000000000E+000  0.000000000000000E+000  0.000000000000000E+000        
  0.000000000000000E+000  0.000000000000000E+000  0.000000000000000E+000        
  0.000000000000000E+000                                                        
   1.42800000000000       1.759400000000000E-002  0.288979000000000             
   1.00000000000000       0.000000000000000E+000  0.000000000000000E+000        
  0.000000000000000E+000  0.000000000000000E+000  0.000000000000000E+000        
  0.000000000000000E+000                                                        
  0.554700000000000      -2.502000000000000E-003  0.586128000000000             
  0.000000000000000E+000   1.00000000000000       0.000000000000000E+000        
  0.000000000000000E+000  0.000000000000000E+000  0.000000000000000E+000        
  0.000000000000000E+000                                                        
  0.206700000000000       9.540000000000000E-004  0.277624000000000             
  0.000000000000000E+000  0.000000000000000E+000   1.00000000000000             
  0.000000000000000E+000  0.000000000000000E+000  0.000000000000000E+000        
  0.000000000000000E+000                                                        
   12.9740000000000       0.000000000000000E+000  0.000000000000000E+000        
  0.000000000000000E+000  0.000000000000000E+000  0.000000000000000E+000        
   1.00000000000000       0.000000000000000E+000  0.000000000000000E+000        
  0.000000000000000E+000                                                        
   34.9000000000000       0.000000000000000E+000  0.000000000000000E+000        
  0.000000000000000E+000  0.000000000000000E+000  0.000000000000000E+000        
  0.000000000000000E+000   1.00000000000000       0.000000000000000E+000        
  0.000000000000000E+000                                                        
   93.8810000000000       0.000000000000000E+000  0.000000000000000E+000        
  0.000000000000000E+000  0.000000000000000E+000  0.000000000000000E+000        
  0.000000000000000E+000  0.000000000000000E+000   1.00000000000000             
  0.000000000000000E+000                                                        
  6.959000000000000E-002  0.000000000000000E+000  0.000000000000000E+000        
  0.000000000000000E+000  0.000000000000000E+000  0.000000000000000E+000        
  0.000000000000000E+000  0.000000000000000E+000  0.000000000000000E+000        
   1.00000000000000                                                             
   10    8                                                                      
   63.4200000000000       6.044000000000000E-003  0.000000000000000E+000        
  0.000000000000000E+000  0.000000000000000E+000  0.000000000000000E+000        
  0.000000000000000E+000  0.000000000000000E+000  0.000000000000000E+000        
   14.6600000000000       4.179900000000000E-002  0.000000000000000E+000        
  0.000000000000000E+000  0.000000000000000E+000  0.000000000000000E+000        
  0.000000000000000E+000  0.000000000000000E+000  0.000000000000000E+000        
   4.45900000000000       0.161143000000000       0.000000000000000E+000        
  0.000000000000000E+000  0.000000000000000E+000  0.000000000000000E+000        
  0.000000000000000E+000  0.000000000000000E+000  0.000000000000000E+000        
   1.53100000000000       0.356731000000000        1.00000000000000             
  0.000000000000000E+000  0.000000000000000E+000  0.000000000000000E+000        
  0.000000000000000E+000  0.000000000000000E+000  0.000000000000000E+000        
  0.530200000000000       0.448309000000000       0.000000000000000E+000        
   1.00000000000000       0.000000000000000E+000  0.000000000000000E+000        
  0.000000000000000E+000  0.000000000000000E+000  0.000000000000000E+000        
  0.175000000000000       0.244940000000000       0.000000000000000E+000        
  0.000000000000000E+000   1.00000000000000       0.000000000000000E+000        
  0.000000000000000E+000  0.000000000000000E+000  0.000000000000000E+000        
   14.4750000000000       0.000000000000000E+000  0.000000000000000E+000        
  0.000000000000000E+000  0.000000000000000E+000   1.00000000000000             
  0.000000000000000E+000  0.000000000000000E+000  0.000000000000000E+000        
   42.7300000000000       0.000000000000000E+000  0.000000000000000E+000        
  0.000000000000000E+000  0.000000000000000E+000  0.000000000000000E+000        
   1.00000000000000       0.000000000000000E+000  0.000000000000000E+000        
   126.140000000000       0.000000000000000E+000  0.000000000000000E+000        
  0.000000000000000E+000  0.000000000000000E+000  0.000000000000000E+000        
  0.000000000000000E+000   1.00000000000000       0.000000000000000E+000        
  5.348000000000000E-002  0.000000000000000E+000  0.000000000000000E+000        
  0.000000000000000E+000  0.000000000000000E+000  0.000000000000000E+000        
  0.000000000000000E+000  0.000000000000000E+000   1.00000000000000             
    6    6                                                                      
   3.77500000000000        1.00000000000000       0.000000000000000E+000        
  0.000000000000000E+000  0.000000000000000E+000  0.000000000000000E+000        
  0.000000000000000E+000                                                        
   1.30000000000000       0.000000000000000E+000   1.00000000000000             
  0.000000000000000E+000  0.000000000000000E+000  0.000000000000000E+000        
  0.000000000000000E+000                                                        
  0.444000000000000       0.000000000000000E+000  0.000000000000000E+000        
   1.00000000000000       0.000000000000000E+000  0.000000000000000E+000        
  0.000000000000000E+000                                                        
   14.9270000000000       0.000000000000000E+000  0.000000000000000E+000        
  0.000000000000000E+000   1.00000000000000       0.000000000000000E+000        
  0.000000000000000E+000                                                        
   57.5440000000000       0.000000000000000E+000  0.000000000000000E+000        
  0.000000000000000E+000  0.000000000000000E+000   1.00000000000000             
  0.000000000000000E+000                                                        
  0.154000000000000       0.000000000000000E+000  0.000000000000000E+000        
  0.000000000000000E+000  0.000000000000000E+000  0.000000000000000E+000        
   1.00000000000000                                                             
    4    4                                                                      
   2.66600000000000        1.00000000000000       0.000000000000000E+000        
  0.000000000000000E+000  0.000000000000000E+000                                
  0.859000000000000       0.000000000000000E+000   1.00000000000000             
  0.000000000000000E+000  0.000000000000000E+000                                
   26.4830000000000       0.000000000000000E+000  0.000000000000000E+000        
   1.00000000000000       0.000000000000000E+000                                
  0.324000000000000       0.000000000000000E+000  0.000000000000000E+000        
  0.000000000000000E+000   1.00000000000000                                     
    2    2                                                                      
   1.84600000000000        1.00000000000000       0.000000000000000E+000        
  0.714000000000000       0.000000000000000E+000   1.00000000000000             
FINISH                                                                          
 
********************************************************************************
 ONE- AND TWO-ELECTRON INTEGRALS OVER SYMMETRY-ADAPTED AOS ARE CALCULATED.

  SPHERICAL HARMONICS ARE USED.
  
  INTEGRALS LESS THAN  0.10E-13 ARE NEGLECTED.

  NUCLEAR REPULSION ENERGY :   20.4615145333 A.U.
  @MOLECU-I, ONE ELECTRON INTEGRALS (CPU/WALL):        0.05/       0.08 SECONDS.
  @TWOEL-I,    4549079 INTEGRALS OF SYMMETRY TYPE  I I I I
  @TWOEL-I,   19555508 INTEGRALS OF SYMMETRY TYPE  I J I J
  @TWOEL-I,   10304240 INTEGRALS OF SYMMETRY TYPE  I I J J
  @TWOEL-I,   14471060 INTEGRALS OF SYMMETRY TYPE  I J K L
  @TWOEL-I, TOTAL NUMBER OF 2-E INTEGRALS   48879887.
  @MOLECU-I, TWO ELECTRON INTEGRALS (CPU/WALL):      180.50/      25.24 SECONDS.
 @CHECKOUT-I, Total execution time (CPU/WALL):      180.57/      25.35 seconds.

Running with 14 threads/proc

--executable xvmol finished with status     0 in       25.37 seconds (walltime).
 --invoking executable--
/nfs/workspaces/public/cfour_mpi/bin/xvmol2ja
 @GETMEM-I,  Allocated    3814 MB of main memory.
 @CHECKOUT-I, Total execution time (CPU/WALL):        0.13/       0.05 seconds.
--executable xvmol2ja finished with status     0 in        0.06 seconds (walltime).
 --invoking executable--
/nfs/workspaces/public/cfour_mpi/bin/xvprop
 @GETMEM-I,  Allocated    3814 MB of main memory.
   Property integrals will be calculated.
    --------------------------------------------------------------
                                   Property evaluated at 
    Property type                X             Y             Z
    --------------------------------------------------------------
    Dipole moment               ----          ----          ----  
    Quadrupole moment           ----          ----          ----  
    Octopole moment             ----          ----          ----  
    Relativisitic corr.         ----          ----          ----  
    Second moment            0.0000000     0.0000000     0.0000000
    Electron density         0.0000000     0.0000000     1.3403130
    Electron density         0.0000000     0.0000000    -1.0055544
    Field gradient           0.0000000     0.0000000     1.3403130
    Field gradient           0.0000000     0.0000000    -1.0055544
    Potential                0.0000000     0.0000000     1.3403130
    Potential                0.0000000     0.0000000    -1.0055544
    --------------------------------------------------------------
 @CHECKOUT-I, Total execution time (CPU/WALL):        1.31/       1.33 seconds.
--executable xvprop finished with status     0 in        1.34 seconds (walltime).
 --invoking executable--
/nfs/workspaces/public/cfour_mpi/bin/xvscf
  There are  218 functions in the AO basis.

  There are 4 irreducible representations.

       Irrep        # of functions
         1                 86
         2                 52
         3                 52
         4                 28


  Parameters for SCF calculation: 
        SCF reference function:  RHF  
  Maximum number of iterations:  150
     Full symmetry point group: CXv 
     Computational point group: C2v 
        Initial density matrix: MOREAD                 
     SCF convergence tolerance: 10**(-10)
  DIIS convergence acceleration:  ON
          Latest start for DIIS:   8
                     DIIS order:   6

  Memory information:    2523578 words required.
  Fock matrices are constructed from AO integral file.
 @GETMEM-I,  Allocated      19 MB of main memory.
  Initialization and symmetry analysis required      0.001 seconds.

  Adding electric field perturbation to one-electron Hamiltonian.
  Field direction     : Z
  Field strength      :  0.0002000 a.u.

  @INITGES-I, Occupancies from core Hamiltonian:

          Alpha population by irrep:   5    1    1    0
           Beta population by irrep:   5    1    1    0


 total no. of electrons in initial guess :  0.000000000000000E+000
  --------------------------------------------------------------------
  Iteration         Total Energy            Largest Density Difference
  --------------------------------------------------------------------
       0            20.461515044694934              0.0000000000D+00
   current occupation vector 
     5  1  1  0
     5  1  1  0
       1           -92.522891652398258              0.1813390801D+02
   current occupation vector 
     5  1  1  0
     5  1  1  0
       2           -98.019140174228738              0.1812955797D+02
   current occupation vector 
     5  1  1  0
     5  1  1  0
       3          -103.522051538113885              0.8574812814D+01
   current occupation vector 
     5  1  1  0
     5  1  1  0
       4           -99.768719414505114              0.7227705201D+01
   current occupation vector 
     5  1  1  0
     5  1  1  0
       5          -102.364189071722805              0.5900846795D+01
   current occupation vector 
     5  1  1  0
     5  1  1  0
       6           -98.944636693410317              0.5901055499D+01
   current occupation vector 
     5  1  1  0
     5  1  1  0
       7          -102.372251281617494              0.6022678111D+01
   current occupation vector 
     5  1  1  0
     5  1  1  0
       8           -98.840830527134258              0.6018841941D+01
   current occupation vector 
     5  1  1  0
     5  1  1  0
       9          -109.784393007210483              0.4546838826D+01
   current occupation vector 
     5  1  1  0
     5  1  1  0
      10          -111.722256867229973              0.1097046436D+01
   current occupation vector 
     5  1  1  0
     5  1  1  0
      11          -112.687032535848587              0.6616357408D+00
   current occupation vector 
     5  1  1  0
     5  1  1  0
      12          -112.750306346168955              0.2127476122D+00
   current occupation vector 
     5  1  1  0
     5  1  1  0
      13          -112.751657474843583              0.4365326608D-01
   current occupation vector 
     5  1  1  0
     5  1  1  0
      14          -112.751834359787537              0.1743119341D-01
   current occupation vector 
     5  1  1  0
     5  1  1  0
      15          -112.751863044548301              0.1030494328D-01
   current occupation vector 
     5  1  1  0
     5  1  1  0
      16          -112.751863375151757              0.7722308579D-03
   current occupation vector 
     5  1  1  0
     5  1  1  0
      17          -112.751863391666930              0.2094243140D-03
   current occupation vector 
     5  1  1  0
     5  1  1  0
      18          -112.751863392565539              0.5531639958D-04
   current occupation vector 
     5  1  1  0
     5  1  1  0
      19          -112.751863392597656              0.1065645588D-04
   current occupation vector 
     5  1  1  0
     5  1  1  0
      20          -112.751863392597429              0.1697273958D-05
   current occupation vector 
     5  1  1  0
     5  1  1  0
      21          -112.751863392599674              0.2382062141D-06
   current occupation vector 
     5  1  1  0
     5  1  1  0
      22          -112.751863392598878              0.4945822396D-07
   current occupation vector 
     5  1  1  0
     5  1  1  0
      23          -112.751863392598821              0.1973260555D-07
   current occupation vector 
     5  1  1  0
     5  1  1  0
      24          -112.751863392598366              0.3162135553D-09
   current occupation vector 
     5  1  1  0
     5  1  1  0
      25          -112.751863392597542              0.1328326338D-09
   current occupation vector 
     5  1  1  0
     5  1  1  0

  SCF has converged.

 Density matrix saved to file den.dat
 total electron number:   14.0000000000002     
     E(SCF)=      -112.751863392598253              0.4598132985D-10

  Eigenvector printing suppressed.

 @PUTMOS-I, Writing converged MOs to NEWMOS. 
 @PUTMOS-I, Symmetry   1 Full Blocks 21 Partial Blocksize   2
 @PUTMOS-I, Symmetry   2 Full Blocks 13 Partial Blocksize   0
 @PUTMOS-I, Symmetry   3 Full Blocks 13 Partial Blocksize   0
 @PUTMOS-I, Symmetry   4 Full Blocks  7 Partial Blocksize   0
 @PUTFOCK-I, Writing converged Fock matrix to NEWFOCK. 
 @PUTFOCK-I, Symmetry   1 Full Blocks 21 Partial Blocksize   2
 @PUTFOCK-I, Symmetry   2 Full Blocks 13 Partial Blocksize   0
 @PUTFOCK-I, Symmetry   3 Full Blocks 13 Partial Blocksize   0
 @PUTFOCK-I, Symmetry   4 Full Blocks  7 Partial Blocksize   0


 
  ORBITAL EIGENVALUES (ALPHA)  (1H = 27.2113834 eV)

       MO #        E(hartree)               E(eV)           FULLSYM    COMPSYM
       ----   --------------------   --------------------   -------   ---------
    1     1         -20.6666287047        -562.3675572685     SG+        A1 (1)
    2     2         -11.4095682343        -310.4701356507     SG+        A1 (1)
    3     3          -1.4473399548         -39.3841224195     SG+        A1 (1)
    4     4          -0.7962216559         -21.6662927506     SG+        A1 (1)
    5   139          -0.5950984500         -16.1934520827      PI        B2 (3)
    6    87          -0.5950984500         -16.1934520827      PI        B1 (2)
    7     5          -0.5642096363         -15.3529247303     SG+        A1 (1)
  +++++++++++++++++++++++++++++++++++++++++++++++++++++++++++++++++++++++++++++
    8   140           0.0568147871           1.5460089549      PI        B2 (3)
    9    88           0.0568147871           1.5460089549      PI        B1 (2)
   10     6           0.0616448885           1.6774426967     SG+        A1 (1)
   11     7           0.0732681938           1.9937289122     SG+        A1 (1)
   12   141           0.1134991845           3.0884698246      PI        B2 (3)
   13    89           0.1134991845           3.0884698246      PI        B1 (2)
   14     8           0.1562271411           4.2511566350     SG+        A1 (1)
   15    90           0.1670847121           4.5466061613      PI        B1 (2)
   16   142           0.1670847121           4.5466061613      PI        B2 (3)
   17     9           0.2275381267           6.1916272046      DE        A1 (1)
   18   191           0.2275381267           6.1916272046      DE        A2 (4)
   19    10           0.2283290959           6.2131505686     SG+        A1 (1)
   20    11           0.3003109238           8.1718756866     SG+        A1 (1)
   21    91           0.3101853277           8.4405718781      PI        B1 (2)
   22   143           0.3101853277           8.4405718781      PI        B2 (3)
   23    12           0.3867836599          10.5249184633     SG+        A1 (1)
   24   144           0.3955431332          10.7632758486      PI        B2 (3)
   25    92           0.3955431332          10.7632758486      PI        B1 (2)
   26    13           0.5088342605          13.8460841491     SG+        A1 (1)
   27   192           0.5408827948          14.7181691041      DE        A2 (4)
   28    14           0.5408827948          14.7181691041      DE        A1 (1)
   29    15           0.5974033082          16.2561704647     SG+        A1 (1)
   30    93           0.6251631070          17.0115529920      PI        B1 (2)
   31   145           0.6251631070          17.0115529920      PI        B2 (3)
   32   146           0.7461735282          20.3044139599      PH        B2 (3)
   33    94           0.7461735282          20.3044139599      PH        B1 (2)
   34    16           0.7632627826          20.7694362127      DE        A1 (1)
   35   193           0.7632627826          20.7694362127      DE        A2 (4)
   36    17           0.7735939083          21.0505604359     SG+        A1 (1)
   37    95           0.8101518095          22.0453515000      PI        B1 (2)
   38   147           0.8101518095          22.0453515000      PI        B2 (3)
   39    18           0.8451527329          22.9977750456     SG+        A1 (1)
   40    19           0.8726835308          23.7469261432     SG+        A1 (1)
   41    20           0.8844800678          24.0679262353      DE        A1 (1)
   42   194           0.8844800678          24.0679262353      DE        A2 (4)
   43    96           0.8900209241          24.2187006009      PI        B1 (2)
   44   148           0.8900209241          24.2187006009      PI        B2 (3)
   45    97           1.0538054278          28.6755035244      PI        B1 (2)
   46   149           1.0538054278          28.6755035244      PI        B2 (3)
   47    21           1.1388899840          30.9907720062     SG+        A1 (1)
   48    22           1.4369264377          39.1007562145     SG+        A1 (1)
   49   150           1.4391820208          39.1621337499      PH        B2 (3)
   50    98           1.4391820208          39.1621337499      PH        B1 (2)
   51    23           1.5363519818          41.8062628131      DE        A1 (1)
   52   195           1.5363519818          41.8062628131      DE        A2 (4)
   53   151           1.5677778995          42.6614055088      PI        B2 (3)
   54    99           1.5677778995          42.6614055088      PI        B1 (2)
   55    24           1.6619289066          45.2233846597     SG+        A1 (1)
   56   100           1.7218436755          46.8537484096      PI        B1 (2)
   57   152           1.7218436755          46.8537484096      PI        B2 (3)
   58    25           1.7511826514          47.6521025296      DE        A1 (1)
   59   196           1.7511826514          47.6521025296      DE        A2 (4)
   60    26           1.8134473178          49.3464102416     SG+        A1 (1)
   61   101           2.0231281306          55.0521152280      PI        B1 (2)
   62   153           2.0231281306          55.0521152280      PI        B2 (3)
   63    27           2.0715833870          56.3706497876     SG+        A1 (1)
   64   197           2.0976521093          57.0800157858      PI        A2 (4)
   65    28           2.0976521093          57.0800157858      PI        A1 (1)
   66    29           2.1747408409          59.1777068168      DE        A1 (1)
   67   198           2.1747408409          59.1777068168      DE        A2 (4)
   68   154           2.2419107319          61.0054924756      PH        B2 (3)
   69   102           2.2419107319          61.0054924756      PH        B1 (2)
   70   103           2.3010808442          62.6155930861      PI        B1 (2)
   71   155           2.3010808442          62.6155930861      PI        B2 (3)
   72    30           2.3048975931          62.7194521035     SG+        A1 (1)
   73   156           2.3224167670          63.1961730628      PH        B2 (3)
   74   104           2.3224167670          63.1961730628      PH        B1 (2)
   75   199           2.3458078112          63.8326757339      DE        A2 (4)
   76    31           2.3458078112          63.8326757339      DE        A1 (1)
   77    32           2.4843692727          67.6031247872     SG+        A1 (1)
   78   157           2.5676491569          69.8692856447      PI        B2 (3)
   79   105           2.5676491569          69.8692856447      PI        B1 (2)
   80   158           2.7403577160          74.5689244637      PI        B2 (3)
   81   106           2.7403577160          74.5689244637      PI        B1 (2)
   82    33           2.7857422057          75.8038992129     SG+        A1 (1)
   83   200           2.9126716944          79.2578261941      DE        A2 (4)
   84    34           2.9126716944          79.2578261941      DE        A1 (1)
   85    35           3.4593001783          94.1323434462     SG+        A1 (1)
   86   107           3.6961823570         100.5782352334      PI        B1 (2)
   87   159           3.6961823570         100.5782352334      PI        B2 (3)
   88   201           3.7080590426         100.9014162793      PI        A2 (4)
   89    36           3.7080590426         100.9014162793      PI        A1 (1)
   90    37           3.9090848850         106.3716075486     SG+        A1 (1)
   91   108           4.0874172149         111.2242769506      PH        B1 (2)
   92   160           4.0874172149         111.2242769506      PH        B2 (3)
   93   109           4.1749874859         113.6071851701      PH        B1 (2)
   94   161           4.1749874859         113.6071851701      PH        B2 (3)
   95   202           4.1914473605         114.0550811286      DE        A2 (4)
   96    38           4.1914473605         114.0550811286      DE        A1 (1)
   97   162           4.1958203501         114.1740762245      PI        B2 (3)
   98   110           4.1958203501         114.1740762245      PI        B1 (2)
   99    39           4.2364121814         115.2786361082     SG+        A1 (1)
  100    40           4.3333368789         117.9160912119      DE        A1 (1)
  101   203           4.3333368789         117.9160912119      DE        A2 (4)
  102    41           4.4025911066         119.8005945546     SG+        A1 (1)
  103   163           4.8503324760         131.9842566222      PI        B2 (3)
  104   111           4.8503324760         131.9842566222      PI        B1 (2)
  105   164           4.9514607076         134.7360957053      PI        B2 (3)
  106   112           4.9514607076         134.7360957053      PI        B1 (2)
  107    42           5.0606717885         137.7078802975      DE        A1 (1)
  108   204           5.0606717885         137.7078802975      DE        A2 (4)
  109    43           5.1649300038         140.5448905676     SG+        A1 (1)
  110    44           5.4592775423         148.5544942894     SG+        A1 (1)
  111   165           5.6816050840         154.6043342679      PI        B2 (3)
  112   113           5.6816050840         154.6043342679      PI        B1 (2)
  113    45           5.8837121610         160.1039474287      PI        A1 (1)
  114   205           5.8837121610         160.1039474287      PI        A2 (4)
  115   166           6.0403107534         164.3652117671      PH        B2 (3)
  116   114           6.0403107534         164.3652117671      PH        B1 (2)
  117    46           6.2339391660         169.6341087395     SG+        A1 (1)
  118   206           6.2616670782         170.3886235886      DE        A2 (4)
  119    47           6.2616670782         170.3886235886      DE        A1 (1)
  120   167           6.2921359322         171.2177232551      PI        B2 (3)
  121   115           6.2921359322         171.2177232551      PI        B1 (2)
  122   116           6.4228377434         174.7743003523      PH        B1 (2)
  123   168           6.4228377434         174.7743003523      PH        B2 (3)
  124   207           6.5519996714         178.2889750941      DE        A2 (4)
  125    48           6.5519996714         178.2889750941      DE        A1 (1)
  126    49           6.7318903321         183.1840488332     SG+        A1 (1)
  127   208           6.9598042966         189.3859031049      DE        A2 (4)
  128    50           6.9598042966         189.3859031050      DE        A1 (1)
  129   169           7.2449110661         197.1440527175      PI        B2 (3)
  130   117           7.2449110661         197.1440527175      PI        B1 (2)
  131    51           7.5993729355         206.7894505472     SG+        A1 (1)
  132   170           8.1380543918         221.4477181864      PI        B2 (3)
  133   118           8.1380543918         221.4477181865      PI        B1 (2)
  134    52           8.1650937114         222.1834954769     SG+        A1 (1)
  135   119          10.1023121377         274.8978888066      PI        B1 (2)
  136   171          10.1023121377         274.8978888067      PI        B2 (3)
  137    53          10.3708778855         282.2059343378     SG+        A1 (1)
  138   209          10.6095311618         288.7000201391      PI        A2 (4)
  139    54          10.6095311618         288.7000201391      PI        A1 (1)
  140   172          10.8191298773         294.4034911456      PH        B2 (3)
  141   120          10.8191298773         294.4034911456      PH        B1 (2)
  142    55          10.9568755616         298.1517417729     SG+        A1 (1)
  143   210          11.0549704004         300.8210380413      DE        A2 (4)
  144    56          11.0549704004         300.8210380413      DE        A1 (1)
  145   121          11.2758686090         306.8319838881      PI        B1 (2)
  146   173          11.2758686090         306.8319838881      PI        B2 (3)
  147    57          11.5092499293         313.1826124718     SG+        A1 (1)
  148   122          11.8573628702         322.6552471753      PH        B1 (2)
  149   174          11.8573628702         322.6552471753      PH        B2 (3)
  150    58          12.1819180781         331.4868433715      DE        A1 (1)
  151   211          12.1819180781         331.4868433715      DE        A2 (4)
  152   123          12.5664099082         341.9493979749      PI        B1 (2)
  153   175          12.5664099082         341.9493979749      PI        B2 (3)
  154    59          12.8152038045         348.7194240746      DE        A1 (1)
  155   212          12.8152038045         348.7194240746      DE        A2 (4)
  156    60          13.0273832006         354.4931189715     SG+        A1 (1)
  157   176          13.6096292609         370.3368397491      PI        B2 (3)
  158   124          13.6096292609         370.3368397491      PI        B1 (2)
  159    61          14.8295407760         403.5323197024     SG+        A1 (1)
  160    62          17.8596802645         485.9866070797     SG+        A1 (1)
  161   125          19.1779351724         521.8581467958      PI        B1 (2)
  162   177          19.1779351724         521.8581467958      PI        B2 (3)
  163    63          20.5243885478         558.4970058234     SG+        A1 (1)
  164   213          26.4350872567         719.3352945542      DE        A2 (4)
  165    64          26.4350872567         719.3352945543      DE        A1 (1)
  166   178          26.8665528633         731.0760705989      PI        B2 (3)
  167   126          26.8665528633         731.0760705990      PI        B1 (2)
  168    65          27.7239227126         754.4062902849     SG+        A1 (1)
  169   179          33.7501634227         918.3886367074      PI        B2 (3)
  170   127          33.7501634227         918.3886367075      PI        B1 (2)
  171    66          34.7205462332         944.7940954080     SG+        A1 (1)
  172    67          36.4110713654         990.7956229283     SG+        A1 (1)
  173    68          47.0985058501        1281.6155002545      DE        A1 (1)
  174   214          47.0985058501        1281.6155002545      DE        A2 (4)
  175   180          47.4505436422        1291.1949355851      PI        B2 (3)
  176   128          47.4505436422        1291.1949355851      PI        B1 (2)
  177    69          48.2340861445        1312.5162110254     SG+        A1 (1)
  178    70          64.0759931656        1743.5964167657     SG+        A1 (1)
  179   129          66.6644382447        1814.0315882220      PI        B1 (2)
  180   181          66.6644382447        1814.0315882221      PI        B2 (3)
  181    71          67.6865676087        1841.8451422295     SG+        A1 (1)
  182   130          98.6242401463        2683.7020111554      PH        B1 (2)
  183   182          98.6242401463        2683.7020111555      PH        B2 (3)
  184   215          98.6405432473        2684.1456410870      DE        A2 (4)
  185    72          98.6405432473        2684.1456410870      DE        A1 (1)
  186   131          98.6855454871        2685.3702142880      PI        B1 (2)
  187   183          98.6855454871        2685.3702142880      PI        B2 (3)
  188    73          98.7050091188        2685.8998466323     SG+        A1 (1)
  189   132         103.2830801079        2810.4754915484      PH        B1 (2)
  190   184         103.2830801079        2810.4754915484      PH        B2 (3)
  191    74         103.3181771145        2811.4305296528      DE        A1 (1)
  192   216         103.3181771146        2811.4305296533      DE        A2 (4)
  193   133         103.3538507325        2812.4012581482      PI        B1 (2)
  194   185         103.3538507325        2812.4012581482      PI        B2 (3)
  195    75         103.3830723799        2813.1964195996     SG+        A1 (1)
  196   217         115.1096515993        3132.2928627098      DE        A2 (4)
  197    76         115.1096515993        3132.2928627098      DE        A1 (1)
  198   134         115.3201125442        3138.0197961708      PI        B1 (2)
  199   186         115.3201125442        3138.0197961708      PI        B2 (3)
  200    77         115.7456496990        3149.5992508404     SG+        A1 (1)
  201   187         117.0065208145        3183.9092981847      PI        B2 (3)
  202   135         117.0065208145        3183.9092981847      PI        B1 (2)
  203    78         117.7668342120        3204.5984775462     SG+        A1 (1)
  204    79         122.6244580626        3336.7811425591     SG+        A1 (1)
  205    80         198.5627698957        5403.1676605968      DE        A1 (1)
  206   218         198.5627698957        5403.1676605968      DE        A2 (4)
  207   136         198.7509910549        5408.2894187237      PI        B1 (2)
  208   188         198.7509910549        5408.2894187239      PI        B2 (3)
  209    81         199.1482820519        5419.1002563667     SG+        A1 (1)
  210    82         216.5703613018        5893.1791344606     SG+        A1 (1)
  211   137         225.0977132004        6125.2201763582      PI        B1 (2)
  212   189         225.0977132004        6125.2201763583      PI        B2 (3)
  213    83         225.9253842413        6147.7422503828     SG+        A1 (1)
  214   190         395.4654011025       10761.1606508349      PI        B2 (3)
  215   138         395.4654011025       10761.1606508350      PI        B1 (2)
  216    84         396.0884624507       10778.1150120613     SG+        A1 (1)
  217    85         509.2080409455       13856.2552325302     SG+        A1 (1)
  218    86         895.3995623113       24365.0607862453     SG+        A1 (1)


  VSCF finished.

 @CHECKOUT-I, Total execution time (CPU/WALL):       46.22/       8.76 seconds.
--executable xvscf finished with status     0 in        8.78 seconds (walltime).
 --invoking executable--
/nfs/workspaces/public/cfour_mpi/bin/xvtran
 @GETMEM-I,  Allocated    3814 MB of main memory.
  Full RHF integral transformation
  Transformation of IIII integrals :
  1 pass through the AO integral file was required.
     4549079 AO integrals were read.
     8781373 MO integrals were written to HF2.
  Transformation of IIJJ integrals :
  1 pass through the AO integral file was required.
    10304240 AO integrals were read.
    14571898 MO integrals were written to HF2.
  Transformation of IJIJ integrals :
  1 pass through the AO integral file was required.
    19555508 AO integrals were read.
    27319542 MO integrals were written to HF2.
  Transformation of IJKL integrals :
  1 pass through the AO integral file was required.
    14471060 AO integrals were read.
    18450079 MO integrals were written to HF2.
  Summary of active molecular orbitals: 
------------------------------------------------------------------------
 
  Index      Eigenvalue    Symmetry    Index      Eigenvalue    Symmetry
------------------------------------------------------------------------
     1       -20.6666287        1       110         4.1749875        2
     2       -11.4095682        1       111         4.1958204        2
     3        -1.4473400        1       112         4.8503325        2
     4        -0.7962217        1       113         4.9514607        2
     5        -0.5642096        1       114         5.6816051        2
     6        -0.5950984        2       115         6.0403108        2
     7        -0.5950984        3       116         6.2921359        2
     8         0.0616449        1       117         6.4228377        2
     9         0.0732682        1       118         7.2449111        2
    10         0.1562271        1       119         8.1380544        2
    11         0.2275381        1       120        10.1023121        2
    12         0.2283291        1       121        10.8191299        2
    13         0.3003109        1       122        11.2758686        2
    14         0.3867837        1       123        11.8573629        2
    15         0.5088343        1       124        12.5664099        2
    16         0.5408828        1       125        13.6096293        2
    17         0.5974033        1       126        19.1779352        2
    18         0.7632628        1       127        26.8665529        2
    19         0.7735939        1       128        33.7501634        2
    20         0.8451527        1       129        47.4505436        2
    21         0.8726835        1       130        66.6644382        2
    22         0.8844801        1       131        98.6242401        2
    23         1.1388900        1       132        98.6855455        2
    24         1.4369264        1       133       103.2830801        2
    25         1.5363520        1       134       103.3538507        2
    26         1.6619289        1       135       115.3201125        2
    27         1.7511827        1       136       117.0065208        2
    28         1.8134473        1       137       198.7509911        2
    29         2.0715834        1       138       225.0977132        2
    30         2.0976521        1       139       395.4654011        2
    31         2.1747408        1       140         0.0568148        3
    32         2.3048976        1       141         0.1134992        3
    33         2.3458078        1       142         0.1670847        3
    34         2.4843693        1       143         0.3101853        3
    35         2.7857422        1       144         0.3955431        3
    36         2.9126717        1       145         0.6251631        3
    37         3.4593002        1       146         0.7461735        3
    38         3.7080590        1       147         0.8101518        3
    39         3.9090849        1       148         0.8900209        3
    40         4.1914474        1       149         1.0538054        3
    41         4.2364122        1       150         1.4391820        3
    42         4.3333369        1       151         1.5677779        3
    43         4.4025911        1       152         1.7218437        3
    44         5.0606718        1       153         2.0231281        3
    45         5.1649300        1       154         2.2419107        3
    46         5.4592775        1       155         2.3010808        3
    47         5.8837122        1       156         2.3224168        3
    48         6.2339392        1       157         2.5676492        3
    49         6.2616671        1       158         2.7403577        3
    50         6.5519997        1       159         3.6961824        3
    51         6.7318903        1       160         4.0874172        3
    52         6.9598043        1       161         4.1749875        3
    53         7.5993729        1       162         4.1958204        3
    54         8.1650937        1       163         4.8503325        3
    55        10.3708779        1       164         4.9514607        3
    56        10.6095312        1       165         5.6816051        3
    57        10.9568756        1       166         6.0403108        3
    58        11.0549704        1       167         6.2921359        3
    59        11.5092499        1       168         6.4228377        3
    60        12.1819181        1       169         7.2449111        3
    61        12.8152038        1       170         8.1380544        3
    62        13.0273832        1       171        10.1023121        3
    63        14.8295408        1       172        10.8191299        3
    64        17.8596803        1       173        11.2758686        3
    65        20.5243885        1       174        11.8573629        3
    66        26.4350873        1       175        12.5664099        3
    67        27.7239227        1       176        13.6096293        3
    68        34.7205462        1       177        19.1779352        3
    69        36.4110714        1       178        26.8665529        3
    70        47.0985059        1       179        33.7501634        3
    71        48.2340861        1       180        47.4505436        3
    72        64.0759932        1       181        66.6644382        3
    73        67.6865676        1       182        98.6242401        3
    74        98.6405432        1       183        98.6855455        3
    75        98.7050091        1       184       103.2830801        3
    76       103.3181771        1       185       103.3538507        3
    77       103.3830724        1       186       115.3201125        3
    78       115.1096516        1       187       117.0065208        3
    79       115.7456497        1       188       198.7509911        3
    80       117.7668342        1       189       225.0977132        3
    81       122.6244581        1       190       395.4654011        3
    82       198.5627699        1       191         0.2275381        4
    83       199.1482821        1       192         0.5408828        4
    84       216.5703613        1       193         0.7632628        4
    85       225.9253842        1       194         0.8844801        4
    86       396.0884625        1       195         1.5363520        4
    87       509.2080409        1       196         1.7511827        4
    88       895.3995623        1       197         2.0976521        4
    89         0.0568148        2       198         2.1747408        4
    90         0.1134992        2       199         2.3458078        4
    91         0.1670847        2       200         2.9126717        4
    92         0.3101853        2       201         3.7080590        4
    93         0.3955431        2       202         4.1914474        4
    94         0.6251631        2       203         4.3333369        4
    95         0.7461735        2       204         5.0606718        4
    96         0.8101518        2       205         5.8837122        4
    97         0.8900209        2       206         6.2616671        4
    98         1.0538054        2       207         6.5519997        4
    99         1.4391820        2       208         6.9598043        4
   100         1.5677779        2       209        10.6095312        4
   101         1.7218437        2       210        11.0549704        4
   102         2.0231281        2       211        12.1819181        4
   103         2.2419107        2       212        12.8152038        4
   104         2.3010808        2       213        26.4350873        4
   105         2.3224168        2       214        47.0985059        4
   106         2.5676492        2       215        98.6405432        4
   107         2.7403577        2       216       103.3181771        4
   108         3.6961824        2       217       115.1096516        4
   109         4.0874172        2       218       198.5627699        4
------------------------------------------------------------------------
  -20.6666287046821       -11.4095682342533       -1.44733995477245     
 -0.796221655920214      -0.564209636261627      -0.595098449962183     
 -0.595098449962184       6.164488853912349E-002  7.326819379014099E-002
  0.156227141138970       0.227538126732531       0.228329095851157     
  0.300310923795182       0.386783659933593       0.508834260483260     
  0.540882794811565       0.597403308232363       0.763262782615035     
  0.773593908347537       0.845152732866004       0.872683530788977     
  0.884480067828476        1.13888998404156        1.43692643772243     
   1.53635198176359        1.66192890655273        1.75118265135881     
   1.81344731784612        2.07158338695732        2.09765210929491     
   2.17474084087921        2.30489759309870        2.34580781122161     
   2.48436927272277        2.78574220569991        2.91267169437935     
   3.45930017825668        3.70805904264850        3.90908488499009     
   4.19144736054242        4.23641218138869        4.33333687885491     
   4.40259110658158        5.06067178846505        5.16493000380164     
   5.45927754225905        5.88371216101716        6.23393916604524     
   6.26166707822009        6.55199967136226        6.73189033208923     
   6.95980429664603        7.59937293548982        8.16509371136512     
   10.3708778855333        10.6095311618412        10.9568755616036     
   11.0549704004123        11.5092499292710        12.1819180781332     
   12.8152038045455        13.0273832006478        14.8295407760257     
   17.8596802645341        20.5243885477508        26.4350872566902     
   27.7239227126140        34.7205462331618        36.4110713653875     
   47.0985058501106        48.2340861444546        64.0759931656289     
   67.6865676086688        98.6405432473176        98.7050091188041     
[...]
 Convergence information after     9 iterations: 
 Largest element of residual vector : -0.17020806E-04.
 Largest element of DIIS residual   : -0.69212149E-05.
 Convergence information after    10 iterations: 
 Largest element of residual vector : -0.77300132E-05.
 Largest element of DIIS residual   : -0.56621442E-05.
 Convergence information after    11 iterations: 
 Largest element of residual vector : -0.36450658E-05.
 Largest element of DIIS residual   : -0.11255040E-05.
 Convergence information after    12 iterations: 
 Largest element of residual vector : -0.17166434E-05.
 Largest element of DIIS residual   :  0.63349647E-06.
 Convergence information after    13 iterations: 
 Largest element of residual vector :  0.53354100E-06.
 Largest element of DIIS residual   :  0.16272856E-06.
 Convergence information after    14 iterations: 
 Largest element of residual vector :  0.20185372E-06.
 Largest element of DIIS residual   :  0.80628600E-07.
 Perturbed amplitude equations converged in    14 iterations.
  Dominant contributions to perturbed wavefunction:
    7    7  141   28   0.2314123661 ABAB
    7    7   28  141   0.2314123661 ABAB
    7    7  140   28   0.1783619004 ABAB
    7    7   28  140   0.1783619004 ABAB
    7    7  141   39   0.1770754038 ABAB
    7    7   39  141   0.1770754038 ABAB
    7    7  141   37  -0.1663303985 ABAB
    7    7   37  141  -0.1663303985 ABAB
    7    6   28   90   0.1493870479 ABAB
    6    7   90   28   0.1493870479 ABAB
    7    7  141   45   0.1378304329 ABAB
    7    7   45  141   0.1378304329 ABAB
    7    0   45    0  -0.1315773768 AA  
    7    7  141   54  -0.1309423636 ABAB
    7    7   54  141  -0.1309423636 ABAB
    7    7  140   39   0.1307003972 ABAB
    7    7   39  140   0.1307003972 ABAB
    7    7  141   20   0.1275228411 ABAB
    7    7   20  141   0.1275228411 ABAB
    7    7  140   37  -0.1249558333 ABAB
  norm of converged amps    2.18044334126198     
 Starting iterative solution of the perturbed Lambda equations.
 The DIIS procedure is used to accelerate convergence.
 Convergence criterion is 10**(-7).
 Maximum number of iterations is 100.
 Convergence information after     1 iterations: 
 Largest element of residual vector : -0.59048101E-01.
 Largest element of DIIS residual   : -0.59048101E-01.
 Convergence information after     2 iterations: 
 Largest element of residual vector : -0.99044535E-02.
 Largest element of DIIS residual   : -0.62211064E-02.
 Convergence information after     3 iterations: 
 Largest element of residual vector : -0.49809257E-02.
 Largest element of DIIS residual   : -0.43936721E-02.
 Convergence information after     4 iterations: 
 Largest element of residual vector : -0.30798679E-02.
 Largest element of DIIS residual   : -0.25284640E-02.
 Convergence information after     5 iterations: 
 Largest element of residual vector : -0.19853292E-02.
 Largest element of DIIS residual   : -0.10217854E-02.
 Convergence information after     6 iterations: 
 Largest element of residual vector : -0.69331845E-03.
 Largest element of DIIS residual   : -0.20737491E-03.
 Convergence information after     7 iterations: 
 Largest element of residual vector : -0.18747715E-03.
 Largest element of DIIS residual   :  0.84053258E-04.
 Convergence information after     8 iterations: 
 Largest element of residual vector :  0.51026267E-04.
 Largest element of DIIS residual   : -0.27355853E-04.
 Convergence information after     9 iterations: 
 Largest element of residual vector :  0.14270222E-04.
 Largest element of DIIS residual   : -0.65487482E-05.
 Convergence information after    10 iterations: 
 Largest element of residual vector : -0.57465697E-05.
 Largest element of DIIS residual   : -0.47808551E-05.
 Convergence information after    11 iterations: 
 Largest element of residual vector : -0.26591937E-05.
 Largest element of DIIS residual   : -0.10825372E-05.
 Convergence information after    12 iterations: 
 Largest element of residual vector : -0.14500521E-05.
 Largest element of DIIS residual   :  0.96684799E-06.
 Convergence information after    13 iterations: 
 Largest element of residual vector :  0.73958786E-06.
 Largest element of DIIS residual   :  0.42217056E-06.
 Convergence information after    14 iterations: 
 Largest element of residual vector :  0.40463551E-06.
 Largest element of DIIS residual   :  0.20623917E-06.
 Convergence information after    15 iterations: 
 Largest element of residual vector :  0.13534873E-06.
 Largest element of DIIS residual   :  0.65331440E-07.
 Perturbed Lambda equations converged in    15 iterations.
  Dominant contributions to perturbed wavefunction:
    7    7  141   28   0.2147094789 ABAB
    7    7   28  141   0.2147094789 ABAB
    7    7  140   28   0.1665386285 ABAB
    7    7   28  140   0.1665386285 ABAB
    7    7  141   39   0.1626699842 ABAB
    7    7   39  141   0.1626699842 ABAB
    7    7  141   37  -0.1558876867 ABAB
    7    7   37  141  -0.1558876867 ABAB
    7    6   28   90   0.1364521333 ABAB
    6    7   90   28   0.1364521333 ABAB
    7    7  141   45   0.1239364507 ABAB
    7    7   45  141   0.1239364507 ABAB
    7    7  141   54  -0.1233852388 ABAB
    7    7   54  141  -0.1233852388 ABAB
    7    7  140   39   0.1207981322 ABAB
    7    7   39  140   0.1207981322 ABAB
    7    7  140   37  -0.1177564780 ABAB
    7    7   37  140  -0.1177564780 ABAB
    7    7  141   20   0.1159430055 ABAB
    7    7   20  141   0.1159430055 ABAB
        The DBOC first-order density matrix is being calculated 
             (Symmetry block 3, perturbation   2)
 term   5.47227416243648     
 final tnorm  0.872219299357371     
  norm contr. I: |<0|L dT/dx|0>|^2   0.000000000000000E+000
  norm contr. II: <0|[nabla(1+L)e-T][nabla e^T]|0>   5.47227416243648     
  total norm contribution   5.47227416243648     
 oo  9.754365417071953E-003
 vv  -41.0539680095165     
 vo  5.905640239654270E-002
  Correlated perturbed 1-el contribution to DBOC  -40.9851572417029       cm**-1
  SUM_I |dc_I/dx|^2 contribution to DBOC   20.6015231137279       cm**-1
 
 
  The total diagonal Born-Oppenheimer correction (DBOC) is:      0.0041393665 a.u.
  The total diagonal Born-Oppenheimer correction (DBOC) is:        908.485944 cm-1
 
 Total CC energy including DBOC  -113.256344208250     
 First-order density matrix is being calculated  (Symmetry block 3, perturbation   2)
 Calculation of the contributions of <pq||rs> to dI(i,j)/dx required   1.8 seconds.
 Calculation of the contributions of <pq||rs> to dI(a,b)/dx required  15.9 seconds.
 Calculation of the contributions of <pq||rs> to dI(i,a)/dx required   9.4 seconds.
 First-order Z-vector equations are solved for 1 perturbation.
 Convergence reached after  18 iterations.
        U*G(pq,rs) contribution is being calculated
             (Symmetry block 3, perturbation   2)

 CCSD contribution to force constants 

        0.0000000000        0.0000000000        0.0000000000
        0.0000000000        0.0000000000        0.0000000000
        0.0000000000        0.0000000000        0.0000000000
        0.0000000000        0.0000000000        0.0000000000
        0.0000000000        0.0000000000        0.0000000000
        0.0000000000        0.0000000000        0.0000000000
        0.0000000000        0.0000000000        0.0000000000
        0.0000000000        0.0000000000        0.0000000000
        0.0000000000        0.0000000000        0.0000000000
        0.0000000000        0.0000000000        0.0000000000
        0.0000000000        0.0000000000        0.0000000000
        0.0000000000        1.2637957400       -1.2637957400

 CCSD contribution to dipole derivatives 

        0.0000000000        0.0000000000        0.0000000000
        0.0000000000        0.0000000000        0.0000000000
        0.0000000000        0.0000000000        0.0000000000
        0.0000000000        0.0000000000       -0.0492294574
        0.0000000000        0.0000000000        0.0000000000
        0.0000000000        0.0000000000        0.0000000000
 @CHECKOUT-I, Total execution time (CPU/WALL):     1049.51/     243.31 seconds.
--executable xsdcc finished with status     0 in      243.34 seconds (walltime).
 --invoking executable--
/nfs/workspaces/public/cfour_mpi/bin/xanti
 @GETMEM-I,  Allocated    3814 MB of main memory.
 CCSD MO derivative gammas will be sorted to Mulliken order.
 @CHECKOUT-I, Total execution time (CPU/WALL):        8.80/      15.07 seconds.
--executable xanti finished with status     0 in       15.09 seconds (walltime).
 --invoking executable--
/nfs/workspaces/public/cfour_mpi/bin/xbcktrn
 @GETMEM-I,  Allocated    3814 MB of main memory.
 CCSD MO derivative gammas will be transformed to the AO basis.
 @CHECKOUT-I, Total execution time (CPU/WALL):       21.03/       3.69 seconds.
--executable xbcktrn finished with status     0 in        3.70 seconds (walltime).
 --invoking executable--
/nfs/workspaces/public/cfour_mpi/bin/xvdint
 @GETMEM-I,  Allocated    3814 MB of main memory.
 One- and two-electron integral derivatives are calculated
 for RHF-CC/MBPT hessians and dipole derivatives.
 Spherical gaussians are used.
  magnet F F
                    8722  records have been written to the Sort file.
  Total length of Sort file :             178609116  words.
 Evaluation of 2el integral derivatives

                      Two-electron integral gradient
                      ------------------------------

                         C #1 z     0.0000000000
                         O #2 z     0.0000000000


 C #1       0.0000000000           -0.3146761905            0.0000000000
 O #2       0.0000000000            0.3146761905            0.0000000000


 Evaluation of 2e integral derivatives required  376.27 seconds.
  contribution to Hessian
        0.0000000000        0.0000000000        0.0000000000
        0.0000000000       -0.3146761905        0.3146761905
 @CHECKOUT-I, Total execution time (CPU/WALL):      376.25/      74.02 seconds.
--executable xvdint finished with status     0 in       74.06 seconds (walltime).
 --invoking executable--
/nfs/workspaces/public/cfour_mpi/bin/xanti
 @GETMEM-I,  Allocated    3814 MB of main memory.
 CCSD MO gammas will be sorted to Mulliken order.
 @CHECKOUT-I, Total execution time (CPU/WALL):       11.17/       9.81 seconds.
--executable xanti finished with status     0 in        9.83 seconds (walltime).
 --invoking executable--
/nfs/workspaces/public/cfour_mpi/bin/xbcktrn
 @GETMEM-I,  Allocated    3814 MB of main memory.
 CCSD MO gammas will be transformed to the AO basis.
 @CHECKOUT-I, Total execution time (CPU/WALL):       29.20/       5.11 seconds.
--executable xbcktrn finished with status     0 in        5.12 seconds (walltime).
 --invoking executable--
/nfs/workspaces/public/cfour_mpi/bin/xvdint
 @GETMEM-I,  Allocated    3814 MB of main memory.
 One- and two-electron integral derivatives are calculated
 for RHF-CC/MBPT hessians and dipole derivatives.
 Spherical gaussians are used.
  magnet F F

                     Kinetic energy integral gradient
                     --------------------------------

                         C #1 z    -1.1788333094
                         O #2 z     1.1788333094


 C #1       0.0000000000            0.0000000000           -1.1788333094
 O #2       0.0000000000            0.0000000000            1.1788333094



                   Nuclear attraction integral gradient
                   ------------------------------------

                         C #1 z    20.7166191625
                         O #2 z   -20.7166191625


 C #1       0.0000000000            0.0000000000           20.7166191625
 O #2       0.0000000000            0.0000000000          -20.7166191625



                      Reorthonormalization gradient
                      -----------------------------

                         C #1 z     0.0000000000
                         O #2 z     0.0000000000


 C #1       0.0000000000            0.0000000000            0.0000000000
 O #2       0.0000000000            0.0000000000            0.0000000000



                     Kinetic energy integral Hessian
                     -------------------------------


           Symmetry 1

           C #1 z      O #2 z

 C #1 z    1.039666
 O #2 z   -1.039666    1.039666


           Symmetry 2

           C #1 x      O #2 x

 C #1 x   -1.335393
 O #2 x    1.335393   -1.335393


           Symmetry 3

           C #1 y      O #2 y

 C #1 y   -1.335393
 O #2 y    1.335393   -1.335393




           C #1 x      C #1 y      C #1 z      O #2 x      O #2 y      O #2 z

 C #1 x   -1.335393
 C #1 y    0.000000   -1.335393
 C #1 z    0.000000    0.000000    1.039666

 O #2 x    1.335393    0.000000    0.000000   -1.335393
 O #2 y    0.000000    1.335393    0.000000    0.000000   -1.335393
 O #2 z    0.000000    0.000000   -1.039666    0.000000    0.000000    1.039666




                   Nuclear attraction integral Hessian
                   -----------------------------------


           Symmetry 1

           C #1 z      O #2 z

 C #1 z  -12.460672
 O #2 z   12.460672  -12.460672


           Symmetry 2

           C #1 x      O #2 x

 C #1 x   16.056761
 O #2 x  -16.056761   16.056761


           Symmetry 3

           C #1 y      O #2 y

 C #1 y   16.056761
 O #2 y  -16.056761   16.056761




           C #1 x      C #1 y      C #1 z      O #2 x      O #2 y      O #2 z

 C #1 x   16.056761
 C #1 y    0.000000   16.056761
 C #1 z    0.000000    0.000000  -12.460672

 O #2 x  -16.056761    0.000000    0.000000   16.056761
 O #2 y    0.000000  -16.056761    0.000000    0.000000   16.056761
 O #2 z    0.000000    0.000000   12.460672    0.000000    0.000000  -12.460672




                Highest order reorthonormalization Hessian
                ------------------------------------------


           Symmetry 1

           C #1 z      O #2 z

 C #1 z    0.000000
 O #2 z    0.000000    0.000000


           Symmetry 2

           C #1 x      O #2 x

 C #1 x    0.000000
 O #2 x    0.000000    0.000000


           Symmetry 3

           C #1 y      O #2 y

 C #1 y    0.000000
 O #2 y    0.000000    0.000000




           C #1 x      C #1 y      C #1 z      O #2 x      O #2 y      O #2 z




                Electronic contributions to dipole moment
                -----------------------------------------

                               au             Debye

                    z      0.09927936      0.25234300

  Conversion factor used: 1 a.u. =   2.54174691 Debye 



   Electronic contributions to static part of dipole moment derivatives
   --------------------------------------------------------------------


                     Total dipole moment derivatives
                     -------------------------------


           Symmetry 1
                              Ez

               C #1 z    -5.68540679
               O #2 z    -8.31459321

           Symmetry 2
                              Ex

               C #1 x    -5.73226690
               O #2 x    -8.26773310

           Symmetry 3
                              Ey

               C #1 y    -5.73226690
               O #2 y    -8.26773310



                       Ex          Ey          Ez

      C #1    x   -5.732267    0.000000    0.000000
      C #1    y    0.000000   -5.732267    0.000000
      C #1    z    0.000000    0.000000   -5.685407

      O #2    x   -8.267733    0.000000    0.000000
      O #2    y    0.000000   -8.267733    0.000000
      O #2    z    0.000000    0.000000   -8.314593

 Evaluation of 1e integral derivatives required    1.64 seconds.
                    8815  records have been written to the Sort file.
  Total length of Sort file :             180513570  words.
 Evaluation of 2el integral derivatives

                      Two-electron integral gradient
                      ------------------------------

                         C #1 z   -10.1784316464
                         O #2 z    10.1784316464


 C #1       0.0000000000            0.0000000000          -10.1784316464
 O #2       0.0000000000            0.0000000000           10.1784316464


 Evaluation of 2e integral derivatives required  665.39 seconds.

                            Molecular gradient
                            ------------------

                         C #1 z     0.6369880193
                         O #2 z    -0.6369880193


 C #1       0.0000000000            0.0000000000            0.6369880193
 O #2       0.0000000000            0.0000000000           -0.6369880193


  Molecular gradient norm 0.901E+00

                            Molecular hessian
                            -----------------


           Symmetry 1

           C #1 z      O #2 z

 C #1 z   48.514791
 O #2 z  -48.514791   48.514791


           Symmetry 2

           C #1 x      O #2 x

 C #1 x   -0.688555
 O #2 x    0.688555   -0.688555


           Symmetry 3

           C #1 y      O #2 y

 C #1 y   -0.688555
 O #2 y    0.688555   -0.688555




           C #1 x      C #1 y      C #1 z      O #2 x      O #2 y      O #2 z

 C #1 x   -0.688555
 C #1 y    0.000000   -0.688555
 C #1 z    0.000000    0.000000   48.514791

 O #2 x    0.688555    0.000000    0.000000   -0.688555
 O #2 y    0.000000    0.688555    0.000000    0.000000   -0.688555
 O #2 z    0.000000    0.000000  -48.514791    0.000000    0.000000   48.514791




                           Total dipole moment
                           -------------------

                               au             Debye

                    z      0.09672255      0.24584424

  Conversion factor used: 1 a.u. =   2.54174691 Debye 



                     Total dipole moment derivatives
                     -------------------------------


           Symmetry 1
                              Ez

               C #1 z     0.71480778
               O #2 z    -0.71480778

           Symmetry 2
                              Ex

               C #1 x     0.03937392
               O #2 x    -0.03937392

           Symmetry 3
                              Ey

               C #1 y     0.03937392
               O #2 y    -0.03937392



                       Ex          Ey          Ez

      C #1    x    0.039374    0.000000    0.000000
      C #1    y    0.000000    0.039374    0.000000
      C #1    z    0.000000    0.000000    0.714808

      O #2    x   -0.039374    0.000000    0.000000
      O #2    y    0.000000   -0.039374    0.000000
      O #2    z    0.000000    0.000000   -0.714808

 @CHECKOUT-I, Total execution time (CPU/WALL):      667.03/     112.03 seconds.
--executable xvdint finished with status     0 in      112.06 seconds (walltime).
 --invoking executable--
/nfs/workspaces/public/cfour_mpi/bin/xjoda
  @GTFLGS-I, Hessian will be transformed to curvilinear coordinates.
  @GTFLGS-I, Hessian will be transformed to curvilinear coordinates.
  igrd and ihes are                      0                     1
  gradient from JOBARC 
   0.000000000000000   0.000000000000000   0.636988019281573
   0.000000000000000   0.000000000000000  -0.636988019281573
 
  @PROJFCM-I, Projecting force constant matrix onto totally symmetric subspace.
  Largest difference between matrix elements of symmetrized
  and unsymmetrized FCM :    -0.3625433287E-11.
  read isotopes from ZMAT file 
 
  Summary of diagonal Born-Oppenheimer correction at the correlated level
  The total diagonal Born-Oppenheimer correction (DBOC) is:      0.0041393665 a.u.
  The total diagonal Born-Oppenheimer correction (DBOC) is:        908.485944 cm-1
  The total diagonal Born-Oppenheimer correction (DBOC) is:            10.868 kJ/mole
  hellooooooo 
  readis is  F
 
 @CHECKOUT-I, Total execution time (CPU/WALL):        0.01/       0.05 seconds.
--executable xjoda finished with status     0 in        0.07 seconds (walltime).
  The final electronic energy is      -113.256344208250482 a.u. 
  This computation required                         2459.75 seconds (walltime).
