 --invoking executable--
/nfs/workspaces/public/cfour_mpi/bin/xjoda


   *************************************************************************
         <<<     CCCCCC     CCCCCC   |||     CCCCCC     CCCCCC   >>>
       <<<      CCC        CCC       |||    CCC        CCC         >>>
      <<<      CCC        CCC        |||   CCC        CCC            >>>
    <<<        CCC        CCC        |||   CCC        CCC              >>>
      <<<      CCC        CCC        |||   CCC        CCC            >>>
       <<<      CCC        CCC       |||    CCC        CCC         >>>
         <<<     CCCCCC     CCCCCC   |||     CCCCCC     CCCCCC   >>>
   *************************************************************************

     ****************************************************************
     * CFOUR Coupled-Cluster techniques for Computational Chemistry *
     ****************************************************************
 

   Department of Chemistry                Institut fuer Physikalische Chemie
   University of Florida                  Universitaet Mainz
   Gainesville, FL 32611, USA             D-55099 Mainz, Germany

   Department of Chemistry                Fakultaet fuer Chemie und Biowiss.
   Johns Hopkins University               Karlsruher Institut fuer Technologie
   Baltimore, MD 21218, USA               D-76131 Karlsruhe, Germany

   Department of Chemistry                Department of Physical Chemistry
   Southern Methodist University          Eotvos Lorand University
   Dallas, TX 75275, USA                  H-1053 Budapest, Hungary

 
                       Version 2.1
 
                     vincent.theory.phys.ucl.ac.uk                     
                     Mon 24 Feb 19:55:12 GMT 2025                      
                     integer*8 version is running
 
********************************************************************************
*                          Input from ZMAT file                                *
********************************************************************************
Carbon Monoxide DBOC calculation                                                
C                                                                               
O 1 r                                                                           
                                                                                
r=1.0551724137931036                                                            
                                                                                
                                                                                
*CFOUR(CALC=CCSD,BASIS=AUG-PCVQZ,SCF_CONV=10                                    
CC_CONV=14,DBOC=ON,MEMORY=500000000                                             
ZFIELD=-200)                                                                    
                                                                                
%isotopes                                                                       
12                                                                              
16                                                                              
********************************************************************************
  @GTFLGS-I, Hessian will be transformed to curvilinear coordinates.
    -------------------------------------------------------------------
                    CFOUR Control Parameters 
    -------------------------------------------------------------------
        External           Internal           Value            Units
          Name               Name
    -------------------------------------------------------------------
       ABCDTYPE             IABCDT         STANDARD    [  0]    ***   
       ANHARMONIC           IANHAR         OFF         [  0]    ***   
       ANH_ALGORIT          IANALG         STANDARD    [  0]    ***   
       ANH_DERIVAT          IANDER         SECOND      [  1]    ***   
       ANH_MODE             ANHMOD         VIBRATION   [  0]    ***   
       ANH_STEPSIZ          ICUBST             50000          x 10-6  
       ANH_SYMMETR          IANHSM         ABELIAN     [  0]    ***   
       AO_LADDERS           IAOLAD         SINGLEPASS  [  1]    ***   
       AV_SCF               IAVSCF         OFF         [  0]    ***   
       BASIS                IBASIS         AUG-PCVQZ   [ 52]    ***   
       BOTHVECTORS          BOTHVC         OFF         [  0]    ***   
       BOX_POTENT           IPIAB          OFF         [  0]    ***   
       BREIT                IBREIT         OFF         [  0]    ***   
       BRUCK_CONV           IBRTOL          10D-  4             ***   
       BRUECKNER            IBRKNR         OFF         [  0]    ***   
       BUFFERSIZE           IBUFFS              4096            ***   
       CACHE_RECS           ICHREC             10               ***   
       CALCLEVEL            ICLLVL         CCSD        [ 10]    ***   
       CCORBOPT             ICCORB         OFF         [  0]  x 0.01  
       CC_CONV              ICCCNV          10D- 14             ***   
       CC_EXPORDER          ICCEOR              5               ***   
       CC_EXTRAPOL          ICCEXT         DIIS        [  1]    ***   
       CC_GUESS             ICCGES         MP2         [  0]    ***   
       CC_MAXCYC            ICCCYC            100              cycles 
       CC_PROGRAM           ICCPRO         VCC         [  0]    ***   
       CHARGE               ICHRGE              0               ***   
       CHOLESKY             ICHOLE         OFF         [  0]    ***   
       CIS_CONV             ICISTL              5               ***   
       COMM_SIZE            IPSIZE            ***               ***   
       CONSTANT             ICONST         OLD         [  1]    ***   
       CONTINUUM            ICONTU         NONE        [  0]    ***   
       CONTRACTION          ICNTYP         GENERAL     [  1]    ***   
       COORDINATES          ICOORD         INTERNAL    [  0]    ***   
       CPHF_CONVER          ICPHFT          10D- 16             ***   
       CPHF_MAXCYC          ICPHFC             64              cycles 
       CUBIC                ICUBIC         OFF         [  0]    ***   
       CURVILINEAR          ICURVY         ON          [  1]    ***   
       DBOC                 IDBOC          ON          [  1]    ***   
       DCT                  IDCT           OFF         [  0]    ***   
       DERIV_LEV            IDRLVL         SECOND      [  2]    ***   
       DEVMEM_SIZE          IDVMEM          50000000           MByte  
       DIAG_MRCC            IEOMST          10D-  0             ***   
       DIFF_TYPE            IDIFTY         RELAXED     [  0]    ***   
       DIRECT               IDIRCT         OFF         [  0]    ***   
       DROPMO               IDRPMO      NONE         
       ECP                  IECP           OFF         [  0]    ***   
       EIGENVECTOR          IVEC                1               ***   
       EL_ANHARM            IELANH         OFF         [  0]    ***   
       EOMFOLLOW            IEOMSR         ENERGY      [  0]    ***   
       EOMIP                IEOMIP         OFF         [  0]    ***   
       EOMLEVEL             HBARFM         SAME        [  0]    ***   
       EOM_MRCC             IMRCCE         NEW         [  1]    ***   
       EOM_NONIT            EOMNON         OFF         [  0]    ***   
       EOM_NSING            IEOMSI          10D-  0             ***   
       EOM_NSTATES          IMRCCD         DAVIDSON    [  0]    ***   
       EOM_NTRIP            IEOMTR          10D-  0             ***   
       EOM_ORDER            IEXORD         ENERGY      [  0]    ***   
       EOM_PROPSTA          IEOMST              0               ***   
       ESTATE_CONV          IEXTOL          10D-  5             ***   
       ESTATE_DIAG          IEXDIG         ITERATIVE   [  0]    ***   
       ESTATE_LOCK          IESLOC         ON          [  1]    ***   
       ESTATE_MAXC          IEXMXC             40               ***   
       ESTATE_PROP          IEXPRP         OFF         [  0]    ***   
       EVAL_HESS            IRECAL              0            # of cyc.
       EXCITATION           IEXCIT              0               ***   
       EXCITE               IEXCIT         NONE        [  0]    ***   
       EXTERN_POT           IEXPOT         OFF         [  0]    ***   
       FCGRADNEW            IFCGNW         OFF         [  0]    ***   
       FC_FIELD             IFINFC              0             x 10-6  
       FD_CALTYPE           IFDCAL         GRADONLY    [  0]    ***   
       FD_PROJECT           IFDPRJ         OFF         [  1]    ***   
       FD_STEPSIZE          IDISFD              0            10-4 bohr
       FD_USEGROUP          IFDGRP         FULL        [  0]    ***   
       FILE_RECSIZ          IFLREC              4096           words  
       FINITE_PERT          IFIPER              0             x 10-6  
       FIXGEOM              IFIXGM         OFF         [  0]    ***   
       FOCK                 IFOCK          AO          [  1]    ***   
       FREQ_ALGORI          IVIALG         STANDARD    [  0]    ***   
       FROZEN_CORE          IFROCO         OFF         [  0]    ***   
       GAMMA_ABCD           IGABCD         STORE       [  0]    ***   
       GAMMA_ABCI           IGABCI         STORE       [  0]    ***   
       GENBAS_1             IGNBS1              0               ***   
       GENBAS_2             IGNBS2              0               ***   
       GENBAS_3             IGNBS3              0               ***   
       GENBAS_4             IGNBS4              0               ***   
       GEO_CONV             ICONTL              5              H/bohr 
       GEO_MAXCYC           IOPTCY             50               ***   
       GEO_MAXSTEP          IMXSTP            300            millibohr
       GEO_METHOD           INR            SINGLE_POINT[  5]    ***   
       GIAO                 IGIAO          OFF         [  1]    ***   
       GIMIC                IGIMIC         OFF         [  0]    ***   
       GRID                 IGRID          OFF         [  0]    ***   
       GRID_ALGO            IGALGO         SERIAL      [  0]    ***   
       GUESS                IGUESS         MOREAD      [  0]    ***   
       HBAR                 IHBAR          OFF         [  0]    ***   
       HESS_TYPE            IHESTP         SCF         [  0]    ***   
       HF2_FILE             IHF2Fl         USE         [  1]    ***   
       HFSTABILITY          ISTABL         OFF         [  0]    ***   
       INCORE               INCORE         OFF         [  0]    ***   
       INPUT_MRCC           IMRCC          ON          [  1]    ***   
       INTEGRALS            INTTYP         VMOL        [  1]    ***   
       JODA_PRINT           IJPRNT              0               ***   
       KEYWORD_OUT          IDMPKW         NO          [  0]    ***   
       LINDEP_TOL           ILINDP              8               ***   
       LINEQ_CONV           IZTACN          10D-  7           cycles  
       LINEQ_EXPOR          ILMAXD              5               ***   
       LINEQ_MAXCY          ILMAXC            100               ***   
       LINEQ_TYPE           ILTYPE         DIIS        [  1]    ***   
       LOCK_ORBOCC          ILOCOC         OFF         [  0]    ***   
       MEMORY_SIZE          IMEMSZ         500000000           words  
       MEM_UNIT             IMEMU          INTEGERWORDS[  0]    ***   
       MRCC                 IMRCCC         OFF         [  0]    ***   
       MULTIPLICTY          IMULTP              1               ***   
       NACOUPLING           IVCOUP         OFF         [  0]    ***   
       NEGEVAL              IDIE           ABORT       [  0]    ***   
       NEWNORM              INEWNO         OFF         [  0]    ***   
       NON-HF               INONHF         OFF         [  0]    ***   
       NTOP_TAMP            ITOPT2             15               ***   
       NUC_MODEL            INUCMO         POINT       [  0]    ***   
       OCCUPATION           IOCCU   ESTIMATED BY SCF 
       OPEN-SHELL           IOPEN          SPIN-ORBITAL[  0]    ***   
       OPTVIB               IOPTVB         OFF         [  0]    ***   
       ORBITALS             IORBTP         STANDARD    [  0]    ***   
       PARALLEL             IPARAL         ON          [  1]    ***   
       PARA_INT             IPINTS         ON          [  1]    ***   
       PARA_PRINT           IPPRIN              0               ***   
       PERT_ORB             IPTORB         STANDARD    [  0]    ***   
       POINTS               IGRDFD              0               ***   
       PRINT                IPRNT               0               ***   
       PROPS                IPROPS         OFF         [  0]    ***   
       PROP_INTEGR          IINTYP         INTERNAL    [  0]    ***   
       PSI                  IPSI           OFF         [  0]    ***   
       QC_ALG               IQCALG         FLM         [  0]    ***   
       QC_LINALG            IQCLIN         TRIDIAG     [  2]    ***   
       QC_MAXCYC            IQCMAX          10D-100           cycles  
       QC_MAXSCFCY          IQCMSC          10D- 15           cycles  
       QC_RTRUST            IQCRTR          10D-  0           x 10-3  
       QC_SKIPSCF           IQCSKI         OFF         [  0]    ***   
       QC_START             IQCSTA          10D-  1             ***   
       QRHFGUESS            IQGUES         OFF         [  0]    ***   
       QUARTIC              IQUART         OFF         [  0]    ***   
       RAMAN_INT            IRAMIN         OFF         [  0]    ***   
       RAMAN_ORB            IRAMRE         UNRELAXED   [  0]    ***   
       RDO                  IRDOFM         ON          [  1]    ***   
       REDUCE_REPR          REDREP         Ir          [  0]    ***   
       REFERENCE            IREFNC         RHF         [  0]    ***   
       RELATIVIST           IRELAT         OFF         [  0]    ***   
       RELAX_DENS           IRDENS         ON          [  1]    ***   
       RESET_FLAGS          IRESET         OFF         [  0]    ***   
       RESTART_CC           ICCRES         OFF         [  0]    ***   
       ROT_EVEC             ROTVEC              0               ***   
       SAVE_INTS            ISVINT         OFF         [  0]    ***   
       SCALE_ON             ISTCRT              0               ***   
       SCF_CONV             ISCFCV          10D- 10             ***   
       SCF_DAMPING          IDAMP               0             x 10-3  
       SCF_EXPORDE          IRPPOR              6               ***   
       SCF_EXPSTAR          IRPPLS              8               ***   
       SCF_EXTRAPO          IRPP           ON          [  1]    ***   
       SCF_MAXCYC           ISCFCY            150              cycles 
       SCF_NOSTOP           ISCFST         OFF         [  0]    ***   
       SCF_PRINT            ISCFPR              0               ***   
       SCF_PROG             ISCFPR         SCF         [  0]    ***   
       SD_FIELD             IFINSD              0             x 10-6  
       SOPERT               IPERSO         OFF         [  0]    ***   
       SPHERICAL            IDFGHI         ON          [  1]    ***   
       SPINORBIT            ISOCAL         OFF         [  0]    ***   
       SPINROTATIO          ISRCON         OFF         [  0]    ***   
       SPIN_FLIP            ISPFLP         OFF         [  0]    ***   
       SPIN_ORBIT           ISPORB         OFF         [  0]    ***   
       SPIN_SCAL            ISCSMP         OFF         [  0]    ***   
       STEEPSCALE           ISTPSC              1000          x 10-3  
       SUBGROUP             ISUBGP         DEFAULT     [  0]    ***   
       SUBGRPAXIS           ISBXYZ         X           [  0]    ***   
       SYMMETRY             ISYM           ON          [  0]    ***   
       SYM_CHECK            ISYMCK         OVERRIDE    [  1]    ***   
       T3_EXTRAPOL          IT3EXT         OFF         [  0]    ***   
       T4_EXTRAPOL          IT4EXP         OFF         [  0]    ***   
       TAMP_SUM             IEVERY              5               ***   
       TESTSUITE            ITESTS         OFF         [  0]    ***   
       THERMOCH             ITHERM         OFF         [  0]    ***   
       TOL_CHOLESK          ITOLCH          10D-  4             ***   
       TRANGRAD             IRESRM         OFF         [  0]    ***   
       TRANS_INV            ITRAIN         IGNORE      [  1]    ***   
       TREAT_PERT           ITREAT         SIMULTANEOUS[  0]    ***   
       TRIP_ALGORI          ITRALG         NORMAL      [  0]    ***   
       UIJ_THRESHO          IUIJTH              1               ***   
       UNITS                IUNITS         ANGSTROM    [  0]    ***   
       UNOS                 IUNOS          OFF         [  0]    ***   
       UPDATE_HESS          IHUPDT         ON          [  1]    ***   
       VIBPHASE             ISETPH         STANDARD    [  0]    ***   
       VIBRATION            IVIB           ANALYTIC    [  1]    ***   
       VIB_ALGORIT          IGEALG         STANDARD    [  0]    ***   
       VNATORB              IVNORB         OFF         [  0]    ***   
       VTRAN                IVTRAN         FULL/PARTIAL[  0]    ***   
       XFIELD               IXEFLD              0             x 10-6  
       XFORM_TOL            IXFTOL          10D- 11             ***   
       YFIELD               IYEFLD              0             x 10-6  
       ZFIELD               IZEFLD            ***             x 10-6  
       ZSCALE_EXP           IZEXPS         OFF         [  0]    ***   
    -------------------------------------------------------------------
   2 entries found in Z-matrix 
   Job Title : Carbon Monoxide DBOC calculation                                                
   There are  1 unique internal coordinates.
   Of these,  0 will be optimized.
   User supplied Z-matrix: 
--------------------------------------------------------------------------------
       SYMBOL    BOND      LENGTH    ANGLE     ANGLE     DIHED     ANGLE
                  TO      (ANGST)    WRT      (DEG)      WRT      (DEG)
--------------------------------------------------------------------------------
        C    
        O          1         r    
                  *Initial values for internal coordinates* 
                      Name             Value
                        r               1.0551724138
--------------------------------------------------------------------------------
  read isotopes from ZMAT file 
   Rotational constants (in cm-1): 
          2.2083386474             2.2083386474
   Rotational constants (in MHz): 
      66204.3363939036         66204.3363939036
********************************************************************************
   The full molecular point group is CXv .
   The largest Abelian subgroup of the full molecular point group is C2v .
   The computational point group is C2v .
********************************************************************************
--------------------------------------------------------------------------------
   Analysis of internal coordinates specified by Z-matrix 
--------------------------------------------------------------------------------
   *The nuclear repulsion energy is   24.072370039215681 a.u.
   *There is   1 degree of freedom within the tot. symm. molecular subspace.
   *Z-matrix requests optimization of   0 coordinates.
   *The optimization is constrained.
   *The following   1 parameters can have non-zero 
    derivatives within the totally symmetric subspace:
             r    [ 1]
   *The following   0 parameters are to be optimized:

   *The following coordinates must be varied in an  unconstrained optimization.
             r    [ 1]
--------------------------------------------------------------------------------


 ----------------------------------------------------------------
         Coordinates used in calculation (QCOMP) 
 ----------------------------------------------------------------
 Z-matrix   Atomic            Coordinates (in bohr)
  Symbol    Number           X              Y              Z
 ----------------------------------------------------------------
     C         6        -0.00000000     0.00000000     1.13926608
     O         8         0.00000000     0.00000000    -0.85472122
 ----------------------------------------------------------------
 
   Interatomic distance matrix (Angstroms) 
 
                 C             O    
                [ 1]        [ 2]
  C    [ 1]     0.00000
  O    [ 2]     1.05517     0.00000
 rotcon2
   Rotational constants (in cm-1): 
          2.2083386474             0.0000000000
   Rotational constants (in MHz): 
      66204.3363939036             0.0000000000
  ECPDATA file not present.   Using default ECPDATA. 
  @GTFLGS-I, Hessian will be transformed to curvilinear coordinates.
  There are  218 basis functions.
 @CHECKOUT-I, Total execution time (CPU/WALL):        0.09/       0.14 seconds.
--executable xjoda finished with status     0 in        0.15 seconds (walltime).
 --invoking executable--
/nfs/workspaces/public/cfour_mpi/bin/xvmol
 SERIAL VERSION OF MOLECULE STARTED
********************************************************************************
                    INPUT FROM MOL FILE
********************************************************************************
INTGRL        1    0    1    0    0    0    0    0    0                         
         *** CFOUR Program System (Release V0.1) ***                            
Carbon Monoxide DBOC calculation                                                
    2    2 X  Y       0.10E-08              0    0                              
   9999.00      3.00                                                            
          6.00000000    1    5    1    1    1    1    1                         
C #1  -0.000000000000000   0.000000000000000   1.139266076210975                
   16    9                                                                      
   33980.0000000000       9.100000000000000E-005 -1.900000000000000E-005        
  0.000000000000000E+000  0.000000000000000E+000  0.000000000000000E+000        
  0.000000000000000E+000  0.000000000000000E+000  0.000000000000000E+000        
  0.000000000000000E+000                                                        
   5089.00000000000       7.040000000000000E-004 -1.510000000000000E-004        
  0.000000000000000E+000  0.000000000000000E+000  0.000000000000000E+000        
  0.000000000000000E+000  0.000000000000000E+000  0.000000000000000E+000        
  0.000000000000000E+000                                                        
   1157.00000000000       3.693000000000000E-003 -7.850000000000000E-004        
  0.000000000000000E+000  0.000000000000000E+000  0.000000000000000E+000        
  0.000000000000000E+000  0.000000000000000E+000  0.000000000000000E+000        
  0.000000000000000E+000                                                        
   326.600000000000       1.536000000000000E-002 -3.324000000000000E-003        
  0.000000000000000E+000  0.000000000000000E+000  0.000000000000000E+000        
  0.000000000000000E+000  0.000000000000000E+000  0.000000000000000E+000        
  0.000000000000000E+000                                                        
   106.100000000000       5.292900000000000E-002 -1.151200000000000E-002        
  0.000000000000000E+000  0.000000000000000E+000  0.000000000000000E+000        
  0.000000000000000E+000  0.000000000000000E+000  0.000000000000000E+000        
  0.000000000000000E+000                                                        
   38.1100000000000       0.147043000000000      -3.416000000000000E-002        
  0.000000000000000E+000  0.000000000000000E+000  0.000000000000000E+000        
  0.000000000000000E+000  0.000000000000000E+000  0.000000000000000E+000        
  0.000000000000000E+000                                                        
   14.7500000000000       0.305631000000000      -7.717300000000001E-002        
  0.000000000000000E+000  0.000000000000000E+000  0.000000000000000E+000        
  0.000000000000000E+000  0.000000000000000E+000  0.000000000000000E+000        
  0.000000000000000E+000                                                        
   6.03500000000000       0.399345000000000      -0.141493000000000             
  0.000000000000000E+000  0.000000000000000E+000  0.000000000000000E+000        
  0.000000000000000E+000  0.000000000000000E+000  0.000000000000000E+000        
  0.000000000000000E+000                                                        
   2.53000000000000       0.217051000000000      -0.118019000000000             
  0.000000000000000E+000  0.000000000000000E+000  0.000000000000000E+000        
  0.000000000000000E+000  0.000000000000000E+000  0.000000000000000E+000        
  0.000000000000000E+000                                                        
  0.735500000000000       1.589400000000000E-002  0.273806000000000             
   1.00000000000000       0.000000000000000E+000  0.000000000000000E+000        
  0.000000000000000E+000  0.000000000000000E+000  0.000000000000000E+000        
  0.000000000000000E+000                                                        
  0.290500000000000      -3.084000000000000E-003  0.586510000000000             
  0.000000000000000E+000   1.00000000000000       0.000000000000000E+000        
  0.000000000000000E+000  0.000000000000000E+000  0.000000000000000E+000        
  0.000000000000000E+000                                                        
  0.111100000000000       9.779999999999999E-004  0.285430000000000             
  0.000000000000000E+000  0.000000000000000E+000   1.00000000000000             
  0.000000000000000E+000  0.000000000000000E+000  0.000000000000000E+000        
  0.000000000000000E+000                                                        
   7.21600000000000       0.000000000000000E+000  0.000000000000000E+000        
  0.000000000000000E+000  0.000000000000000E+000  0.000000000000000E+000        
   1.00000000000000       0.000000000000000E+000  0.000000000000000E+000        
  0.000000000000000E+000                                                        
   19.5700000000000       0.000000000000000E+000  0.000000000000000E+000        
  0.000000000000000E+000  0.000000000000000E+000  0.000000000000000E+000        
  0.000000000000000E+000   1.00000000000000       0.000000000000000E+000        
  0.000000000000000E+000                                                        
   53.0730000000000       0.000000000000000E+000  0.000000000000000E+000        
  0.000000000000000E+000  0.000000000000000E+000  0.000000000000000E+000        
  0.000000000000000E+000  0.000000000000000E+000   1.00000000000000             
  0.000000000000000E+000                                                        
  4.145000000000000E-002  0.000000000000000E+000  0.000000000000000E+000        
  0.000000000000000E+000  0.000000000000000E+000  0.000000000000000E+000        
  0.000000000000000E+000  0.000000000000000E+000  0.000000000000000E+000        
   1.00000000000000                                                             
   10    8                                                                      
   34.5100000000000       5.378000000000000E-003  0.000000000000000E+000        
  0.000000000000000E+000  0.000000000000000E+000  0.000000000000000E+000        
  0.000000000000000E+000  0.000000000000000E+000  0.000000000000000E+000        
   7.91500000000000       3.613200000000000E-002  0.000000000000000E+000        
  0.000000000000000E+000  0.000000000000000E+000  0.000000000000000E+000        
  0.000000000000000E+000  0.000000000000000E+000  0.000000000000000E+000        
   2.36800000000000       0.142493000000000       0.000000000000000E+000        
  0.000000000000000E+000  0.000000000000000E+000  0.000000000000000E+000        
  0.000000000000000E+000  0.000000000000000E+000  0.000000000000000E+000        
  0.813200000000000       0.342150000000000        1.00000000000000             
  0.000000000000000E+000  0.000000000000000E+000  0.000000000000000E+000        
  0.000000000000000E+000  0.000000000000000E+000  0.000000000000000E+000        
  0.289000000000000       0.463864000000000       0.000000000000000E+000        
   1.00000000000000       0.000000000000000E+000  0.000000000000000E+000        
  0.000000000000000E+000  0.000000000000000E+000  0.000000000000000E+000        
  0.100700000000000       0.250028000000000       0.000000000000000E+000        
  0.000000000000000E+000   1.00000000000000       0.000000000000000E+000        
  0.000000000000000E+000  0.000000000000000E+000  0.000000000000000E+000        
   8.18200000000000       0.000000000000000E+000  0.000000000000000E+000        
  0.000000000000000E+000  0.000000000000000E+000   1.00000000000000             
  0.000000000000000E+000  0.000000000000000E+000  0.000000000000000E+000        
   24.1860000000000       0.000000000000000E+000  0.000000000000000E+000        
  0.000000000000000E+000  0.000000000000000E+000  0.000000000000000E+000        
   1.00000000000000       0.000000000000000E+000  0.000000000000000E+000        
   71.4940000000000       0.000000000000000E+000  0.000000000000000E+000        
  0.000000000000000E+000  0.000000000000000E+000  0.000000000000000E+000        
  0.000000000000000E+000   1.00000000000000       0.000000000000000E+000        
  3.218000000000000E-002  0.000000000000000E+000  0.000000000000000E+000        
  0.000000000000000E+000  0.000000000000000E+000  0.000000000000000E+000        
  0.000000000000000E+000  0.000000000000000E+000   1.00000000000000             
    6    6                                                                      
   1.84800000000000        1.00000000000000       0.000000000000000E+000        
  0.000000000000000E+000  0.000000000000000E+000  0.000000000000000E+000        
  0.000000000000000E+000                                                        
  0.649000000000000       0.000000000000000E+000   1.00000000000000             
  0.000000000000000E+000  0.000000000000000E+000  0.000000000000000E+000        
  0.000000000000000E+000                                                        
  0.228000000000000       0.000000000000000E+000  0.000000000000000E+000        
   1.00000000000000       0.000000000000000E+000  0.000000000000000E+000        
  0.000000000000000E+000                                                        
   8.65600000000000       0.000000000000000E+000  0.000000000000000E+000        
  0.000000000000000E+000   1.00000000000000       0.000000000000000E+000        
  0.000000000000000E+000                                                        
   33.2130000000000       0.000000000000000E+000  0.000000000000000E+000        
  0.000000000000000E+000  0.000000000000000E+000   1.00000000000000             
  0.000000000000000E+000                                                        
  7.660000000000000E-002  0.000000000000000E+000  0.000000000000000E+000        
  0.000000000000000E+000  0.000000000000000E+000  0.000000000000000E+000        
   1.00000000000000                                                             
    4    4                                                                      
   1.41900000000000        1.00000000000000       0.000000000000000E+000        
  0.000000000000000E+000  0.000000000000000E+000                                
  0.485000000000000       0.000000000000000E+000   1.00000000000000             
  0.000000000000000E+000  0.000000000000000E+000                                
   24.6940000000000       0.000000000000000E+000  0.000000000000000E+000        
   1.00000000000000       0.000000000000000E+000                                
  0.187000000000000       0.000000000000000E+000  0.000000000000000E+000        
  0.000000000000000E+000   1.00000000000000                                     
    2    2                                                                      
   1.01100000000000        1.00000000000000       0.000000000000000E+000        
  0.424000000000000       0.000000000000000E+000   1.00000000000000             
          8.00000000    1    5    1    1    1    1    1                         
O #2   0.000000000000000   0.000000000000000  -0.854721218010758                
   16    9                                                                      
   61420.0000000000       9.000000000000001E-005 -2.000000000000000E-005        
  0.000000000000000E+000  0.000000000000000E+000  0.000000000000000E+000        
  0.000000000000000E+000  0.000000000000000E+000  0.000000000000000E+000        
  0.000000000000000E+000                                                        
   9199.00000000000       6.980000000000001E-004 -1.590000000000000E-004        
  0.000000000000000E+000  0.000000000000000E+000  0.000000000000000E+000        
  0.000000000000000E+000  0.000000000000000E+000  0.000000000000000E+000        
  0.000000000000000E+000                                                        
   2091.00000000000       3.664000000000000E-003 -8.290000000000000E-004        
  0.000000000000000E+000  0.000000000000000E+000  0.000000000000000E+000        
  0.000000000000000E+000  0.000000000000000E+000  0.000000000000000E+000        
  0.000000000000000E+000                                                        
   590.900000000000       1.521800000000000E-002 -3.508000000000000E-003        
  0.000000000000000E+000  0.000000000000000E+000  0.000000000000000E+000        
  0.000000000000000E+000  0.000000000000000E+000  0.000000000000000E+000        
  0.000000000000000E+000                                                        
   192.300000000000       5.242300000000000E-002 -1.215600000000000E-002        
  0.000000000000000E+000  0.000000000000000E+000  0.000000000000000E+000        
  0.000000000000000E+000  0.000000000000000E+000  0.000000000000000E+000        
  0.000000000000000E+000                                                        
   69.3200000000000       0.145921000000000      -3.626100000000000E-002        
  0.000000000000000E+000  0.000000000000000E+000  0.000000000000000E+000        
  0.000000000000000E+000  0.000000000000000E+000  0.000000000000000E+000        
  0.000000000000000E+000                                                        
   26.9700000000000       0.305258000000000      -8.299200000000000E-002        
  0.000000000000000E+000  0.000000000000000E+000  0.000000000000000E+000        
  0.000000000000000E+000  0.000000000000000E+000  0.000000000000000E+000        
  0.000000000000000E+000                                                        
   11.1000000000000       0.398508000000000      -0.152090000000000             
  0.000000000000000E+000  0.000000000000000E+000  0.000000000000000E+000        
  0.000000000000000E+000  0.000000000000000E+000  0.000000000000000E+000        
  0.000000000000000E+000                                                        
   4.68200000000000       0.216980000000000      -0.115331000000000             
  0.000000000000000E+000  0.000000000000000E+000  0.000000000000000E+000        
  0.000000000000000E+000  0.000000000000000E+000  0.000000000000000E+000        
  0.000000000000000E+000                                                        
   1.42800000000000       1.759400000000000E-002  0.288979000000000             
   1.00000000000000       0.000000000000000E+000  0.000000000000000E+000        
  0.000000000000000E+000  0.000000000000000E+000  0.000000000000000E+000        
  0.000000000000000E+000                                                        
  0.554700000000000      -2.502000000000000E-003  0.586128000000000             
  0.000000000000000E+000   1.00000000000000       0.000000000000000E+000        
  0.000000000000000E+000  0.000000000000000E+000  0.000000000000000E+000        
  0.000000000000000E+000                                                        
  0.206700000000000       9.540000000000000E-004  0.277624000000000             
  0.000000000000000E+000  0.000000000000000E+000   1.00000000000000             
  0.000000000000000E+000  0.000000000000000E+000  0.000000000000000E+000        
  0.000000000000000E+000                                                        
   12.9740000000000       0.000000000000000E+000  0.000000000000000E+000        
  0.000000000000000E+000  0.000000000000000E+000  0.000000000000000E+000        
   1.00000000000000       0.000000000000000E+000  0.000000000000000E+000        
  0.000000000000000E+000                                                        
   34.9000000000000       0.000000000000000E+000  0.000000000000000E+000        
  0.000000000000000E+000  0.000000000000000E+000  0.000000000000000E+000        
  0.000000000000000E+000   1.00000000000000       0.000000000000000E+000        
  0.000000000000000E+000                                                        
   93.8810000000000       0.000000000000000E+000  0.000000000000000E+000        
  0.000000000000000E+000  0.000000000000000E+000  0.000000000000000E+000        
  0.000000000000000E+000  0.000000000000000E+000   1.00000000000000             
  0.000000000000000E+000                                                        
  6.959000000000000E-002  0.000000000000000E+000  0.000000000000000E+000        
  0.000000000000000E+000  0.000000000000000E+000  0.000000000000000E+000        
  0.000000000000000E+000  0.000000000000000E+000  0.000000000000000E+000        
   1.00000000000000                                                             
   10    8                                                                      
   63.4200000000000       6.044000000000000E-003  0.000000000000000E+000        
  0.000000000000000E+000  0.000000000000000E+000  0.000000000000000E+000        
  0.000000000000000E+000  0.000000000000000E+000  0.000000000000000E+000        
   14.6600000000000       4.179900000000000E-002  0.000000000000000E+000        
  0.000000000000000E+000  0.000000000000000E+000  0.000000000000000E+000        
  0.000000000000000E+000  0.000000000000000E+000  0.000000000000000E+000        
   4.45900000000000       0.161143000000000       0.000000000000000E+000        
  0.000000000000000E+000  0.000000000000000E+000  0.000000000000000E+000        
  0.000000000000000E+000  0.000000000000000E+000  0.000000000000000E+000        
   1.53100000000000       0.356731000000000        1.00000000000000             
  0.000000000000000E+000  0.000000000000000E+000  0.000000000000000E+000        
  0.000000000000000E+000  0.000000000000000E+000  0.000000000000000E+000        
  0.530200000000000       0.448309000000000       0.000000000000000E+000        
   1.00000000000000       0.000000000000000E+000  0.000000000000000E+000        
  0.000000000000000E+000  0.000000000000000E+000  0.000000000000000E+000        
  0.175000000000000       0.244940000000000       0.000000000000000E+000        
  0.000000000000000E+000   1.00000000000000       0.000000000000000E+000        
  0.000000000000000E+000  0.000000000000000E+000  0.000000000000000E+000        
   14.4750000000000       0.000000000000000E+000  0.000000000000000E+000        
  0.000000000000000E+000  0.000000000000000E+000   1.00000000000000             
  0.000000000000000E+000  0.000000000000000E+000  0.000000000000000E+000        
   42.7300000000000       0.000000000000000E+000  0.000000000000000E+000        
  0.000000000000000E+000  0.000000000000000E+000  0.000000000000000E+000        
   1.00000000000000       0.000000000000000E+000  0.000000000000000E+000        
   126.140000000000       0.000000000000000E+000  0.000000000000000E+000        
  0.000000000000000E+000  0.000000000000000E+000  0.000000000000000E+000        
  0.000000000000000E+000   1.00000000000000       0.000000000000000E+000        
  5.348000000000000E-002  0.000000000000000E+000  0.000000000000000E+000        
  0.000000000000000E+000  0.000000000000000E+000  0.000000000000000E+000        
  0.000000000000000E+000  0.000000000000000E+000   1.00000000000000             
    6    6                                                                      
   3.77500000000000        1.00000000000000       0.000000000000000E+000        
  0.000000000000000E+000  0.000000000000000E+000  0.000000000000000E+000        
  0.000000000000000E+000                                                        
   1.30000000000000       0.000000000000000E+000   1.00000000000000             
  0.000000000000000E+000  0.000000000000000E+000  0.000000000000000E+000        
  0.000000000000000E+000                                                        
  0.444000000000000       0.000000000000000E+000  0.000000000000000E+000        
   1.00000000000000       0.000000000000000E+000  0.000000000000000E+000        
  0.000000000000000E+000                                                        
   14.9270000000000       0.000000000000000E+000  0.000000000000000E+000        
  0.000000000000000E+000   1.00000000000000       0.000000000000000E+000        
  0.000000000000000E+000                                                        
   57.5440000000000       0.000000000000000E+000  0.000000000000000E+000        
  0.000000000000000E+000  0.000000000000000E+000   1.00000000000000             
  0.000000000000000E+000                                                        
  0.154000000000000       0.000000000000000E+000  0.000000000000000E+000        
  0.000000000000000E+000  0.000000000000000E+000  0.000000000000000E+000        
   1.00000000000000                                                             
    4    4                                                                      
   2.66600000000000        1.00000000000000       0.000000000000000E+000        
  0.000000000000000E+000  0.000000000000000E+000                                
  0.859000000000000       0.000000000000000E+000   1.00000000000000             
  0.000000000000000E+000  0.000000000000000E+000                                
   26.4830000000000       0.000000000000000E+000  0.000000000000000E+000        
   1.00000000000000       0.000000000000000E+000                                
  0.324000000000000       0.000000000000000E+000  0.000000000000000E+000        
  0.000000000000000E+000   1.00000000000000                                     
    2    2                                                                      
   1.84600000000000        1.00000000000000       0.000000000000000E+000        
  0.714000000000000       0.000000000000000E+000   1.00000000000000             
FINISH                                                                          
 
********************************************************************************
 ONE- AND TWO-ELECTRON INTEGRALS OVER SYMMETRY-ADAPTED AOS ARE CALCULATED.

  SPHERICAL HARMONICS ARE USED.
  
  INTEGRALS LESS THAN  0.10E-13 ARE NEGLECTED.

  NUCLEAR REPULSION ENERGY :   24.0723700392 A.U.
  @MOLECU-I, ONE ELECTRON INTEGRALS (CPU/WALL):        0.05/       0.08 SECONDS.
  @TWOEL-I,    4632599 INTEGRALS OF SYMMETRY TYPE  I I I I
  @TWOEL-I,   19851557 INTEGRALS OF SYMMETRY TYPE  I J I J
  @TWOEL-I,   10465118 INTEGRALS OF SYMMETRY TYPE  I I J J
  @TWOEL-I,   14678509 INTEGRALS OF SYMMETRY TYPE  I J K L
  @TWOEL-I, TOTAL NUMBER OF 2-E INTEGRALS   49627783.
  @MOLECU-I, TWO ELECTRON INTEGRALS (CPU/WALL):      195.66/      25.11 SECONDS.
 @CHECKOUT-I, Total execution time (CPU/WALL):      195.73/      25.22 seconds.

Running with 14 threads/proc

--executable xvmol finished with status     0 in       25.24 seconds (walltime).
 --invoking executable--
/nfs/workspaces/public/cfour_mpi/bin/xvmol2ja
 @GETMEM-I,  Allocated    3814 MB of main memory.
 @CHECKOUT-I, Total execution time (CPU/WALL):        0.25/       0.09 seconds.
--executable xvmol2ja finished with status     0 in        0.11 seconds (walltime).
 --invoking executable--
/nfs/workspaces/public/cfour_mpi/bin/xvprop
 @GETMEM-I,  Allocated    3814 MB of main memory.
   Property integrals will be calculated.
    --------------------------------------------------------------
                                   Property evaluated at 
    Property type                X             Y             Z
    --------------------------------------------------------------
    Dipole moment               ----          ----          ----  
    Quadrupole moment           ----          ----          ----  
    Octopole moment             ----          ----          ----  
    Relativisitic corr.         ----          ----          ----  
    Second moment            0.0000000     0.0000000     0.0000000
    Electron density         0.0000000     0.0000000     1.1392661
    Electron density         0.0000000     0.0000000    -0.8547212
    Field gradient           0.0000000     0.0000000     1.1392661
    Field gradient           0.0000000     0.0000000    -0.8547212
    Potential                0.0000000     0.0000000     1.1392661
    Potential                0.0000000     0.0000000    -0.8547212
    --------------------------------------------------------------
 @CHECKOUT-I, Total execution time (CPU/WALL):        1.47/       1.52 seconds.
--executable xvprop finished with status     0 in        1.54 seconds (walltime).
 --invoking executable--
/nfs/workspaces/public/cfour_mpi/bin/xvscf
  There are  218 functions in the AO basis.

  There are 4 irreducible representations.

       Irrep        # of functions
         1                 86
         2                 52
         3                 52
         4                 28


  Parameters for SCF calculation: 
        SCF reference function:  RHF  
  Maximum number of iterations:  150
     Full symmetry point group: CXv 
     Computational point group: C2v 
        Initial density matrix: MOREAD                 
     SCF convergence tolerance: 10**(-10)
  DIIS convergence acceleration:  ON
          Latest start for DIIS:   8
                     DIIS order:   6

  Memory information:    2523578 words required.
  Fock matrices are constructed from AO integral file.
 @GETMEM-I,  Allocated      19 MB of main memory.
  Initialization and symmetry analysis required      0.001 seconds.

  Adding electric field perturbation to one-electron Hamiltonian.
  Field direction     : Z
  Field strength      : -0.0002000 a.u.

  @INITGES-I, Occupancies from core Hamiltonian:

          Alpha population by irrep:   5    1    1    0
           Beta population by irrep:   5    1    1    0


 total no. of electrons in initial guess :  0.000000000000000E+000
  --------------------------------------------------------------------
  Iteration         Total Energy            Largest Density Difference
  --------------------------------------------------------------------
       0            24.072369604558325              0.0000000000D+00
   current occupation vector 
     5  1  1  0
     5  1  1  0
       1           -91.156413572532728              0.1925344987D+02
   current occupation vector 
     5  1  1  0
     5  1  1  0
       2           -94.516185317674115              0.6352646956D+02
   current occupation vector 
     5  1  1  0
     5  1  1  0
       3          -103.188947428553917              0.6350620968D+02
   current occupation vector 
     5  1  1  0
     5  1  1  0
       4          -100.609894206419426              0.1013966688D+02
   current occupation vector 
     5  1  1  0
     5  1  1  0
       5          -104.584163600100254              0.1015199942D+02
   current occupation vector 
     5  1  1  0
     5  1  1  0
       6          -101.834592150737222              0.5726099827D+01
   current occupation vector 
     5  1  1  0
     5  1  1  0
       7          -103.883372799888775              0.5387082390D+01
   current occupation vector 
     5  1  1  0
     5  1  1  0
       8          -101.188998855857221              0.5388230452D+01
   current occupation vector 
     5  1  1  0
     5  1  1  0
       9          -111.284385974522309              0.3796434931D+01
   current occupation vector 
     5  1  1  0
     5  1  1  0
      10          -112.496774094579052              0.9037996711D+00
   current occupation vector 
     5  1  1  0
     5  1  1  0
      11          -112.779569512107514              0.4344153912D+00
   current occupation vector 
     5  1  1  0
     5  1  1  0
      12          -112.784238036153710              0.6567791228D-01
   current occupation vector 
     5  1  1  0
     5  1  1  0
      13          -112.784416235675877              0.1771539603D-01
   current occupation vector 
     5  1  1  0
     5  1  1  0
      14          -112.784439584045117              0.7985611639D-02
   current occupation vector 
     5  1  1  0
     5  1  1  0
      15          -112.784439861901177              0.8645189171D-03
   current occupation vector 
     5  1  1  0
     5  1  1  0
      16          -112.784439865988389              0.6711810897D-04
   current occupation vector 
     5  1  1  0
     5  1  1  0
      17          -112.784439866095823              0.1937668603D-04
   current occupation vector 
     5  1  1  0
     5  1  1  0
      18          -112.784439866101479              0.1593112542D-05
   current occupation vector 
     5  1  1  0
     5  1  1  0
      19          -112.784439866102247              0.7171607457D-06
   current occupation vector 
     5  1  1  0
     5  1  1  0
      20          -112.784439866099603              0.9010936752D-07
   current occupation vector 
     5  1  1  0
     5  1  1  0
      21          -112.784439866101309              0.3042089269D-07
   current occupation vector 
     5  1  1  0
     5  1  1  0
      22          -112.784439866101224              0.1080026557D-07
   current occupation vector 
     5  1  1  0
     5  1  1  0
      23          -112.784439866101906              0.7553646597D-09
   current occupation vector 
     5  1  1  0
     5  1  1  0
      24          -112.784439866101195              0.1037955173D-09
   current occupation vector 
     5  1  1  0
     5  1  1  0
      25          -112.784439866099689              0.2164214641D-09
   current occupation vector 
     5  1  1  0
     5  1  1  0
      26          -112.784439866101792              0.1584341269D-09
   current occupation vector 
     5  1  1  0
     5  1  1  0
      27          -112.784439866101252              0.1133411143D-09
   current occupation vector 
     5  1  1  0
     5  1  1  0

  SCF has converged.

 Density matrix saved to file den.dat
 total electron number:   14.0000000000003     
     E(SCF)=      -112.784439866101138              0.5976036332D-10

  Eigenvector printing suppressed.

 @PUTMOS-I, Writing converged MOs to NEWMOS. 
 @PUTMOS-I, Symmetry   1 Full Blocks 21 Partial Blocksize   2
 @PUTMOS-I, Symmetry   2 Full Blocks 13 Partial Blocksize   0
 @PUTMOS-I, Symmetry   3 Full Blocks 13 Partial Blocksize   0
 @PUTMOS-I, Symmetry   4 Full Blocks  7 Partial Blocksize   0
 @PUTFOCK-I, Writing converged Fock matrix to NEWFOCK. 
 @PUTFOCK-I, Symmetry   1 Full Blocks 21 Partial Blocksize   2
 @PUTFOCK-I, Symmetry   2 Full Blocks 13 Partial Blocksize   0
 @PUTFOCK-I, Symmetry   3 Full Blocks 13 Partial Blocksize   0
 @PUTFOCK-I, Symmetry   4 Full Blocks  7 Partial Blocksize   0


 
  ORBITAL EIGENVALUES (ALPHA)  (1H = 27.2113834 eV)

       MO #        E(hartree)               E(eV)           FULLSYM    COMPSYM
       ----   --------------------   --------------------   -------   ---------
    1     1         -20.6612876435        -562.2222196046     SG+        A1 (1)
    2     2         -11.3268344282        -308.2188343328     SG+        A1 (1)
    3     3          -1.5734802315         -42.8165738512     SG+        A1 (1)
    4     4          -0.8111591095         -22.0727615262     SG+        A1 (1)
    5    87          -0.6742624746         -18.3476147089      PI        B1 (2)
    6   139          -0.6742624746         -18.3476147089      PI        B2 (3)
    7     5          -0.5455612046         -14.8454751065     SG+        A1 (1)
  +++++++++++++++++++++++++++++++++++++++++++++++++++++++++++++++++++++++++++++
    8     6           0.0592404773           1.6120153410     SG+        A1 (1)
    9    88           0.0639417081           1.7399423352      PI        B1 (2)
   10   140           0.0639417081           1.7399423352      PI        B2 (3)
   11     7           0.0748696471           2.0373066712     SG+        A1 (1)
   12    89           0.1531259747           4.1667696049      PI        B1 (2)
   13   141           0.1531259747           4.1667696049      PI        B2 (3)
   14     8           0.1565416764           4.2597155737     SG+        A1 (1)
   15    90           0.1753249532           4.7708345214      PI        B1 (2)
   16   142           0.1753249532           4.7708345214      PI        B2 (3)
   17     9           0.2276153669           6.1937290158     SG+        A1 (1)
   18    10           0.2276474199           6.1946012240      DE        A1 (1)
   19   191           0.2276474199           6.1946012240      DE        A2 (4)
   20    11           0.3016011692           8.2069850496     SG+        A1 (1)
   21   143           0.3288848738           8.9494123965      PI        B2 (3)
   22    91           0.3288848738           8.9494123965      PI        B1 (2)
   23    12           0.3939780597          10.7206880342     SG+        A1 (1)
   24   144           0.3982089073          10.8358152495      PI        B2 (3)
   25    92           0.3982089073          10.8358152495      PI        B1 (2)
   26    13           0.5083320416          13.8324180779     SG+        A1 (1)
   27   192           0.5294557492          14.4072233844      DE        A2 (4)
   28    14           0.5294557492          14.4072233844      DE        A1 (1)
   29   145           0.6209112766          16.8958548058      PI        B2 (3)
   30    93           0.6209112766          16.8958548058      PI        B1 (2)
   31    15           0.6589802289          17.9317636606     SG+        A1 (1)
   32   146           0.7496743810          20.3996770057      PH        B2 (3)
   33    94           0.7496743810          20.3996770057      PH        B1 (2)
   34    16           0.7702321640          20.9590827221      DE        A1 (1)
   35   193           0.7702321640          20.9590827221      DE        A2 (4)
   36    17           0.7832648068          21.3137189607     SG+        A1 (1)
   37   147           0.8325010557          22.6535054072      PI        B2 (3)
   38    95           0.8325010557          22.6535054072      PI        B1 (2)
   39    18           0.8751416467          23.8138148783     SG+        A1 (1)
   40   148           0.8759572279          23.8360079693      PI        B2 (3)
   41    96           0.8759572279          23.8360079694      PI        B1 (2)
   42   194           0.8963760385          24.3916320537      DE        A2 (4)
   43    19           0.8963760385          24.3916320537      DE        A1 (1)
   44    20           0.9401485482          25.5827425984     SG+        A1 (1)
   45   149           1.0949013996          29.7937817700      PI        B2 (3)
   46    97           1.0949013996          29.7937817700      PI        B1 (2)
   47    21           1.2613457084          34.3229616723     SG+        A1 (1)
   48   150           1.4528329066          39.5335932367      PH        B2 (3)
   49    98           1.4528329066          39.5335932367      PH        B1 (2)
   50   195           1.5073478996          41.0170216124      DE        A2 (4)
   51    22           1.5073478996          41.0170216124      DE        A1 (1)
   52    23           1.5107031333          41.1083221648     SG+        A1 (1)
   53   151           1.5419378208          41.9582612221      PI        B2 (3)
   54    99           1.5419378208          41.9582612221      PI        B1 (2)
   55    24           1.6610141080          45.1984917256     SG+        A1 (1)
   56    25           1.7545644787          47.7441267288     SG+        A1 (1)
   57   196           1.7753547133          48.3098577733      DE        A2 (4)
   58    26           1.7753547133          48.3098577734      DE        A1 (1)
   59   152           1.8575502047          50.5465108040      PI        B2 (3)
   60   100           1.8575502047          50.5465108041      PI        B1 (2)
   61   153           1.9473425837          52.9898856563      PI        B2 (3)
   62   101           1.9473425837          52.9898856564      PI        B1 (2)
   63    27           2.1100941934          57.4185821064      PI        A1 (1)
   64   197           2.1100941934          57.4185821064      PI        A2 (4)
   65    28           2.1802632947          59.3279804237     SG+        A1 (1)
   66    29           2.2121188964          60.1948154154      DE        A1 (1)
   67   198           2.2121188964          60.1948154154      DE        A2 (4)
   68   154           2.2574575245          61.4285422075      PH        B2 (3)
   69   102           2.2574575245          61.4285422075      PH        B1 (2)
   70    30           2.3244828122          63.2523930099     SG+        A1 (1)
   71   155           2.3389664228          63.6465120901      PI        B2 (3)
   72   103           2.3389664228          63.6465120901      PI        B1 (2)
   73   199           2.3751341302          64.6306854445      DE        A2 (4)
   74    31           2.3751341302          64.6306854445      DE        A1 (1)
   75   156           2.3907555396          65.0557656039      PH        B2 (3)
   76   104           2.3907555396          65.0557656039      PH        B1 (2)
   77    32           2.5145553118          68.4245286688     SG+        A1 (1)
   78   157           2.6081040862          70.9701202355      PI        B2 (3)
   79   105           2.6081040862          70.9701202355      PI        B1 (2)
   80   158           2.9086183263          79.1475284408      PI        B2 (3)
   81   106           2.9086183263          79.1475284408      PI        B1 (2)
   82    33           3.0420417846          82.7781653187     SG+        A1 (1)
   83   200           3.0694379876          83.5236539025      DE        A2 (4)
   84    34           3.0694379876          83.5236539026      DE        A1 (1)
   85    35           3.4408483334          93.6302432226     SG+        A1 (1)
   86    36           3.7397671900         101.7642388342      PI        A1 (1)
   87   201           3.7397671900         101.7642388343      PI        A2 (4)
   88   159           3.7625644517         102.3845838619      PI        B2 (3)
   89   107           3.7625644517         102.3845838621      PI        B1 (2)
   90    37           3.9719224716         108.0815052101     SG+        A1 (1)
   91   160           4.0752105737         110.8921173556      PH        B2 (3)
   92   108           4.0752105737         110.8921173556      PH        B1 (2)
   93   202           4.1761483348         113.6387734747      DE        A2 (4)
   94    38           4.1761483348         113.6387734747      DE        A1 (1)
   95   161           4.2105779479         114.5756508760      PI        B2 (3)
   96   109           4.2105779479         114.5756508760      PI        B1 (2)
   97    39           4.2966388024         116.9174857829     SG+        A1 (1)
   98   162           4.3682434761         118.8659480130      PH        B2 (3)
   99   110           4.3682434761         118.8659480130      PH        B1 (2)
  100    40           4.4141185018         120.1142709260      DE        A1 (1)
  101   203           4.4141185018         120.1142709260      DE        A2 (4)
  102    41           4.6459271171         126.4221040327     SG+        A1 (1)
  103   163           4.7857448699         130.2267385093      PI        B2 (3)
  104   111           4.7857448699         130.2267385095      PI        B1 (2)
  105    42           4.9657615436         135.1252412360     SG+        A1 (1)
  106    43           5.1857877027         141.1124574084      DE        A1 (1)
  107   204           5.1857877027         141.1124574087      DE        A2 (4)
  108   164           5.2333787065         142.4074744596      PI        B2 (3)
  109   112           5.2333787065         142.4074744596      PI        B1 (2)
  110   113           5.8985180756         160.5068368461      PI        B1 (2)
  111   165           5.8985180756         160.5068368462      PI        B2 (3)
  112   205           5.9120876031         160.8760824629      PI        A2 (4)
  113    44           5.9120876031         160.8760824629      PI        A1 (1)
  114    45           6.1020531073         166.0453066293     SG+        A1 (1)
  115   166           6.2133536419         169.0739481508      PH        B2 (3)
  116   114           6.2133536419         169.0739481508      PH        B1 (2)
  117    46           6.2161142242         169.1490674137     SG+        A1 (1)
  118   206           6.3233155192         172.0661629520      DE        A2 (4)
  119    47           6.3233155192         172.0661629520      DE        A1 (1)
  120   167           6.3515957249         172.8357064733      PI        B2 (3)
  121   115           6.3515957249         172.8357064733      PI        B1 (2)
  122   168           6.4614727325         175.8256118518      PH        B2 (3)
  123   116           6.4614727325         175.8256118518      PH        B1 (2)
  124    48           6.6430336441         180.7661354296      DE        A1 (1)
  125   207           6.6430336441         180.7661354298      DE        A2 (4)
  126    49           7.1321182398         194.0748038775     SG+        A1 (1)
  127    50           7.6512648677         208.2015018105      DE        A1 (1)
  128   208           7.6512648677         208.2015018109      DE        A2 (4)
  129   169           7.6806745185         209.0017790947      PI        B2 (3)
  130   117           7.6806745185         209.0017790947      PI        B1 (2)
  131    51           8.0079854809         217.9083631818     SG+        A1 (1)
  132    52           8.5231018715         231.9253927830     SG+        A1 (1)
  133   118           8.7125907192         237.0816464685      PI        B1 (2)
  134   170           8.7125907192         237.0816464685      PI        B2 (3)
  135   119          10.1258527974         275.5384627216      PI        B1 (2)
  136   171          10.1258527974         275.5384627216      PI        B2 (3)
  137    53          10.1896821167         277.2753468024     SG+        A1 (1)
  138   209          10.6006047539         288.4571202309      PI        A2 (4)
  139    54          10.6006047539         288.4571202309      PI        A1 (1)
  140   172          10.9418421297         297.7426612928      PH        B2 (3)
  141   120          10.9418421297         297.7426612928      PH        B1 (2)
  142   210          11.2166816513         305.2214248887      DE        A2 (4)
  143    55          11.2166816513         305.2214248887      DE        A1 (1)
  144    56          11.2542478819         306.2436539921     SG+        A1 (1)
  145   173          11.4074555382         310.4126462678      PI        B2 (3)
  146   121          11.4074555382         310.4126462678      PI        B1 (2)
  147   174          11.8580044010         322.6727041132      PH        B2 (3)
  148   122          11.8580044010         322.6727041132      PH        B1 (2)
  149    57          12.0806429810         328.7310078737     SG+        A1 (1)
  150    58          12.3685211147         336.5645701442      DE        A1 (1)
  151   211          12.3685211148         336.5645701448      DE        A2 (4)
  152   175          12.8244907489         348.9721346774      PI        B2 (3)
  153   123          12.8244907489         348.9721346774      PI        B1 (2)
  154    59          12.9495329347         352.3747055364      DE        A1 (1)
  155   212          12.9495329347         352.3747055364      DE        A2 (4)
  156    60          13.6566655951         371.6167634736     SG+        A1 (1)
  157   176          14.6040584261         397.3966330282      PI        B2 (3)
  158   124          14.6040584261         397.3966330283      PI        B1 (2)
  159    61          15.8244388361         430.6048722594     SG+        A1 (1)
  160    62          18.2417607121         496.3835446271     SG+        A1 (1)
  161   125          19.5458790109         531.8704076558      PI        B1 (2)
  162   177          19.5458790109         531.8704076564      PI        B2 (3)
  163    63          20.9942329491         571.2821219669     SG+        A1 (1)
  164    64          26.6233213970         724.4574059155      DE        A1 (1)
  165   213          26.6233213970         724.4574059157      DE        A2 (4)
  166   178          27.2639048345         741.8885674326      PI        B2 (3)
  167   126          27.2639048345         741.8885674326      PI        B1 (2)
  168    65          28.5483404530         776.8398375013     SG+        A1 (1)
  169   127          33.8463296547         921.0054529161      PI        B1 (2)
  170   179          33.8463296547         921.0054529163      PI        B2 (3)
  171    66          35.3264081926         961.2804374733     SG+        A1 (1)
  172    67          37.2004191290        1012.2748675587     SG+        A1 (1)
  173    68          47.1508557328        1283.0400129841      DE        A1 (1)
  174   214          47.1508557328        1283.0400129842      DE        A2 (4)
  175   180          47.9376395565        1304.4494892632      PI        B2 (3)
  176   128          47.9376395565        1304.4494892632      PI        B1 (2)
  177    69          48.7246193333        1325.8642976970     SG+        A1 (1)
  178    70          64.4326970182        1753.3028220581     SG+        A1 (1)
  179   129          66.9769002674        1822.5341121198      PI        B1 (2)
  180   181          66.9769002674        1822.5341121203      PI        B2 (3)
  181    71          68.0554168582        1851.8820405758     SG+        A1 (1)
  182   182          98.7144853078        2686.1577068450      PH        B2 (3)
  183   130          98.7144853078        2686.1577068451      PH        B1 (2)
  184    72          98.7458419611        2687.0109647596      DE        A1 (1)
  185   215          98.7458419611        2687.0109647596      DE        A2 (4)
  186   183          98.8217325021        2689.0760513656      PI        B2 (3)
  187   131          98.8217325021        2689.0760513656      PI        B1 (2)
  188    73          98.8393264697        2689.5548075657     SG+        A1 (1)
  189   184         103.2890658643        2810.6383722601      PH        B2 (3)
  190   132         103.2890658643        2810.6383722601      PH        B1 (2)
  191   216         103.3496377632        2812.2866174265      DE        A2 (4)
  192    74         103.3496377633        2812.2866174272      DE        A1 (1)
  193   185         103.3859329806        2813.2742605018      PI        B2 (3)
  194   133         103.3859329806        2813.2742605018      PI        B1 (2)
  195    75         103.4680928758        2815.5099449112     SG+        A1 (1)
  196    76         115.2548356340        3136.2435211401      DE        A1 (1)
  197   217         115.2548356340        3136.2435211401      DE        A2 (4)
  198   186         115.5656835464        3144.7021228629      PI        B2 (3)
  199   134         115.5656835464        3144.7021228630      PI        B1 (2)
  200    77         116.1604506676        3160.8865590336     SG+        A1 (1)
  201   135         117.0878316118        3186.1218774636      PI        B1 (2)
  202   187         117.0878316118        3186.1218774638      PI        B2 (3)
  203    78         118.4858790088        3224.1646811951     SG+        A1 (1)
  204    79         123.1292288868        3350.5166549845     SG+        A1 (1)
  205    80         198.6000472315        5404.1820284745      DE        A1 (1)
  206   218         198.6000472315        5404.1820284745      DE        A2 (4)
  207   136         199.0305317450        5415.8961076181      PI        B1 (2)
  208   188         199.0305317450        5415.8961076184      PI        B2 (3)
  209    81         199.4422235761        5427.0988118774     SG+        A1 (1)
  210    82         216.8907802204        5901.8981765027     SG+        A1 (1)
  211   137         225.3783714349        6132.8572751827      PI        B1 (2)
  212   189         225.3783714349        6132.8572751832      PI        B2 (3)
  213    83         226.2516221938        6156.6196363880     SG+        A1 (1)
  214   138         395.5396332358       10763.1806098735      PI        B1 (2)
  215   190         395.5396332358       10763.1806098745      PI        B2 (3)
  216    84         396.6162851429       10792.4777977071     SG+        A1 (1)
  217    85         509.5998443029       13866.9167439073     SG+        A1 (1)
  218    86         895.7315381377       24374.0943077374     SG+        A1 (1)


  VSCF finished.

 @CHECKOUT-I, Total execution time (CPU/WALL):       49.72/      10.23 seconds.
--executable xvscf finished with status     0 in       10.24 seconds (walltime).
 --invoking executable--
/nfs/workspaces/public/cfour_mpi/bin/xvtran
 @GETMEM-I,  Allocated    3814 MB of main memory.
  Full RHF integral transformation
  Transformation of IIII integrals :
  1 pass through the AO integral file was required.
     4632599 AO integrals were read.
     8855337 MO integrals were written to HF2.
  Transformation of IIJJ integrals :
  1 pass through the AO integral file was required.
    10465118 AO integrals were read.
    14674699 MO integrals were written to HF2.
  Transformation of IJIJ integrals :
  1 pass through the AO integral file was required.
    19851557 AO integrals were read.
    27654721 MO integrals were written to HF2.
  Transformation of IJKL integrals :
  1 pass through the AO integral file was required.
    14678509 AO integrals were read.
    18653240 MO integrals were written to HF2.
  Summary of active molecular orbitals: 
------------------------------------------------------------------------
 
  Index      Eigenvalue    Symmetry    Index      Eigenvalue    Symmetry
------------------------------------------------------------------------
     1       -20.6612876        1       110         4.2105779        2
     2       -11.3268344        1       111         4.3682435        2
     3        -1.5734802        1       112         4.7857449        2
     4        -0.8111591        1       113         5.2333787        2
     5        -0.5455612        1       114         5.8985181        2
     6        -0.6742625        2       115         6.2133536        2
     7        -0.6742625        3       116         6.3515957        2
     8         0.0592405        1       117         6.4614727        2
     9         0.0748696        1       118         7.6806745        2
    10         0.1565417        1       119         8.7125907        2
    11         0.2276154        1       120        10.1258528        2
    12         0.2276474        1       121        10.9418421        2
    13         0.3016012        1       122        11.4074555        2
    14         0.3939781        1       123        11.8580044        2
    15         0.5083320        1       124        12.8244907        2
    16         0.5294557        1       125        14.6040584        2
    17         0.6589802        1       126        19.5458790        2
    18         0.7702322        1       127        27.2639048        2
    19         0.7832648        1       128        33.8463297        2
    20         0.8751416        1       129        47.9376396        2
    21         0.8963760        1       130        66.9769003        2
    22         0.9401485        1       131        98.7144853        2
    23         1.2613457        1       132        98.8217325        2
    24         1.5073479        1       133       103.2890659        2
    25         1.5107031        1       134       103.3859330        2
    26         1.6610141        1       135       115.5656835        2
    27         1.7545645        1       136       117.0878316        2
    28         1.7753547        1       137       199.0305317        2
    29         2.1100942        1       138       225.3783714        2
    30         2.1802633        1       139       395.5396332        2
    31         2.2121189        1       140         0.0639417        3
    32         2.3244828        1       141         0.1531260        3
    33         2.3751341        1       142         0.1753250        3
    34         2.5145553        1       143         0.3288849        3
    35         3.0420418        1       144         0.3982089        3
    36         3.0694380        1       145         0.6209113        3
    37         3.4408483        1       146         0.7496744        3
    38         3.7397672        1       147         0.8325011        3
    39         3.9719225        1       148         0.8759572        3
    40         4.1761483        1       149         1.0949014        3
    41         4.2966388        1       150         1.4528329        3
    42         4.4141185        1       151         1.5419378        3
    43         4.6459271        1       152         1.8575502        3
    44         4.9657615        1       153         1.9473426        3
    45         5.1857877        1       154         2.2574575        3
    46         5.9120876        1       155         2.3389664        3
    47         6.1020531        1       156         2.3907555        3
    48         6.2161142        1       157         2.6081041        3
    49         6.3233155        1       158         2.9086183        3
    50         6.6430336        1       159         3.7625645        3
    51         7.1321182        1       160         4.0752106        3
    52         7.6512649        1       161         4.2105779        3
    53         8.0079855        1       162         4.3682435        3
    54         8.5231019        1       163         4.7857449        3
    55        10.1896821        1       164         5.2333787        3
    56        10.6006048        1       165         5.8985181        3
    57        11.2166817        1       166         6.2133536        3
    58        11.2542479        1       167         6.3515957        3
    59        12.0806430        1       168         6.4614727        3
    60        12.3685211        1       169         7.6806745        3
    61        12.9495329        1       170         8.7125907        3
    62        13.6566656        1       171        10.1258528        3
    63        15.8244388        1       172        10.9418421        3
    64        18.2417607        1       173        11.4074555        3
    65        20.9942329        1       174        11.8580044        3
    66        26.6233214        1       175        12.8244907        3
    67        28.5483405        1       176        14.6040584        3
    68        35.3264082        1       177        19.5458790        3
    69        37.2004191        1       178        27.2639048        3
    70        47.1508557        1       179        33.8463297        3
    71        48.7246193        1       180        47.9376396        3
    72        64.4326970        1       181        66.9769003        3
    73        68.0554169        1       182        98.7144853        3
    74        98.7458420        1       183        98.8217325        3
    75        98.8393265        1       184       103.2890659        3
    76       103.3496378        1       185       103.3859330        3
    77       103.4680929        1       186       115.5656835        3
    78       115.2548356        1       187       117.0878316        3
    79       116.1604507        1       188       199.0305317        3
    80       118.4858790        1       189       225.3783714        3
    81       123.1292289        1       190       395.5396332        3
    82       198.6000472        1       191         0.2276474        4
    83       199.4422236        1       192         0.5294557        4
    84       216.8907802        1       193         0.7702322        4
    85       226.2516222        1       194         0.8963760        4
    86       396.6162851        1       195         1.5073479        4
    87       509.5998443        1       196         1.7753547        4
    88       895.7315381        1       197         2.1100942        4
    89         0.0639417        2       198         2.2121189        4
    90         0.1531260        2       199         2.3751341        4
    91         0.1753250        2       200         3.0694380        4
    92         0.3288849        2       201         3.7397672        4
    93         0.3982089        2       202         4.1761483        4
    94         0.6209113        2       203         4.4141185        4
    95         0.7496744        2       204         5.1857877        4
    96         0.8325011        2       205         5.9120876        4
    97         0.8759572        2       206         6.3233155        4
    98         1.0949014        2       207         6.6430336        4
    99         1.4528329        2       208         7.6512649        4
   100         1.5419378        2       209        10.6006048        4
   101         1.8575502        2       210        11.2166817        4
   102         1.9473426        2       211        12.3685211        4
   103         2.2574575        2       212        12.9495329        4
   104         2.3389664        2       213        26.6233214        4
   105         2.3907555        2       214        47.1508557        4
   106         2.6081041        2       215        98.7458420        4
   107         2.9086183        2       216       103.3496378        4
   108         3.7625645        2       217       115.2548356        4
   109         4.0752106        2       218       198.6000472        4
------------------------------------------------------------------------
  -20.6612876434885       -11.3268344281533       -1.57348023148358     
 -0.811159109471965      -0.545561204596993      -0.674262474611010     
 -0.674262474610984       5.924047731436109E-002  7.486964706182477E-002
  0.156541676366418       0.227615366875920       0.227647419940693     
  0.301601169223729       0.393978059718633       0.508332041577417     
  0.529455749186037       0.658980228863780       0.770232164017069     
  0.783264806767550       0.875141646724699       0.896376038482197     
  0.940148548212756        1.26134570844126        1.50734789956947     
   1.51070313333737        1.66101410799945        1.75456447865991     
   1.77535471325573        2.11009419338788        2.18026329465026     
   2.21211889636463        2.32448281221560        2.37513413024276     
   2.51455531175975        3.04204178456639        3.06943798757985     
   3.44084833344449        3.73976719001537        3.97192247161170     
   4.17614833484493        4.29663880238001        4.41411850181654     
   4.64592711712926        4.96576154360310        5.18578770267272     
   5.91208760312081        6.10205310727760        6.21611422423109     
   6.32331551919468        6.64303364413432        7.13211823980584     
   7.65126486772199        8.00798548087907        8.52310187151323     
   10.1896821167281        10.6006047539235        11.2166816512802     
   11.2542478818644        12.0806429809710        12.3685211147411     
   12.9495329346771        13.6566655950907        15.8244388361144     
[...]
 Convergence information after     8 iterations: 
 Largest element of residual vector : -0.19655964E-04.
 Largest element of DIIS residual   :  0.15643725E-04.
 Convergence information after     9 iterations: 
 Largest element of residual vector :  0.68897259E-05.
 Largest element of DIIS residual   :  0.39699700E-05.
 Convergence information after    10 iterations: 
 Largest element of residual vector :  0.31307073E-05.
 Largest element of DIIS residual   :  0.20592849E-05.
 Convergence information after    11 iterations: 
 Largest element of residual vector :  0.10366340E-05.
 Largest element of DIIS residual   :  0.48590545E-06.
 Convergence information after    12 iterations: 
 Largest element of residual vector :  0.44358901E-06.
 Largest element of DIIS residual   :  0.26099609E-06.
 Convergence information after    13 iterations: 
 Largest element of residual vector :  0.17270850E-06.
 Largest element of DIIS residual   :  0.16129569E-06.
 Convergence information after    14 iterations: 
 Largest element of residual vector :  0.11705243E-06.
 Largest element of DIIS residual   :  0.78973578E-07.
 Perturbed amplitude equations converged in    14 iterations.
  Dominant contributions to perturbed wavefunction:
    7    7  142   37   0.2436660885 ABAB
    7    7   37  142   0.2436660885 ABAB
    7    7  142   27   0.2232795982 ABAB
    7    7   27  142   0.2232795982 ABAB
    7    7  142   55   0.1865224815 ABAB
    7    7   55  142   0.1865224815 ABAB
    7    7  142   63   0.1824561255 ABAB
    7    7   63  142   0.1824561255 ABAB
    7    7  142   47   0.1683591464 ABAB
    7    7   47  142   0.1683591464 ABAB
    7    6   37   91   0.1650280297 ABAB
    6    7   91   37   0.1650280297 ABAB
    7    6   27   91   0.1506589151 ABAB
    6    7   91   27   0.1506589151 ABAB
    7    7  142   51  -0.1454965931 ABAB
    7    7   51  142  -0.1454965931 ABAB
    7    7  142   19   0.1401324712 ABAB
    7    7   19  142   0.1401324712 ABAB
    7    7  143   37   0.1372173387 ABAB
    7    7   37  143   0.1372173387 ABAB
  norm of converged amps    2.65517547987245     
 Starting iterative solution of the perturbed Lambda equations.
 The DIIS procedure is used to accelerate convergence.
 Convergence criterion is 10**(-7).
 Maximum number of iterations is 100.
 Convergence information after     1 iterations: 
 Largest element of residual vector : -0.65605845E-01.
 Largest element of DIIS residual   : -0.65605845E-01.
 Convergence information after     2 iterations: 
 Largest element of residual vector :  0.65558630E-02.
 Largest element of DIIS residual   :  0.55532958E-02.
 Convergence information after     3 iterations: 
 Largest element of residual vector : -0.36572556E-02.
 Largest element of DIIS residual   : -0.32862938E-02.
 Convergence information after     4 iterations: 
 Largest element of residual vector : -0.23086453E-02.
 Largest element of DIIS residual   : -0.17738699E-02.
 Convergence information after     5 iterations: 
 Largest element of residual vector : -0.12864063E-02.
 Largest element of DIIS residual   : -0.59004486E-03.
 Convergence information after     6 iterations: 
 Largest element of residual vector : -0.40842093E-03.
 Largest element of DIIS residual   : -0.96659531E-04.
 Convergence information after     7 iterations: 
 Largest element of residual vector : -0.69792116E-04.
 Largest element of DIIS residual   : -0.35237534E-04.
 Convergence information after     8 iterations: 
 Largest element of residual vector : -0.15354693E-04.
 Largest element of DIIS residual   :  0.13065200E-04.
 Convergence information after     9 iterations: 
 Largest element of residual vector :  0.58620134E-05.
 Largest element of DIIS residual   :  0.34090403E-05.
 Convergence information after    10 iterations: 
 Largest element of residual vector :  0.26211440E-05.
 Largest element of DIIS residual   :  0.17585937E-05.
 Convergence information after    11 iterations: 
 Largest element of residual vector :  0.87967184E-06.
 Largest element of DIIS residual   :  0.46761982E-06.
 Convergence information after    12 iterations: 
 Largest element of residual vector :  0.39905032E-06.
 Largest element of DIIS residual   :  0.25317986E-06.
 Convergence information after    13 iterations: 
 Largest element of residual vector :  0.16592590E-06.
 Largest element of DIIS residual   :  0.15638872E-06.
 Convergence information after    14 iterations: 
 Largest element of residual vector :  0.11337858E-06.
 Largest element of DIIS residual   :  0.75223816E-07.
 Perturbed Lambda equations converged in    14 iterations.
  Dominant contributions to perturbed wavefunction:
    7    7  142   37   0.2334401306 ABAB
    7    7   37  142   0.2334401306 ABAB
    7    7  142   27   0.2131102991 ABAB
    7    7   27  142   0.2131102991 ABAB
    7    7  142   55   0.1768604829 ABAB
    7    7   55  142   0.1768604829 ABAB
    7    7  142   63   0.1744422311 ABAB
    7    7   63  142   0.1744422311 ABAB
    7    7  142   47   0.1609129312 ABAB
    7    7   47  142   0.1609129312 ABAB
    7    6   37   91   0.1563716742 ABAB
    6    7   91   37   0.1563716742 ABAB
    7    6   27   91   0.1420275339 ABAB
    6    7   91   27   0.1420275339 ABAB
    7    7  142   51  -0.1394356578 ABAB
    7    7   51  142  -0.1394356578 ABAB
    7    7  142   19   0.1338193780 ABAB
    7    7   19  142   0.1338193780 ABAB
    7    7  143   37   0.1321333900 ABAB
    7    7   37  143   0.1321333900 ABAB
        The DBOC first-order density matrix is being calculated 
             (Symmetry block 3, perturbation   2)
 term   8.34665540520755     
 final tnorm  0.896225396173036     
  norm contr. I: |<0|L dT/dx|0>|^2   0.000000000000000E+000
  norm contr. II: <0|[nabla(1+L)e-T][nabla e^T]|0>   8.34665540520755     
  total norm contribution   8.34665540520755     
 oo  1.312630176583434E-002
 vv  -62.6909151988448     
 vo  2.860384166851500E-002
  Correlated perturbed 1-el contribution to DBOC  -62.6491850554105       cm**-1
  SUM_I |dc_I/dx|^2 contribution to DBOC   31.4227337937587       cm**-1
 
 
  The total diagonal Born-Oppenheimer correction (DBOC) is:      0.0041485486 a.u.
  The total diagonal Born-Oppenheimer correction (DBOC) is:        910.501177 cm-1
 
 Total CC energy including DBOC  -113.269539850443     
 First-order density matrix is being calculated  (Symmetry block 3, perturbation   2)
 Calculation of the contributions of <pq||rs> to dI(i,j)/dx required   1.9 seconds.
 Calculation of the contributions of <pq||rs> to dI(a,b)/dx required  15.4 seconds.
 Calculation of the contributions of <pq||rs> to dI(i,a)/dx required   9.6 seconds.
 First-order Z-vector equations are solved for 1 perturbation.
 Convergence reached after  17 iterations.
        U*G(pq,rs) contribution is being calculated
             (Symmetry block 3, perturbation   2)

 CCSD contribution to force constants 

        0.0000000000        0.0000000000        0.0000000000
        0.0000000000        0.0000000000        0.0000000000
        0.0000000000        0.0000000000        0.0000000000
        0.0000000000        0.0000000000        0.0000000000
        0.0000000000        0.0000000000        0.0000000000
        0.0000000000        0.0000000000        0.0000000000
        0.0000000000        0.0000000000        0.0000000000
        0.0000000000        0.0000000000        0.0000000000
        0.0000000000        0.0000000000        0.0000000000
        0.0000000000        0.0000000000        0.0000000000
        0.0000000000        0.0000000000        0.0000000000
        0.0000000000       -6.3681390401        6.3681390401

 CCSD contribution to dipole derivatives 

        0.0000000000        0.0000000000        0.0000000000
        0.0000000000        0.0000000000        0.0000000000
        0.0000000000        0.0000000000        0.0000000000
        0.0000000000        0.0000000000       -0.0412189986
        0.0000000000        0.0000000000        0.0000000000
        0.0000000000        0.0000000000        0.0000000000
 @CHECKOUT-I, Total execution time (CPU/WALL):     1053.78/     252.61 seconds.
--executable xsdcc finished with status     0 in      252.64 seconds (walltime).
 --invoking executable--
/nfs/workspaces/public/cfour_mpi/bin/xanti
 @GETMEM-I,  Allocated    3814 MB of main memory.
 CCSD MO derivative gammas will be sorted to Mulliken order.
 @CHECKOUT-I, Total execution time (CPU/WALL):        9.81/      13.60 seconds.
--executable xanti finished with status     0 in       13.63 seconds (walltime).
 --invoking executable--
/nfs/workspaces/public/cfour_mpi/bin/xbcktrn
 @GETMEM-I,  Allocated    3814 MB of main memory.
 CCSD MO derivative gammas will be transformed to the AO basis.
 @CHECKOUT-I, Total execution time (CPU/WALL):       21.09/       6.20 seconds.
--executable xbcktrn finished with status     0 in        6.21 seconds (walltime).
 --invoking executable--
/nfs/workspaces/public/cfour_mpi/bin/xvdint
 @GETMEM-I,  Allocated    3814 MB of main memory.
 One- and two-electron integral derivatives are calculated
 for RHF-CC/MBPT hessians and dipole derivatives.
 Spherical gaussians are used.
  magnet F F
                    8722  records have been written to the Sort file.
  Total length of Sort file :             178609116  words.
 Evaluation of 2el integral derivatives

                      Two-electron integral gradient
                      ------------------------------

                         C #1 z     0.0000000000
                         O #2 z     0.0000000000


 C #1       0.0000000000           -1.0070710653            0.0000000000
 O #2       0.0000000000            1.0070710653            0.0000000000


 Evaluation of 2e integral derivatives required  342.64 seconds.
  contribution to Hessian
        0.0000000000        0.0000000000        0.0000000000
        0.0000000000       -1.0070710653        1.0070710653
 @CHECKOUT-I, Total execution time (CPU/WALL):      342.63/      68.59 seconds.
--executable xvdint finished with status     0 in       68.61 seconds (walltime).
 --invoking executable--
/nfs/workspaces/public/cfour_mpi/bin/xanti
 @GETMEM-I,  Allocated    3814 MB of main memory.
 CCSD MO gammas will be sorted to Mulliken order.
 @CHECKOUT-I, Total execution time (CPU/WALL):       11.61/      10.22 seconds.
--executable xanti finished with status     0 in       10.24 seconds (walltime).
 --invoking executable--
/nfs/workspaces/public/cfour_mpi/bin/xbcktrn
 @GETMEM-I,  Allocated    3814 MB of main memory.
 CCSD MO gammas will be transformed to the AO basis.
 @CHECKOUT-I, Total execution time (CPU/WALL):       27.79/       4.25 seconds.
--executable xbcktrn finished with status     0 in        4.27 seconds (walltime).
 --invoking executable--
/nfs/workspaces/public/cfour_mpi/bin/xvdint
 @GETMEM-I,  Allocated    3814 MB of main memory.
 One- and two-electron integral derivatives are calculated
 for RHF-CC/MBPT hessians and dipole derivatives.
 Spherical gaussians are used.
  magnet F F

                     Kinetic energy integral gradient
                     --------------------------------

                         C #1 z    -1.7305353210
                         O #2 z     1.7305353210


 C #1       0.0000000000            0.0000000000           -1.7305353210
 O #2       0.0000000000            0.0000000000            1.7305353210



                   Nuclear attraction integral gradient
                   ------------------------------------

                         C #1 z    25.6401140435
                         O #2 z   -25.6401140435


 C #1       0.0000000000            0.0000000000           25.6401140435
 O #2       0.0000000000            0.0000000000          -25.6401140435



                      Reorthonormalization gradient
                      -----------------------------

                         C #1 z     0.0000000000
                         O #2 z     0.0000000000


 C #1       0.0000000000            0.0000000000            0.0000000000
 O #2       0.0000000000            0.0000000000            0.0000000000



                     Kinetic energy integral Hessian
                     -------------------------------


           Symmetry 1

           C #1 z      O #2 z

 C #1 z    0.987326
 O #2 z   -0.987326    0.987326


           Symmetry 2

           C #1 x      O #2 x

 C #1 x   -2.609364
 O #2 x    2.609364   -2.609364


           Symmetry 3

           C #1 y      O #2 y

 C #1 y   -2.609364
 O #2 y    2.609364   -2.609364




           C #1 x      C #1 y      C #1 z      O #2 x      O #2 y      O #2 z

 C #1 x   -2.609364
 C #1 y    0.000000   -2.609364
 C #1 z    0.000000    0.000000    0.987326

 O #2 x    2.609364    0.000000    0.000000   -2.609364
 O #2 y    0.000000    2.609364    0.000000    0.000000   -2.609364
 O #2 z    0.000000    0.000000   -0.987326    0.000000    0.000000    0.987326




                   Nuclear attraction integral Hessian
                   -----------------------------------


           Symmetry 1

           C #1 z      O #2 z

 C #1 z  -13.360717
 O #2 z   13.360717  -13.360717


           Symmetry 2

           C #1 x      O #2 x

 C #1 x   25.527889
 O #2 x  -25.527889   25.527889


           Symmetry 3

           C #1 y      O #2 y

 C #1 y   25.527889
 O #2 y  -25.527889   25.527889




           C #1 x      C #1 y      C #1 z      O #2 x      O #2 y      O #2 z

 C #1 x   25.527889
 C #1 y    0.000000   25.527889
 C #1 z    0.000000    0.000000  -13.360717

 O #2 x  -25.527889    0.000000    0.000000   25.527889
 O #2 y    0.000000  -25.527889    0.000000    0.000000   25.527889
 O #2 z    0.000000    0.000000   13.360717    0.000000    0.000000  -13.360717




                Highest order reorthonormalization Hessian
                ------------------------------------------


           Symmetry 1

           C #1 z      O #2 z

 C #1 z    0.000000
 O #2 z    0.000000    0.000000


           Symmetry 2

           C #1 x      O #2 x

 C #1 x    0.000000
 O #2 x    0.000000    0.000000


           Symmetry 3

           C #1 y      O #2 y

 C #1 y    0.000000
 O #2 y    0.000000    0.000000




           C #1 x      C #1 y      C #1 z      O #2 x      O #2 y      O #2 z




                Electronic contributions to dipole moment
                -----------------------------------------

                               au             Debye

                    z     -0.14397658     -0.36595202

  Conversion factor used: 1 a.u. =   2.54174691 Debye 



   Electronic contributions to static part of dipole moment derivatives
   --------------------------------------------------------------------


                     Total dipole moment derivatives
                     -------------------------------


           Symmetry 1
                              Ez

               C #1 z    -5.77549352
               O #2 z    -8.22450648

           Symmetry 2
                              Ex

               C #1 x    -5.84507975
               O #2 x    -8.15492025

           Symmetry 3
                              Ey

               C #1 y    -5.84507975
               O #2 y    -8.15492025



                       Ex          Ey          Ez

      C #1    x   -5.845080    0.000000    0.000000
      C #1    y    0.000000   -5.845080    0.000000
      C #1    z    0.000000    0.000000   -5.775494

      O #2    x   -8.154920    0.000000    0.000000
      O #2    y    0.000000   -8.154920    0.000000
      O #2    z    0.000000    0.000000   -8.224506

 Evaluation of 1e integral derivatives required    1.69 seconds.
                    8815  records have been written to the Sort file.
  Total length of Sort file :             180513570  words.
 Evaluation of 2el integral derivatives

                      Two-electron integral gradient
                      ------------------------------

                         C #1 z   -11.6610504939
                         O #2 z    11.6610504939


 C #1       0.0000000000            0.0000000000          -11.6610504939
 O #2       0.0000000000            0.0000000000           11.6610504939


 Evaluation of 2e integral derivatives required  667.80 seconds.

                            Molecular gradient
                            ------------------

                         C #1 z     0.1760490764
                         O #2 z    -0.1760490764


 C #1       0.0000000000            0.0000000000            0.1760490764
 O #2       0.0000000000            0.0000000000           -0.1760490764


  Molecular gradient norm 0.249E+00

                            Molecular hessian
                            -----------------


           Symmetry 1

           C #1 z      O #2 z

 C #1 z   80.095297
 O #2 z  -80.095297   80.095297


           Symmetry 2

           C #1 x      O #2 x

 C #1 x    7.184218
 O #2 x   -7.184218    7.184218


           Symmetry 3

           C #1 y      O #2 y

 C #1 y    7.184218
 O #2 y   -7.184218    7.184218




           C #1 x      C #1 y      C #1 z      O #2 x      O #2 y      O #2 z

 C #1 x    7.184218
 C #1 y    0.000000    7.184218
 C #1 z    0.000000    0.000000   80.095297

 O #2 x   -7.184218    0.000000    0.000000    7.184218
 O #2 y    0.000000   -7.184218    0.000000    0.000000    7.184218
 O #2 z    0.000000    0.000000  -80.095297    0.000000    0.000000   80.095297




                           Total dipole moment
                           -------------------

                               au             Debye

                    z     -0.14614987     -0.37147597

  Conversion factor used: 1 a.u. =   2.54174691 Debye 



                     Total dipole moment derivatives
                     -------------------------------


           Symmetry 1
                              Ez

               C #1 z     0.69562328
               O #2 z    -0.69562328

           Symmetry 2
                              Ex

               C #1 x    -0.07432440
               O #2 x     0.07432440

           Symmetry 3
                              Ey

               C #1 y    -0.07432440
               O #2 y     0.07432440



                       Ex          Ey          Ez

      C #1    x   -0.074324    0.000000    0.000000
      C #1    y    0.000000   -0.074324    0.000000
      C #1    z    0.000000    0.000000    0.695623

      O #2    x    0.074324    0.000000    0.000000
      O #2    y    0.000000    0.074324    0.000000
      O #2    z    0.000000    0.000000   -0.695623

 @CHECKOUT-I, Total execution time (CPU/WALL):      669.48/     113.23 seconds.
--executable xvdint finished with status     0 in      113.25 seconds (walltime).
 --invoking executable--
/nfs/workspaces/public/cfour_mpi/bin/xjoda
  @GTFLGS-I, Hessian will be transformed to curvilinear coordinates.
  @GTFLGS-I, Hessian will be transformed to curvilinear coordinates.
  igrd and ihes are                      0                     1
  gradient from JOBARC 
   0.000000000000000   0.000000000000000   0.176049076435269
   0.000000000000000   0.000000000000000  -0.176049076435269
 
  @PROJFCM-I, Projecting force constant matrix onto totally symmetric subspace.
  Largest difference between matrix elements of symmetrized
  and unsymmetrized FCM :    -0.7632561250E-10.
  read isotopes from ZMAT file 
 
  Summary of diagonal Born-Oppenheimer correction at the correlated level
  The total diagonal Born-Oppenheimer correction (DBOC) is:      0.0041485486 a.u.
  The total diagonal Born-Oppenheimer correction (DBOC) is:        910.501177 cm-1
  The total diagonal Born-Oppenheimer correction (DBOC) is:            10.892 kJ/mole
  hellooooooo 
  readis is  F
 
 @CHECKOUT-I, Total execution time (CPU/WALL):        0.01/       0.04 seconds.
--executable xjoda finished with status     0 in        0.06 seconds (walltime).
  The final electronic energy is      -113.269539850443280 a.u. 
  This computation required                         2528.46 seconds (walltime).
