 --invoking executable--
/nfs/workspaces/public/cfour_mpi/bin/xjoda


   *************************************************************************
         <<<     CCCCCC     CCCCCC   |||     CCCCCC     CCCCCC   >>>
       <<<      CCC        CCC       |||    CCC        CCC         >>>
      <<<      CCC        CCC        |||   CCC        CCC            >>>
    <<<        CCC        CCC        |||   CCC        CCC              >>>
      <<<      CCC        CCC        |||   CCC        CCC            >>>
       <<<      CCC        CCC       |||    CCC        CCC         >>>
         <<<     CCCCCC     CCCCCC   |||     CCCCCC     CCCCCC   >>>
   *************************************************************************

     ****************************************************************
     * CFOUR Coupled-Cluster techniques for Computational Chemistry *
     ****************************************************************
 

   Department of Chemistry                Institut fuer Physikalische Chemie
   University of Florida                  Universitaet Mainz
   Gainesville, FL 32611, USA             D-55099 Mainz, Germany

   Department of Chemistry                Fakultaet fuer Chemie und Biowiss.
   Johns Hopkins University               Karlsruher Institut fuer Technologie
   Baltimore, MD 21218, USA               D-76131 Karlsruhe, Germany

   Department of Chemistry                Department of Physical Chemistry
   Southern Methodist University          Eotvos Lorand University
   Dallas, TX 75275, USA                  H-1053 Budapest, Hungary

 
                       Version 2.1
 
                     vincent.theory.phys.ucl.ac.uk                     
                     Mon 24 Feb 16:22:57 GMT 2025                      
                     integer*8 version is running
 
********************************************************************************
*                          Input from ZMAT file                                *
********************************************************************************
Carbon Monoxide DBOC calculation                                                
C                                                                               
O 1 r                                                                           
                                                                                
r=0.993103448275862                                                             
                                                                                
                                                                                
*CFOUR(CALC=CCSD,BASIS=AUG-PCVQZ,SCF_CONV=10                                    
CC_CONV=14,DBOC=ON,MEMORY=500000000                                             
ZFIELD=200)                                                                     
                                                                                
%isotopes                                                                       
12                                                                              
16                                                                              
********************************************************************************
  @GTFLGS-I, Hessian will be transformed to curvilinear coordinates.
    -------------------------------------------------------------------
                    CFOUR Control Parameters 
    -------------------------------------------------------------------
        External           Internal           Value            Units
          Name               Name
    -------------------------------------------------------------------
       ABCDTYPE             IABCDT         STANDARD    [  0]    ***   
       ANHARMONIC           IANHAR         OFF         [  0]    ***   
       ANH_ALGORIT          IANALG         STANDARD    [  0]    ***   
       ANH_DERIVAT          IANDER         SECOND      [  1]    ***   
       ANH_MODE             ANHMOD         VIBRATION   [  0]    ***   
       ANH_STEPSIZ          ICUBST             50000          x 10-6  
       ANH_SYMMETR          IANHSM         ABELIAN     [  0]    ***   
       AO_LADDERS           IAOLAD         SINGLEPASS  [  1]    ***   
       AV_SCF               IAVSCF         OFF         [  0]    ***   
       BASIS                IBASIS         AUG-PCVQZ   [ 52]    ***   
       BOTHVECTORS          BOTHVC         OFF         [  0]    ***   
       BOX_POTENT           IPIAB          OFF         [  0]    ***   
       BREIT                IBREIT         OFF         [  0]    ***   
       BRUCK_CONV           IBRTOL          10D-  4             ***   
       BRUECKNER            IBRKNR         OFF         [  0]    ***   
       BUFFERSIZE           IBUFFS              4096            ***   
       CACHE_RECS           ICHREC             10               ***   
       CALCLEVEL            ICLLVL         CCSD        [ 10]    ***   
       CCORBOPT             ICCORB         OFF         [  0]  x 0.01  
       CC_CONV              ICCCNV          10D- 14             ***   
       CC_EXPORDER          ICCEOR              5               ***   
       CC_EXTRAPOL          ICCEXT         DIIS        [  1]    ***   
       CC_GUESS             ICCGES         MP2         [  0]    ***   
       CC_MAXCYC            ICCCYC            100              cycles 
       CC_PROGRAM           ICCPRO         VCC         [  0]    ***   
       CHARGE               ICHRGE              0               ***   
       CHOLESKY             ICHOLE         OFF         [  0]    ***   
       CIS_CONV             ICISTL              5               ***   
       COMM_SIZE            IPSIZE            ***               ***   
       CONSTANT             ICONST         OLD         [  1]    ***   
       CONTINUUM            ICONTU         NONE        [  0]    ***   
       CONTRACTION          ICNTYP         GENERAL     [  1]    ***   
       COORDINATES          ICOORD         INTERNAL    [  0]    ***   
       CPHF_CONVER          ICPHFT          10D- 16             ***   
       CPHF_MAXCYC          ICPHFC             64              cycles 
       CUBIC                ICUBIC         OFF         [  0]    ***   
       CURVILINEAR          ICURVY         ON          [  1]    ***   
       DBOC                 IDBOC          ON          [  1]    ***   
       DCT                  IDCT           OFF         [  0]    ***   
       DERIV_LEV            IDRLVL         SECOND      [  2]    ***   
       DEVMEM_SIZE          IDVMEM          50000000           MByte  
       DIAG_MRCC            IEOMST          10D-  0             ***   
       DIFF_TYPE            IDIFTY         RELAXED     [  0]    ***   
       DIRECT               IDIRCT         OFF         [  0]    ***   
       DROPMO               IDRPMO      NONE         
       ECP                  IECP           OFF         [  0]    ***   
       EIGENVECTOR          IVEC                1               ***   
       EL_ANHARM            IELANH         OFF         [  0]    ***   
       EOMFOLLOW            IEOMSR         ENERGY      [  0]    ***   
       EOMIP                IEOMIP         OFF         [  0]    ***   
       EOMLEVEL             HBARFM         SAME        [  0]    ***   
       EOM_MRCC             IMRCCE         NEW         [  1]    ***   
       EOM_NONIT            EOMNON         OFF         [  0]    ***   
       EOM_NSING            IEOMSI          10D-  0             ***   
       EOM_NSTATES          IMRCCD         DAVIDSON    [  0]    ***   
       EOM_NTRIP            IEOMTR          10D-  0             ***   
       EOM_ORDER            IEXORD         ENERGY      [  0]    ***   
       EOM_PROPSTA          IEOMST              0               ***   
       ESTATE_CONV          IEXTOL          10D-  5             ***   
       ESTATE_DIAG          IEXDIG         ITERATIVE   [  0]    ***   
       ESTATE_LOCK          IESLOC         ON          [  1]    ***   
       ESTATE_MAXC          IEXMXC             40               ***   
       ESTATE_PROP          IEXPRP         OFF         [  0]    ***   
       EVAL_HESS            IRECAL              0            # of cyc.
       EXCITATION           IEXCIT              0               ***   
       EXCITE               IEXCIT         NONE        [  0]    ***   
       EXTERN_POT           IEXPOT         OFF         [  0]    ***   
       FCGRADNEW            IFCGNW         OFF         [  0]    ***   
       FC_FIELD             IFINFC              0             x 10-6  
       FD_CALTYPE           IFDCAL         GRADONLY    [  0]    ***   
       FD_PROJECT           IFDPRJ         OFF         [  1]    ***   
       FD_STEPSIZE          IDISFD              0            10-4 bohr
       FD_USEGROUP          IFDGRP         FULL        [  0]    ***   
       FILE_RECSIZ          IFLREC              4096           words  
       FINITE_PERT          IFIPER              0             x 10-6  
       FIXGEOM              IFIXGM         OFF         [  0]    ***   
       FOCK                 IFOCK          AO          [  1]    ***   
       FREQ_ALGORI          IVIALG         STANDARD    [  0]    ***   
       FROZEN_CORE          IFROCO         OFF         [  0]    ***   
       GAMMA_ABCD           IGABCD         STORE       [  0]    ***   
       GAMMA_ABCI           IGABCI         STORE       [  0]    ***   
       GENBAS_1             IGNBS1              0               ***   
       GENBAS_2             IGNBS2              0               ***   
       GENBAS_3             IGNBS3              0               ***   
       GENBAS_4             IGNBS4              0               ***   
       GEO_CONV             ICONTL              5              H/bohr 
       GEO_MAXCYC           IOPTCY             50               ***   
       GEO_MAXSTEP          IMXSTP            300            millibohr
       GEO_METHOD           INR            SINGLE_POINT[  5]    ***   
       GIAO                 IGIAO          OFF         [  1]    ***   
       GIMIC                IGIMIC         OFF         [  0]    ***   
       GRID                 IGRID          OFF         [  0]    ***   
       GRID_ALGO            IGALGO         SERIAL      [  0]    ***   
       GUESS                IGUESS         MOREAD      [  0]    ***   
       HBAR                 IHBAR          OFF         [  0]    ***   
       HESS_TYPE            IHESTP         SCF         [  0]    ***   
       HF2_FILE             IHF2Fl         USE         [  1]    ***   
       HFSTABILITY          ISTABL         OFF         [  0]    ***   
       INCORE               INCORE         OFF         [  0]    ***   
       INPUT_MRCC           IMRCC          ON          [  1]    ***   
       INTEGRALS            INTTYP         VMOL        [  1]    ***   
       JODA_PRINT           IJPRNT              0               ***   
       KEYWORD_OUT          IDMPKW         NO          [  0]    ***   
       LINDEP_TOL           ILINDP              8               ***   
       LINEQ_CONV           IZTACN          10D-  7           cycles  
       LINEQ_EXPOR          ILMAXD              5               ***   
       LINEQ_MAXCY          ILMAXC            100               ***   
       LINEQ_TYPE           ILTYPE         DIIS        [  1]    ***   
       LOCK_ORBOCC          ILOCOC         OFF         [  0]    ***   
       MEMORY_SIZE          IMEMSZ         500000000           words  
       MEM_UNIT             IMEMU          INTEGERWORDS[  0]    ***   
       MRCC                 IMRCCC         OFF         [  0]    ***   
       MULTIPLICTY          IMULTP              1               ***   
       NACOUPLING           IVCOUP         OFF         [  0]    ***   
       NEGEVAL              IDIE           ABORT       [  0]    ***   
       NEWNORM              INEWNO         OFF         [  0]    ***   
       NON-HF               INONHF         OFF         [  0]    ***   
       NTOP_TAMP            ITOPT2             15               ***   
       NUC_MODEL            INUCMO         POINT       [  0]    ***   
       OCCUPATION           IOCCU   ESTIMATED BY SCF 
       OPEN-SHELL           IOPEN          SPIN-ORBITAL[  0]    ***   
       OPTVIB               IOPTVB         OFF         [  0]    ***   
       ORBITALS             IORBTP         STANDARD    [  0]    ***   
       PARALLEL             IPARAL         ON          [  1]    ***   
       PARA_INT             IPINTS         ON          [  1]    ***   
       PARA_PRINT           IPPRIN              0               ***   
       PERT_ORB             IPTORB         STANDARD    [  0]    ***   
       POINTS               IGRDFD              0               ***   
       PRINT                IPRNT               0               ***   
       PROPS                IPROPS         OFF         [  0]    ***   
       PROP_INTEGR          IINTYP         INTERNAL    [  0]    ***   
       PSI                  IPSI           OFF         [  0]    ***   
       QC_ALG               IQCALG         FLM         [  0]    ***   
       QC_LINALG            IQCLIN         TRIDIAG     [  2]    ***   
       QC_MAXCYC            IQCMAX          10D-100           cycles  
       QC_MAXSCFCY          IQCMSC          10D- 15           cycles  
       QC_RTRUST            IQCRTR          10D-  0           x 10-3  
       QC_SKIPSCF           IQCSKI         OFF         [  0]    ***   
       QC_START             IQCSTA          10D-  1             ***   
       QRHFGUESS            IQGUES         OFF         [  0]    ***   
       QUARTIC              IQUART         OFF         [  0]    ***   
       RAMAN_INT            IRAMIN         OFF         [  0]    ***   
       RAMAN_ORB            IRAMRE         UNRELAXED   [  0]    ***   
       RDO                  IRDOFM         ON          [  1]    ***   
       REDUCE_REPR          REDREP         Ir          [  0]    ***   
       REFERENCE            IREFNC         RHF         [  0]    ***   
       RELATIVIST           IRELAT         OFF         [  0]    ***   
       RELAX_DENS           IRDENS         ON          [  1]    ***   
       RESET_FLAGS          IRESET         OFF         [  0]    ***   
       RESTART_CC           ICCRES         OFF         [  0]    ***   
       ROT_EVEC             ROTVEC              0               ***   
       SAVE_INTS            ISVINT         OFF         [  0]    ***   
       SCALE_ON             ISTCRT              0               ***   
       SCF_CONV             ISCFCV          10D- 10             ***   
       SCF_DAMPING          IDAMP               0             x 10-3  
       SCF_EXPORDE          IRPPOR              6               ***   
       SCF_EXPSTAR          IRPPLS              8               ***   
       SCF_EXTRAPO          IRPP           ON          [  1]    ***   
       SCF_MAXCYC           ISCFCY            150              cycles 
       SCF_NOSTOP           ISCFST         OFF         [  0]    ***   
       SCF_PRINT            ISCFPR              0               ***   
       SCF_PROG             ISCFPR         SCF         [  0]    ***   
       SD_FIELD             IFINSD              0             x 10-6  
       SOPERT               IPERSO         OFF         [  0]    ***   
       SPHERICAL            IDFGHI         ON          [  1]    ***   
       SPINORBIT            ISOCAL         OFF         [  0]    ***   
       SPINROTATIO          ISRCON         OFF         [  0]    ***   
       SPIN_FLIP            ISPFLP         OFF         [  0]    ***   
       SPIN_ORBIT           ISPORB         OFF         [  0]    ***   
       SPIN_SCAL            ISCSMP         OFF         [  0]    ***   
       STEEPSCALE           ISTPSC              1000          x 10-3  
       SUBGROUP             ISUBGP         DEFAULT     [  0]    ***   
       SUBGRPAXIS           ISBXYZ         X           [  0]    ***   
       SYMMETRY             ISYM           ON          [  0]    ***   
       SYM_CHECK            ISYMCK         OVERRIDE    [  1]    ***   
       T3_EXTRAPOL          IT3EXT         OFF         [  0]    ***   
       T4_EXTRAPOL          IT4EXP         OFF         [  0]    ***   
       TAMP_SUM             IEVERY              5               ***   
       TESTSUITE            ITESTS         OFF         [  0]    ***   
       THERMOCH             ITHERM         OFF         [  0]    ***   
       TOL_CHOLESK          ITOLCH          10D-  4             ***   
       TRANGRAD             IRESRM         OFF         [  0]    ***   
       TRANS_INV            ITRAIN         IGNORE      [  1]    ***   
       TREAT_PERT           ITREAT         SIMULTANEOUS[  0]    ***   
       TRIP_ALGORI          ITRALG         NORMAL      [  0]    ***   
       UIJ_THRESHO          IUIJTH              1               ***   
       UNITS                IUNITS         ANGSTROM    [  0]    ***   
       UNOS                 IUNOS          OFF         [  0]    ***   
       UPDATE_HESS          IHUPDT         ON          [  1]    ***   
       VIBPHASE             ISETPH         STANDARD    [  0]    ***   
       VIBRATION            IVIB           ANALYTIC    [  1]    ***   
       VIB_ALGORIT          IGEALG         STANDARD    [  0]    ***   
       VNATORB              IVNORB         OFF         [  0]    ***   
       VTRAN                IVTRAN         FULL/PARTIAL[  0]    ***   
       XFIELD               IXEFLD              0             x 10-6  
       XFORM_TOL            IXFTOL          10D- 11             ***   
       YFIELD               IYEFLD              0             x 10-6  
       ZFIELD               IZEFLD            200             x 10-6  
       ZSCALE_EXP           IZEXPS         OFF         [  0]    ***   
    -------------------------------------------------------------------
   2 entries found in Z-matrix 
   Job Title : Carbon Monoxide DBOC calculation                                                
   There are  1 unique internal coordinates.
   Of these,  0 will be optimized.
   User supplied Z-matrix: 
--------------------------------------------------------------------------------
       SYMBOL    BOND      LENGTH    ANGLE     ANGLE     DIHED     ANGLE
                  TO      (ANGST)    WRT      (DEG)      WRT      (DEG)
--------------------------------------------------------------------------------
        C    
        O          1         r    
                  *Initial values for internal coordinates* 
                      Name             Value
                        r               0.9931034483
--------------------------------------------------------------------------------
  read isotopes from ZMAT file 
   Rotational constants (in cm-1): 
          2.4930073011             2.4930073011
   Rotational constants (in MHz): 
      74738.4891321802         74738.4891321802
********************************************************************************
   The full molecular point group is CXv .
   The largest Abelian subgroup of the full molecular point group is C2v .
   The computational point group is C2v .
********************************************************************************
--------------------------------------------------------------------------------
   Analysis of internal coordinates specified by Z-matrix 
--------------------------------------------------------------------------------
   *The nuclear repulsion energy is   25.576893166666665 a.u.
   *There is   1 degree of freedom within the tot. symm. molecular subspace.
   *Z-matrix requests optimization of   0 coordinates.
   *The optimization is constrained.
   *The following   1 parameters can have non-zero 
    derivatives within the totally symmetric subspace:
             r    [ 1]
   *The following   0 parameters are to be optimized:

   *The following coordinates must be varied in an  unconstrained optimization.
             r    [ 1]
--------------------------------------------------------------------------------


 ----------------------------------------------------------------
         Coordinates used in calculation (QCOMP) 
 ----------------------------------------------------------------
 Z-matrix   Atomic            Coordinates (in bohr)
  Symbol    Number           X              Y              Z
 ----------------------------------------------------------------
     C         6        -0.00000000     0.00000000     1.07225042
     O         8         0.00000000     0.00000000    -0.80444350
 ----------------------------------------------------------------
 
   Interatomic distance matrix (Angstroms) 
 
                 C             O    
                [ 1]        [ 2]
  C    [ 1]     0.00000
  O    [ 2]     0.99310     0.00000
 rotcon2
   Rotational constants (in cm-1): 
          2.4930073011             0.0000000000
   Rotational constants (in MHz): 
      74738.4891321802             0.0000000000
  ECPDATA file not present.   Using default ECPDATA. 
  @GTFLGS-I, Hessian will be transformed to curvilinear coordinates.
  There are  218 basis functions.
 @CHECKOUT-I, Total execution time (CPU/WALL):        0.11/       0.16 seconds.
--executable xjoda finished with status     0 in        0.17 seconds (walltime).
 --invoking executable--
/nfs/workspaces/public/cfour_mpi/bin/xvmol
 SERIAL VERSION OF MOLECULE STARTED
********************************************************************************
                    INPUT FROM MOL FILE
********************************************************************************
INTGRL        1    0    1    0    0    0    0    0    0                         
         *** CFOUR Program System (Release V0.1) ***                            
Carbon Monoxide DBOC calculation                                                
    2    2 X  Y       0.10E-08              0    0                              
   9999.00      3.00                                                            
          6.00000000    1    5    1    1    1    1    1                         
C #1  -0.000000000000000   0.000000000000000   1.072250424669153                
   16    9                                                                      
   33980.0000000000       9.100000000000000E-005 -1.900000000000000E-005        
  0.000000000000000E+000  0.000000000000000E+000  0.000000000000000E+000        
  0.000000000000000E+000  0.000000000000000E+000  0.000000000000000E+000        
  0.000000000000000E+000                                                        
   5089.00000000000       7.040000000000000E-004 -1.510000000000000E-004        
  0.000000000000000E+000  0.000000000000000E+000  0.000000000000000E+000        
  0.000000000000000E+000  0.000000000000000E+000  0.000000000000000E+000        
  0.000000000000000E+000                                                        
   1157.00000000000       3.693000000000000E-003 -7.850000000000000E-004        
  0.000000000000000E+000  0.000000000000000E+000  0.000000000000000E+000        
  0.000000000000000E+000  0.000000000000000E+000  0.000000000000000E+000        
  0.000000000000000E+000                                                        
   326.600000000000       1.536000000000000E-002 -3.324000000000000E-003        
  0.000000000000000E+000  0.000000000000000E+000  0.000000000000000E+000        
  0.000000000000000E+000  0.000000000000000E+000  0.000000000000000E+000        
  0.000000000000000E+000                                                        
   106.100000000000       5.292900000000000E-002 -1.151200000000000E-002        
  0.000000000000000E+000  0.000000000000000E+000  0.000000000000000E+000        
  0.000000000000000E+000  0.000000000000000E+000  0.000000000000000E+000        
  0.000000000000000E+000                                                        
   38.1100000000000       0.147043000000000      -3.416000000000000E-002        
  0.000000000000000E+000  0.000000000000000E+000  0.000000000000000E+000        
  0.000000000000000E+000  0.000000000000000E+000  0.000000000000000E+000        
  0.000000000000000E+000                                                        
   14.7500000000000       0.305631000000000      -7.717300000000001E-002        
  0.000000000000000E+000  0.000000000000000E+000  0.000000000000000E+000        
  0.000000000000000E+000  0.000000000000000E+000  0.000000000000000E+000        
  0.000000000000000E+000                                                        
   6.03500000000000       0.399345000000000      -0.141493000000000             
  0.000000000000000E+000  0.000000000000000E+000  0.000000000000000E+000        
  0.000000000000000E+000  0.000000000000000E+000  0.000000000000000E+000        
  0.000000000000000E+000                                                        
   2.53000000000000       0.217051000000000      -0.118019000000000             
  0.000000000000000E+000  0.000000000000000E+000  0.000000000000000E+000        
  0.000000000000000E+000  0.000000000000000E+000  0.000000000000000E+000        
  0.000000000000000E+000                                                        
  0.735500000000000       1.589400000000000E-002  0.273806000000000             
   1.00000000000000       0.000000000000000E+000  0.000000000000000E+000        
  0.000000000000000E+000  0.000000000000000E+000  0.000000000000000E+000        
  0.000000000000000E+000                                                        
  0.290500000000000      -3.084000000000000E-003  0.586510000000000             
  0.000000000000000E+000   1.00000000000000       0.000000000000000E+000        
  0.000000000000000E+000  0.000000000000000E+000  0.000000000000000E+000        
  0.000000000000000E+000                                                        
  0.111100000000000       9.779999999999999E-004  0.285430000000000             
  0.000000000000000E+000  0.000000000000000E+000   1.00000000000000             
  0.000000000000000E+000  0.000000000000000E+000  0.000000000000000E+000        
  0.000000000000000E+000                                                        
   7.21600000000000       0.000000000000000E+000  0.000000000000000E+000        
  0.000000000000000E+000  0.000000000000000E+000  0.000000000000000E+000        
   1.00000000000000       0.000000000000000E+000  0.000000000000000E+000        
  0.000000000000000E+000                                                        
   19.5700000000000       0.000000000000000E+000  0.000000000000000E+000        
  0.000000000000000E+000  0.000000000000000E+000  0.000000000000000E+000        
  0.000000000000000E+000   1.00000000000000       0.000000000000000E+000        
  0.000000000000000E+000                                                        
   53.0730000000000       0.000000000000000E+000  0.000000000000000E+000        
  0.000000000000000E+000  0.000000000000000E+000  0.000000000000000E+000        
  0.000000000000000E+000  0.000000000000000E+000   1.00000000000000             
  0.000000000000000E+000                                                        
  4.145000000000000E-002  0.000000000000000E+000  0.000000000000000E+000        
  0.000000000000000E+000  0.000000000000000E+000  0.000000000000000E+000        
  0.000000000000000E+000  0.000000000000000E+000  0.000000000000000E+000        
   1.00000000000000                                                             
   10    8                                                                      
   34.5100000000000       5.378000000000000E-003  0.000000000000000E+000        
  0.000000000000000E+000  0.000000000000000E+000  0.000000000000000E+000        
  0.000000000000000E+000  0.000000000000000E+000  0.000000000000000E+000        
   7.91500000000000       3.613200000000000E-002  0.000000000000000E+000        
  0.000000000000000E+000  0.000000000000000E+000  0.000000000000000E+000        
  0.000000000000000E+000  0.000000000000000E+000  0.000000000000000E+000        
   2.36800000000000       0.142493000000000       0.000000000000000E+000        
  0.000000000000000E+000  0.000000000000000E+000  0.000000000000000E+000        
  0.000000000000000E+000  0.000000000000000E+000  0.000000000000000E+000        
  0.813200000000000       0.342150000000000        1.00000000000000             
  0.000000000000000E+000  0.000000000000000E+000  0.000000000000000E+000        
  0.000000000000000E+000  0.000000000000000E+000  0.000000000000000E+000        
  0.289000000000000       0.463864000000000       0.000000000000000E+000        
   1.00000000000000       0.000000000000000E+000  0.000000000000000E+000        
  0.000000000000000E+000  0.000000000000000E+000  0.000000000000000E+000        
  0.100700000000000       0.250028000000000       0.000000000000000E+000        
  0.000000000000000E+000   1.00000000000000       0.000000000000000E+000        
  0.000000000000000E+000  0.000000000000000E+000  0.000000000000000E+000        
   8.18200000000000       0.000000000000000E+000  0.000000000000000E+000        
  0.000000000000000E+000  0.000000000000000E+000   1.00000000000000             
  0.000000000000000E+000  0.000000000000000E+000  0.000000000000000E+000        
   24.1860000000000       0.000000000000000E+000  0.000000000000000E+000        
  0.000000000000000E+000  0.000000000000000E+000  0.000000000000000E+000        
   1.00000000000000       0.000000000000000E+000  0.000000000000000E+000        
   71.4940000000000       0.000000000000000E+000  0.000000000000000E+000        
  0.000000000000000E+000  0.000000000000000E+000  0.000000000000000E+000        
  0.000000000000000E+000   1.00000000000000       0.000000000000000E+000        
  3.218000000000000E-002  0.000000000000000E+000  0.000000000000000E+000        
  0.000000000000000E+000  0.000000000000000E+000  0.000000000000000E+000        
  0.000000000000000E+000  0.000000000000000E+000   1.00000000000000             
    6    6                                                                      
   1.84800000000000        1.00000000000000       0.000000000000000E+000        
  0.000000000000000E+000  0.000000000000000E+000  0.000000000000000E+000        
  0.000000000000000E+000                                                        
  0.649000000000000       0.000000000000000E+000   1.00000000000000             
  0.000000000000000E+000  0.000000000000000E+000  0.000000000000000E+000        
  0.000000000000000E+000                                                        
  0.228000000000000       0.000000000000000E+000  0.000000000000000E+000        
   1.00000000000000       0.000000000000000E+000  0.000000000000000E+000        
  0.000000000000000E+000                                                        
   8.65600000000000       0.000000000000000E+000  0.000000000000000E+000        
  0.000000000000000E+000   1.00000000000000       0.000000000000000E+000        
  0.000000000000000E+000                                                        
   33.2130000000000       0.000000000000000E+000  0.000000000000000E+000        
  0.000000000000000E+000  0.000000000000000E+000   1.00000000000000             
  0.000000000000000E+000                                                        
  7.660000000000000E-002  0.000000000000000E+000  0.000000000000000E+000        
  0.000000000000000E+000  0.000000000000000E+000  0.000000000000000E+000        
   1.00000000000000                                                             
    4    4                                                                      
   1.41900000000000        1.00000000000000       0.000000000000000E+000        
  0.000000000000000E+000  0.000000000000000E+000                                
  0.485000000000000       0.000000000000000E+000   1.00000000000000             
  0.000000000000000E+000  0.000000000000000E+000                                
   24.6940000000000       0.000000000000000E+000  0.000000000000000E+000        
   1.00000000000000       0.000000000000000E+000                                
  0.187000000000000       0.000000000000000E+000  0.000000000000000E+000        
  0.000000000000000E+000   1.00000000000000                                     
    2    2                                                                      
   1.01100000000000        1.00000000000000       0.000000000000000E+000        
  0.424000000000000       0.000000000000000E+000   1.00000000000000             
          8.00000000    1    5    1    1    1    1    1                         
O #2   0.000000000000000   0.000000000000000  -0.804443499304243                
   16    9                                                                      
   61420.0000000000       9.000000000000001E-005 -2.000000000000000E-005        
  0.000000000000000E+000  0.000000000000000E+000  0.000000000000000E+000        
  0.000000000000000E+000  0.000000000000000E+000  0.000000000000000E+000        
  0.000000000000000E+000                                                        
   9199.00000000000       6.980000000000001E-004 -1.590000000000000E-004        
  0.000000000000000E+000  0.000000000000000E+000  0.000000000000000E+000        
  0.000000000000000E+000  0.000000000000000E+000  0.000000000000000E+000        
  0.000000000000000E+000                                                        
   2091.00000000000       3.664000000000000E-003 -8.290000000000000E-004        
  0.000000000000000E+000  0.000000000000000E+000  0.000000000000000E+000        
  0.000000000000000E+000  0.000000000000000E+000  0.000000000000000E+000        
  0.000000000000000E+000                                                        
   590.900000000000       1.521800000000000E-002 -3.508000000000000E-003        
  0.000000000000000E+000  0.000000000000000E+000  0.000000000000000E+000        
  0.000000000000000E+000  0.000000000000000E+000  0.000000000000000E+000        
  0.000000000000000E+000                                                        
   192.300000000000       5.242300000000000E-002 -1.215600000000000E-002        
  0.000000000000000E+000  0.000000000000000E+000  0.000000000000000E+000        
  0.000000000000000E+000  0.000000000000000E+000  0.000000000000000E+000        
  0.000000000000000E+000                                                        
   69.3200000000000       0.145921000000000      -3.626100000000000E-002        
  0.000000000000000E+000  0.000000000000000E+000  0.000000000000000E+000        
  0.000000000000000E+000  0.000000000000000E+000  0.000000000000000E+000        
  0.000000000000000E+000                                                        
   26.9700000000000       0.305258000000000      -8.299200000000000E-002        
  0.000000000000000E+000  0.000000000000000E+000  0.000000000000000E+000        
  0.000000000000000E+000  0.000000000000000E+000  0.000000000000000E+000        
  0.000000000000000E+000                                                        
   11.1000000000000       0.398508000000000      -0.152090000000000             
  0.000000000000000E+000  0.000000000000000E+000  0.000000000000000E+000        
  0.000000000000000E+000  0.000000000000000E+000  0.000000000000000E+000        
  0.000000000000000E+000                                                        
   4.68200000000000       0.216980000000000      -0.115331000000000             
  0.000000000000000E+000  0.000000000000000E+000  0.000000000000000E+000        
  0.000000000000000E+000  0.000000000000000E+000  0.000000000000000E+000        
  0.000000000000000E+000                                                        
   1.42800000000000       1.759400000000000E-002  0.288979000000000             
   1.00000000000000       0.000000000000000E+000  0.000000000000000E+000        
  0.000000000000000E+000  0.000000000000000E+000  0.000000000000000E+000        
  0.000000000000000E+000                                                        
  0.554700000000000      -2.502000000000000E-003  0.586128000000000             
  0.000000000000000E+000   1.00000000000000       0.000000000000000E+000        
  0.000000000000000E+000  0.000000000000000E+000  0.000000000000000E+000        
  0.000000000000000E+000                                                        
  0.206700000000000       9.540000000000000E-004  0.277624000000000             
  0.000000000000000E+000  0.000000000000000E+000   1.00000000000000             
  0.000000000000000E+000  0.000000000000000E+000  0.000000000000000E+000        
  0.000000000000000E+000                                                        
   12.9740000000000       0.000000000000000E+000  0.000000000000000E+000        
  0.000000000000000E+000  0.000000000000000E+000  0.000000000000000E+000        
   1.00000000000000       0.000000000000000E+000  0.000000000000000E+000        
  0.000000000000000E+000                                                        
   34.9000000000000       0.000000000000000E+000  0.000000000000000E+000        
  0.000000000000000E+000  0.000000000000000E+000  0.000000000000000E+000        
  0.000000000000000E+000   1.00000000000000       0.000000000000000E+000        
  0.000000000000000E+000                                                        
   93.8810000000000       0.000000000000000E+000  0.000000000000000E+000        
  0.000000000000000E+000  0.000000000000000E+000  0.000000000000000E+000        
  0.000000000000000E+000  0.000000000000000E+000   1.00000000000000             
  0.000000000000000E+000                                                        
  6.959000000000000E-002  0.000000000000000E+000  0.000000000000000E+000        
  0.000000000000000E+000  0.000000000000000E+000  0.000000000000000E+000        
  0.000000000000000E+000  0.000000000000000E+000  0.000000000000000E+000        
   1.00000000000000                                                             
   10    8                                                                      
   63.4200000000000       6.044000000000000E-003  0.000000000000000E+000        
  0.000000000000000E+000  0.000000000000000E+000  0.000000000000000E+000        
  0.000000000000000E+000  0.000000000000000E+000  0.000000000000000E+000        
   14.6600000000000       4.179900000000000E-002  0.000000000000000E+000        
  0.000000000000000E+000  0.000000000000000E+000  0.000000000000000E+000        
  0.000000000000000E+000  0.000000000000000E+000  0.000000000000000E+000        
   4.45900000000000       0.161143000000000       0.000000000000000E+000        
  0.000000000000000E+000  0.000000000000000E+000  0.000000000000000E+000        
  0.000000000000000E+000  0.000000000000000E+000  0.000000000000000E+000        
   1.53100000000000       0.356731000000000        1.00000000000000             
  0.000000000000000E+000  0.000000000000000E+000  0.000000000000000E+000        
  0.000000000000000E+000  0.000000000000000E+000  0.000000000000000E+000        
  0.530200000000000       0.448309000000000       0.000000000000000E+000        
   1.00000000000000       0.000000000000000E+000  0.000000000000000E+000        
  0.000000000000000E+000  0.000000000000000E+000  0.000000000000000E+000        
  0.175000000000000       0.244940000000000       0.000000000000000E+000        
  0.000000000000000E+000   1.00000000000000       0.000000000000000E+000        
  0.000000000000000E+000  0.000000000000000E+000  0.000000000000000E+000        
   14.4750000000000       0.000000000000000E+000  0.000000000000000E+000        
  0.000000000000000E+000  0.000000000000000E+000   1.00000000000000             
  0.000000000000000E+000  0.000000000000000E+000  0.000000000000000E+000        
   42.7300000000000       0.000000000000000E+000  0.000000000000000E+000        
  0.000000000000000E+000  0.000000000000000E+000  0.000000000000000E+000        
   1.00000000000000       0.000000000000000E+000  0.000000000000000E+000        
   126.140000000000       0.000000000000000E+000  0.000000000000000E+000        
  0.000000000000000E+000  0.000000000000000E+000  0.000000000000000E+000        
  0.000000000000000E+000   1.00000000000000       0.000000000000000E+000        
  5.348000000000000E-002  0.000000000000000E+000  0.000000000000000E+000        
  0.000000000000000E+000  0.000000000000000E+000  0.000000000000000E+000        
  0.000000000000000E+000  0.000000000000000E+000   1.00000000000000             
    6    6                                                                      
   3.77500000000000        1.00000000000000       0.000000000000000E+000        
  0.000000000000000E+000  0.000000000000000E+000  0.000000000000000E+000        
  0.000000000000000E+000                                                        
   1.30000000000000       0.000000000000000E+000   1.00000000000000             
  0.000000000000000E+000  0.000000000000000E+000  0.000000000000000E+000        
  0.000000000000000E+000                                                        
  0.444000000000000       0.000000000000000E+000  0.000000000000000E+000        
   1.00000000000000       0.000000000000000E+000  0.000000000000000E+000        
  0.000000000000000E+000                                                        
   14.9270000000000       0.000000000000000E+000  0.000000000000000E+000        
  0.000000000000000E+000   1.00000000000000       0.000000000000000E+000        
  0.000000000000000E+000                                                        
   57.5440000000000       0.000000000000000E+000  0.000000000000000E+000        
  0.000000000000000E+000  0.000000000000000E+000   1.00000000000000             
  0.000000000000000E+000                                                        
  0.154000000000000       0.000000000000000E+000  0.000000000000000E+000        
  0.000000000000000E+000  0.000000000000000E+000  0.000000000000000E+000        
   1.00000000000000                                                             
    4    4                                                                      
   2.66600000000000        1.00000000000000       0.000000000000000E+000        
  0.000000000000000E+000  0.000000000000000E+000                                
  0.859000000000000       0.000000000000000E+000   1.00000000000000             
  0.000000000000000E+000  0.000000000000000E+000                                
   26.4830000000000       0.000000000000000E+000  0.000000000000000E+000        
   1.00000000000000       0.000000000000000E+000                                
  0.324000000000000       0.000000000000000E+000  0.000000000000000E+000        
  0.000000000000000E+000   1.00000000000000                                     
    2    2                                                                      
   1.84600000000000        1.00000000000000       0.000000000000000E+000        
  0.714000000000000       0.000000000000000E+000   1.00000000000000             
FINISH                                                                          
 
********************************************************************************
 ONE- AND TWO-ELECTRON INTEGRALS OVER SYMMETRY-ADAPTED AOS ARE CALCULATED.

  SPHERICAL HARMONICS ARE USED.
  
  INTEGRALS LESS THAN  0.10E-13 ARE NEGLECTED.

  NUCLEAR REPULSION ENERGY :   25.5768931667 A.U.
  @MOLECU-I, ONE ELECTRON INTEGRALS (CPU/WALL):        0.07/       0.09 SECONDS.
  @TWOEL-I,    4668243 INTEGRALS OF SYMMETRY TYPE  I I I I
  @TWOEL-I,   19975160 INTEGRALS OF SYMMETRY TYPE  I J I J
  @TWOEL-I,   10534449 INTEGRALS OF SYMMETRY TYPE  I I J J
  @TWOEL-I,   14758018 INTEGRALS OF SYMMETRY TYPE  I J K L
  @TWOEL-I, TOTAL NUMBER OF 2-E INTEGRALS   49935870.
  @MOLECU-I, TWO ELECTRON INTEGRALS (CPU/WALL):      194.24/      27.78 SECONDS.
 @CHECKOUT-I, Total execution time (CPU/WALL):      194.32/      27.88 seconds.

Running with 14 threads/proc

--executable xvmol finished with status     0 in       27.89 seconds (walltime).
 --invoking executable--
/nfs/workspaces/public/cfour_mpi/bin/xvmol2ja
 @GETMEM-I,  Allocated    3814 MB of main memory.
 @CHECKOUT-I, Total execution time (CPU/WALL):        0.10/       0.06 seconds.
--executable xvmol2ja finished with status     0 in        0.07 seconds (walltime).
 --invoking executable--
/nfs/workspaces/public/cfour_mpi/bin/xvprop
 @GETMEM-I,  Allocated    3814 MB of main memory.
   Property integrals will be calculated.
    --------------------------------------------------------------
                                   Property evaluated at 
    Property type                X             Y             Z
    --------------------------------------------------------------
    Dipole moment               ----          ----          ----  
    Quadrupole moment           ----          ----          ----  
    Octopole moment             ----          ----          ----  
    Relativisitic corr.         ----          ----          ----  
    Second moment            0.0000000     0.0000000     0.0000000
    Electron density         0.0000000     0.0000000     1.0722504
    Electron density         0.0000000     0.0000000    -0.8044435
    Field gradient           0.0000000     0.0000000     1.0722504
    Field gradient           0.0000000     0.0000000    -0.8044435
    Potential                0.0000000     0.0000000     1.0722504
    Potential                0.0000000     0.0000000    -0.8044435
    --------------------------------------------------------------
 @CHECKOUT-I, Total execution time (CPU/WALL):        1.34/       1.39 seconds.
--executable xvprop finished with status     0 in        1.41 seconds (walltime).
 --invoking executable--
/nfs/workspaces/public/cfour_mpi/bin/xvscf
  There are  218 functions in the AO basis.

  There are 4 irreducible representations.

       Irrep        # of functions
         1                 86
         2                 52
         3                 52
         4                 28


  Parameters for SCF calculation: 
        SCF reference function:  RHF  
  Maximum number of iterations:  150
     Full symmetry point group: CXv 
     Computational point group: C2v 
        Initial density matrix: MOREAD                 
     SCF convergence tolerance: 10**(-10)
  DIIS convergence acceleration:  ON
          Latest start for DIIS:   8
                     DIIS order:   6

  Memory information:    2523578 words required.
  Fock matrices are constructed from AO integral file.
 @GETMEM-I,  Allocated      19 MB of main memory.
  Initialization and symmetry analysis required      0.001 seconds.

  Adding electric field perturbation to one-electron Hamiltonian.
  Field direction     : Z
  Field strength      :  0.0002000 a.u.

  @INITGES-I, Occupancies from core Hamiltonian:

          Alpha population by irrep:   5    1    1    0
           Beta population by irrep:   5    1    1    0


 total no. of electrons in initial guess :  0.000000000000000E+000
  --------------------------------------------------------------------
  Iteration         Total Energy            Largest Density Difference
  --------------------------------------------------------------------
       0            25.576893575755946              0.0000000000D+00
   current occupation vector 
     5  1  1  0
     5  1  1  0
       1           -90.496521939177384              0.1986166763D+02
   current occupation vector 
     5  1  1  0
     5  1  1  0
       2           -93.019423578917227              0.1001784156D+03
   current occupation vector 
     5  1  1  0
     5  1  1  0
       3          -103.458194273324921              0.1001655588D+03
   current occupation vector 
     5  1  1  0
     5  1  1  0
       4          -100.880799746807639              0.1406886089D+02
   current occupation vector 
     5  1  1  0
     5  1  1  0
       5          -105.763350538228991              0.1409097496D+02
   current occupation vector 
     5  1  1  0
     5  1  1  0
       6          -103.132449770345374              0.9164932199D+01
   current occupation vector 
     5  1  1  0
     5  1  1  0
       7          -104.726558281316869              0.8931462909D+01
   current occupation vector 
     5  1  1  0
     5  1  1  0
       8          -102.094044201537031              0.5136677661D+01
   current occupation vector 
     5  1  1  0
     5  1  1  0
       9          -111.711096724330105              0.3373027103D+01
   current occupation vector 
     5  1  1  0
     5  1  1  0
      10          -112.611834823992922              0.8401597664D+00
   current occupation vector 
     5  1  1  0
     5  1  1  0
      11          -112.747849095737820              0.3180414746D+00
   current occupation vector 
     5  1  1  0
     5  1  1  0
      12          -112.749282449217077              0.3176967037D-01
   current occupation vector 
     5  1  1  0
     5  1  1  0
      13          -112.749343756954602              0.1192359879D-01
   current occupation vector 
     5  1  1  0
     5  1  1  0
      14          -112.749347546703973              0.2817195283D-02
   current occupation vector 
     5  1  1  0
     5  1  1  0
      15          -112.749347664303912              0.3713007539D-03
   current occupation vector 
     5  1  1  0
     5  1  1  0
      16          -112.749347667111181              0.4329100060D-04
   current occupation vector 
     5  1  1  0
     5  1  1  0
      17          -112.749347667253431              0.1716384518D-04
   current occupation vector 
     5  1  1  0
     5  1  1  0
      18          -112.749347667265795              0.2404493765D-05
   current occupation vector 
     5  1  1  0
     5  1  1  0
      19          -112.749347667266449              0.5600187172D-06
   current occupation vector 
     5  1  1  0
     5  1  1  0
      20          -112.749347667264090              0.6264162966D-07
   current occupation vector 
     5  1  1  0
     5  1  1  0
      21          -112.749347667265511              0.2254418585D-07
   current occupation vector 
     5  1  1  0
     5  1  1  0
      22          -112.749347667265738              0.4705565271D-08
   current occupation vector 
     5  1  1  0
     5  1  1  0
      23          -112.749347667266647              0.7901225785D-09
   current occupation vector 
     5  1  1  0
     5  1  1  0
      24          -112.749347667266022              0.2267328547D-09
   current occupation vector 
     5  1  1  0
     5  1  1  0

  SCF has converged.

 Density matrix saved to file den.dat
 total electron number:   14.0000000000000     
     E(SCF)=      -112.749347667265056              0.7520597339D-10

  Eigenvector printing suppressed.

 @PUTMOS-I, Writing converged MOs to NEWMOS. 
 @PUTMOS-I, Symmetry   1 Full Blocks 21 Partial Blocksize   2
 @PUTMOS-I, Symmetry   2 Full Blocks 13 Partial Blocksize   0
 @PUTMOS-I, Symmetry   3 Full Blocks 13 Partial Blocksize   0
 @PUTMOS-I, Symmetry   4 Full Blocks  7 Partial Blocksize   0
 @PUTFOCK-I, Writing converged Fock matrix to NEWFOCK. 
 @PUTFOCK-I, Symmetry   1 Full Blocks 21 Partial Blocksize   2
 @PUTFOCK-I, Symmetry   2 Full Blocks 13 Partial Blocksize   0
 @PUTFOCK-I, Symmetry   3 Full Blocks 13 Partial Blocksize   0
 @PUTFOCK-I, Symmetry   4 Full Blocks  7 Partial Blocksize   0


 
  ORBITAL EIGENVALUES (ALPHA)  (1H = 27.2113834 eV)

       MO #        E(hartree)               E(eV)           FULLSYM    COMPSYM
       ----   --------------------   --------------------   -------   ---------
    1     1         -20.6557298595        -562.0709846126     SG+        A1 (1)
    2     2         -11.2981664819        -307.4387398566     SG+        A1 (1)
    3     3          -1.6178442059         -44.0237789678     SG+        A1 (1)
    4     4          -0.8165280868         -22.2188588266     SG+        A1 (1)
    5    87          -0.7064800317         -19.2242990081      PI        B1 (2)
    6   139          -0.7064800317         -19.2242990081      PI        B2 (3)
    7     5          -0.5355096872         -14.5719594116     SG+        A1 (1)
  +++++++++++++++++++++++++++++++++++++++++++++++++++++++++++++++++++++++++++++
    8     6           0.0571348275           1.5547176955     SG+        A1 (1)
    9    88           0.0652586715           1.7757787304      PI        B1 (2)
   10   140           0.0652586715           1.7757787304      PI        B2 (3)
   11     7           0.0776744069           2.1136280656     SG+        A1 (1)
   12    89           0.1543042767           4.1988328346      PI        B1 (2)
   13   141           0.1543042767           4.1988328346      PI        B2 (3)
   14     8           0.1558533250           4.2409845810     SG+        A1 (1)
   15    90           0.1911506341           5.2014731914      PI        B1 (2)
   16   142           0.1911506341           5.2014731914      PI        B2 (3)
   17     9           0.2267630794           6.1705370935     SG+        A1 (1)
   18   191           0.2278300880           6.1995718754      DE        A2 (4)
   19    10           0.2278300880           6.1995718754      DE        A1 (1)
   20    11           0.3027407539           8.2379947241     SG+        A1 (1)
   21   143           0.3380232996           9.1980816035      PI        B2 (3)
   22    91           0.3380232996           9.1980816035      PI        B1 (2)
   23    12           0.3973153214          10.8114995414     SG+        A1 (1)
   24   144           0.4020550286          10.9404735300      PI        B2 (3)
   25    92           0.4020550286          10.9404735300      PI        B1 (2)
   26    13           0.5075706541          13.8116996706     SG+        A1 (1)
   27   192           0.5241895786          14.2639235979      DE        A2 (4)
   28    14           0.5241895786          14.2639235979      DE        A1 (1)
   29   145           0.6184017106          16.8275660414      PI        B2 (3)
   30    93           0.6184017106          16.8275660414      PI        B1 (2)
   31    15           0.6616084318          18.0032806995     SG+        A1 (1)
   32   146           0.7504693435          20.4213090368      PH        B2 (3)
   33    94           0.7504693435          20.4213090368      PH        B1 (2)
   34   193           0.7708357627          20.9755074786      DE        A2 (4)
   35    16           0.7708357628          20.9755074786      DE        A1 (1)
   36    17           0.7893828616          21.4801996962     SG+        A1 (1)
   37   147           0.8414120590          22.8959861343      PI        B2 (3)
   38    95           0.8414120590          22.8959861344      PI        B1 (2)
   39   148           0.8723441748          23.7376917959      PI        B2 (3)
   40    96           0.8723441748          23.7376917960      PI        B1 (2)
   41    18           0.8775907085          23.8804572366     SG+        A1 (1)
   42   194           0.9025899097          24.5607200856      DE        A2 (4)
   43    19           0.9025899097          24.5607200857      DE        A1 (1)
   44    20           0.9560780391          26.0162060816     SG+        A1 (1)
   45   149           1.1129808974          30.2857499150      PI        B2 (3)
   46    97           1.1129808974          30.2857499150      PI        B1 (2)
   47    21           1.3183177758          35.8732504412     SG+        A1 (1)
   48   150           1.4565510221          39.6347683031      PH        B2 (3)
   49    98           1.4565510221          39.6347683031      PH        B1 (2)
   50   195           1.5000932666          40.8196130119      DE        A2 (4)
   51    22           1.5000932666          40.8196130119      DE        A1 (1)
   52   151           1.5317122946          41.6800105064      PI        B2 (3)
   53    99           1.5317122946          41.6800105064      PI        B1 (2)
   54    23           1.5471133501          42.0990945329     SG+        A1 (1)
   55    24           1.6545602566          45.0228735013     SG+        A1 (1)
   56    25           1.7549126511          47.7536009834     SG+        A1 (1)
   57   196           1.7764344561          48.3392390708      DE        A2 (4)
   58    26           1.7764344561          48.3392390709      DE        A1 (1)
   59   152           1.8702189006          50.8912435472      PI        B2 (3)
   60   100           1.8702189006          50.8912435473      PI        B1 (2)
   61   153           1.9679239305          53.5499325739      PI        B2 (3)
   62   101           1.9679239305          53.5499325739      PI        B1 (2)
   63   197           2.1138156278          57.5198474855      PI        A2 (4)
   64    27           2.1138156278          57.5198474855      PI        A1 (1)
   65    28           2.2134925067          60.2321932536     SG+        A1 (1)
   66   198           2.2277088672          60.6190400880      DE        A2 (4)
   67    29           2.2277088672          60.6190400881      DE        A1 (1)
   68   102           2.2619477592          61.5507277052      PH        B1 (2)
   69   154           2.2619477592          61.5507277052      PH        B2 (3)
   70    30           2.3376190220          63.6098474510     SG+        A1 (1)
   71   103           2.3501891668          63.9518984794      PI        B1 (2)
   72   155           2.3501891668          63.9518984794      PI        B2 (3)
   73   199           2.3845589302          64.8871472900      DE        A2 (4)
   74    31           2.3845589302          64.8871472900      DE        A1 (1)
   75   104           2.4153617891          65.7253356916      PH        B1 (2)
   76   156           2.4153617891          65.7253356916      PH        B2 (3)
   77    32           2.5664857317          69.8376272356     SG+        A1 (1)
   78   105           2.6112360311          71.0553447891      PI        B1 (2)
   79   157           2.6112360311          71.0553447891      PI        B2 (3)
   80   158           2.9837227322          81.1912232252      PI        B2 (3)
   81   106           2.9837227322          81.1912232253      PI        B1 (2)
   82   200           3.1171134036          84.8209679271      DE        A2 (4)
   83    33           3.1171134036          84.8209679275      DE        A1 (1)
   84    34           3.1195100961          84.8861852459     SG+        A1 (1)
   85    35           3.3983345748          92.4733850375     SG+        A1 (1)
   86   159           3.7570702824         102.2350799144      PI        B2 (3)
   87   107           3.7570702824         102.2350799145      PI        B1 (2)
   88    36           3.7574081386         102.2442734492      PI        A1 (1)
   89   201           3.7574081386         102.2442734492      PI        A2 (4)
   90    37           3.9900715992         108.5753680780     SG+        A1 (1)
   91   160           4.0675299341         110.6831165273      PH        B2 (3)
   92   108           4.0675299341         110.6831165273      PH        B1 (2)
   93   202           4.1794667011         113.7290708117      DE        A2 (4)
   94    38           4.1794667011         113.7290708117      DE        A1 (1)
   95   161           4.2112307701         114.5934150714      PI        B2 (3)
   96   109           4.2112307701         114.5934150714      PI        B1 (2)
   97    39           4.3239154863         117.6597220881     SG+        A1 (1)
   98   203           4.4422125174         120.8787479540      DE        A2 (4)
   99    40           4.4422125174         120.8787479540      DE        A1 (1)
  100   162           4.4455725656         120.9701795152      PH        B2 (3)
  101   110           4.4455725656         120.9701795152      PH        B1 (2)
  102    41           4.6867443230         127.5327966703     SG+        A1 (1)
  103   111           4.8487955256         131.9424340755      PI        B1 (2)
  104   163           4.8487955256         131.9424340756      PI        B2 (3)
  105    42           5.0343493215         136.9916095576     SG+        A1 (1)
  106   204           5.1997047689         141.4911600321      DE        A2 (4)
  107    43           5.1997047689         141.4911600322      DE        A1 (1)
  108   164           5.3017813925         144.2688061754      PI        B2 (3)
  109   112           5.3017813925         144.2688061754      PI        B1 (2)
  110    44           5.9220458765         161.1470608571      PI        A1 (1)
  111   205           5.9220458765         161.1470608571      PI        A2 (4)
  112   165           5.9642056970         162.2942878979      PI        B2 (3)
  113   113           5.9642056970         162.2942878979      PI        B1 (2)
  114    45           6.1711065570         167.9243465237     SG+        A1 (1)
  115   114           6.2772460556         170.8125491154      PH        B1 (2)
  116   166           6.2772460556         170.8125491154      PH        B2 (3)
  117    46           6.2868188355         171.0730377000     SG+        A1 (1)
  118   206           6.3347784473         172.3780850825      DE        A2 (4)
  119    47           6.3347784473         172.3780850825      DE        A1 (1)
  120   167           6.3814455003         173.6479601555      PI        B2 (3)
  121   115           6.3814455003         173.6479601555      PI        B1 (2)
  122   168           6.4931469392         176.6875108354      PH        B2 (3)
  123   116           6.4931469392         176.6875108354      PH        B1 (2)
  124   207           6.7081973159         182.5393290858      DE        A2 (4)
  125    48           6.7081973159         182.5393290859      DE        A1 (1)
  126    49           7.1375498835         194.2226064167     SG+        A1 (1)
  127   169           7.8461938623         213.5057894171      PI        B2 (3)
  128   117           7.8461938623         213.5057894172      PI        B1 (2)
  129   208           7.9272178924         215.7105653652      DE        A2 (4)
  130    50           7.9272178924         215.7105653653      DE        A1 (1)
  131    51           8.3161927644         226.2951097398     SG+        A1 (1)
  132    52           8.7624906056         238.4394914068     SG+        A1 (1)
  133   118           8.8793737498         241.6200434564      PI        B1 (2)
  134   170           8.8793737498         241.6200434565      PI        B2 (3)
  135    53           9.9164889882         269.8413838391     SG+        A1 (1)
  136   171          10.1530850908         276.2794910992      PI        B2 (3)
  137   119          10.1530850908         276.2794910993      PI        B1 (2)
  138    54          10.6029273736         288.5203219255      PI        A1 (1)
  139   209          10.6029273736         288.5203219255      PI        A2 (4)
  140   120          11.0045948166         299.4502487158      PH        B1 (2)
  141   172          11.0045948166         299.4502487158      PH        B2 (3)
  142   210          11.2989357394         307.4596724168      DE        A2 (4)
  143    55          11.2989357394         307.4596724168      DE        A1 (1)
  144    56          11.3381371291         308.5263964622     SG+        A1 (1)
  145   121          11.4378884693         311.2407684233      PI        B1 (2)
  146   173          11.4378884693         311.2407684233      PI        B2 (3)
  147   174          11.8657141669         322.8824975104      PH        B2 (3)
  148   122          11.8657141669         322.8824975104      PH        B1 (2)
  149   211          12.4298444747         338.2332636025      DE        A2 (4)
  150    57          12.4298444747         338.2332636029      DE        A1 (1)
  151    58          12.5496347612         341.4929230173     SG+        A1 (1)
  152   175          13.0493621298         355.0911960398      PI        B2 (3)
  153   123          13.0493621298         355.0911960398      PI        B1 (2)
  154   212          13.0514150915         355.1470599682      DE        A2 (4)
  155    59          13.0514150915         355.1470599683      DE        A1 (1)
  156    60          13.9763601398         380.3160943012     SG+        A1 (1)
  157   176          14.9592426811         407.0616879690      PI        B2 (3)
  158   124          14.9592426811         407.0616879690      PI        B1 (2)
  159    61          15.7264472106         427.9383845671     SG+        A1 (1)
  160    62          18.6372444317         507.1452037515     SG+        A1 (1)
  161   125          19.6347058668         534.2875092888      PI        B1 (2)
  162   177          19.6347058668         534.2875092890      PI        B2 (3)
  163    63          21.3408716861         580.7146415400     SG+        A1 (1)
  164   213          26.7048368577         726.6755543698      DE        A2 (4)
  165    64          26.7048368577         726.6755543698      DE        A1 (1)
  166   126          27.5678282621         750.1587443446      PI        B1 (2)
  167   178          27.5678282621         750.1587443446      PI        B2 (3)
  168    65          28.8252927325         784.3760921625     SG+        A1 (1)
  169   179          33.9264823420         923.1865184227      PI        B2 (3)
  170   127          33.9264823421         923.1865184231      PI        B1 (2)
  171    66          35.7825158083         973.6917566750     SG+        A1 (1)
  172    67          37.4097638485        1017.9714269841     SG+        A1 (1)
  173    68          47.1878624148        1284.0470159967      DE        A1 (1)
  174   214          47.1878624148        1284.0470159967      DE        A2 (4)
  175   180          48.1020448568        1308.9231849230      PI        B2 (3)
  176   128          48.1020448568        1308.9231849230      PI        B1 (2)
  177    69          48.7770369798        1327.2906543744     SG+        A1 (1)
  178    70          64.7200785602        1761.1228713809     SG+        A1 (1)
  179   129          67.0657023217        1824.9505388666      PI        B1 (2)
  180   181          67.0657023217        1824.9505388668      PI        B2 (3)
  181    71          68.3409194819        1859.6509619296     SG+        A1 (1)
  182   182          98.7481211890        2687.0729857039      PH        B2 (3)
  183   130          98.7481211890        2687.0729857039      PH        B1 (2)
  184    72          98.7898095668        2688.2073841339      DE        A1 (1)
  185   215          98.7898095668        2688.2073841339      DE        A2 (4)
  186   131          98.8591110918        2690.0931745020      PI        B1 (2)
  187   183          98.8591110918        2690.0931745020      PI        B2 (3)
  188    73          98.8956858282        2691.0884236765     SG+        A1 (1)
  189   184         103.2962363559        2810.8334912579      PH        B2 (3)
  190   132         103.2962363559        2810.8334912579      PH        B1 (2)
  191   216         103.3634057520        2812.6612634465      DE        A2 (4)
  192    74         103.3634057520        2812.6612634476      DE        A1 (1)
  193   133         103.4232284883        2814.2891228596      PI        B1 (2)
  194   185         103.4232284883        2814.2891228597      PI        B2 (3)
  195    75         103.5205044921        2816.9361374953     SG+        A1 (1)
  196   217         115.3151331224        3137.8842992170      DE        A2 (4)
  197    76         115.3151331225        3137.8842992171      DE        A1 (1)
  198   134         115.7356596702        3149.3274083376      PI        B1 (2)
  199   186         115.7356596702        3149.3274083376      PI        B2 (3)
  200    77         116.2512052497        3163.3561167605     SG+        A1 (1)
  201   187         117.1585796354        3188.0470290575      PI        B2 (3)
  202   135         117.1585796354        3188.0470290580      PI        B1 (2)
  203    78         118.9142899091        3235.8223344552     SG+        A1 (1)
  204    79         123.2946873694        3355.0190091912     SG+        A1 (1)
  205   218         198.6266541406        5404.9060392786      DE        A2 (4)
  206    80         198.6266541406        5404.9060392786      DE        A1 (1)
  207   188         199.1302515250        5418.6096207861      PI        B2 (3)
  208   136         199.1302515250        5418.6096207862      PI        B1 (2)
  209    81         199.5012352901        5428.7046022515     SG+        A1 (1)
  210    82         217.1416572311        5908.7248870279     SG+        A1 (1)
  211   137         225.4608337664        6135.1011893023      PI        B1 (2)
  212   189         225.4608337664        6135.1011893025      PI        B2 (3)
  213    83         226.4924906263        6163.1739996538     SG+        A1 (1)
  214   190         395.5936824795       10764.6513645688      PI        B2 (3)
  215   138         395.5936824796       10764.6513645697      PI        B1 (2)
  216    84         396.8737451410       10799.4836404253     SG+        A1 (1)
  217    85         509.7304272169       13870.4700856435     SG+        A1 (1)
  218    86         895.9957358079       24381.2834918349     SG+        A1 (1)


  VSCF finished.

 @CHECKOUT-I, Total execution time (CPU/WALL):       44.65/       9.79 seconds.
--executable xvscf finished with status     0 in        9.81 seconds (walltime).
 --invoking executable--
/nfs/workspaces/public/cfour_mpi/bin/xvtran
 @GETMEM-I,  Allocated    3814 MB of main memory.
  Full RHF integral transformation
  Transformation of IIII integrals :
  1 pass through the AO integral file was required.
     4668243 AO integrals were read.
     8879096 MO integrals were written to HF2.
  Transformation of IIJJ integrals :
  1 pass through the AO integral file was required.
    10534449 AO integrals were read.
    14695235 MO integrals were written to HF2.
  Transformation of IJIJ integrals :
  1 pass through the AO integral file was required.
    19975160 AO integrals were read.
    27738086 MO integrals were written to HF2.
  Transformation of IJKL integrals :
  1 pass through the AO integral file was required.
    14758018 AO integrals were read.
    18725484 MO integrals were written to HF2.
  Summary of active molecular orbitals: 
------------------------------------------------------------------------
 
  Index      Eigenvalue    Symmetry    Index      Eigenvalue    Symmetry
------------------------------------------------------------------------
     1       -20.6557299        1       110         4.2112308        2
     2       -11.2981665        1       111         4.4455726        2
     3        -1.6178442        1       112         4.8487955        2
     4        -0.8165281        1       113         5.3017814        2
     5        -0.5355097        1       114         5.9642057        2
     6        -0.7064800        2       115         6.2772461        2
     7        -0.7064800        3       116         6.3814455        2
     8         0.0571348        1       117         6.4931469        2
     9         0.0776744        1       118         7.8461939        2
    10         0.1558533        1       119         8.8793737        2
    11         0.2267631        1       120        10.1530851        2
    12         0.2278301        1       121        11.0045948        2
    13         0.3027408        1       122        11.4378885        2
    14         0.3973153        1       123        11.8657142        2
    15         0.5075707        1       124        13.0493621        2
    16         0.5241896        1       125        14.9592427        2
    17         0.6616084        1       126        19.6347059        2
    18         0.7708358        1       127        27.5678283        2
    19         0.7893829        1       128        33.9264823        2
    20         0.8775907        1       129        48.1020449        2
    21         0.9025899        1       130        67.0657023        2
    22         0.9560780        1       131        98.7481212        2
    23         1.3183178        1       132        98.8591111        2
    24         1.5000933        1       133       103.2962364        2
    25         1.5471134        1       134       103.4232285        2
    26         1.6545603        1       135       115.7356597        2
    27         1.7549127        1       136       117.1585796        2
    28         1.7764345        1       137       199.1302515        2
    29         2.1138156        1       138       225.4608338        2
    30         2.2134925        1       139       395.5936825        2
    31         2.2277089        1       140         0.0652587        3
    32         2.3376190        1       141         0.1543043        3
    33         2.3845589        1       142         0.1911506        3
    34         2.5664857        1       143         0.3380233        3
    35         3.1171134        1       144         0.4020550        3
    36         3.1195101        1       145         0.6184017        3
    37         3.3983346        1       146         0.7504693        3
    38         3.7574081        1       147         0.8414121        3
    39         3.9900716        1       148         0.8723442        3
    40         4.1794667        1       149         1.1129809        3
    41         4.3239155        1       150         1.4565510        3
    42         4.4422125        1       151         1.5317123        3
    43         4.6867443        1       152         1.8702189        3
    44         5.0343493        1       153         1.9679239        3
    45         5.1997048        1       154         2.2619478        3
    46         5.9220459        1       155         2.3501892        3
    47         6.1711066        1       156         2.4153618        3
    48         6.2868188        1       157         2.6112360        3
    49         6.3347784        1       158         2.9837227        3
    50         6.7081973        1       159         3.7570703        3
    51         7.1375499        1       160         4.0675299        3
    52         7.9272179        1       161         4.2112308        3
    53         8.3161928        1       162         4.4455726        3
    54         8.7624906        1       163         4.8487955        3
    55         9.9164890        1       164         5.3017814        3
    56        10.6029274        1       165         5.9642057        3
    57        11.2989357        1       166         6.2772461        3
    58        11.3381371        1       167         6.3814455        3
    59        12.4298445        1       168         6.4931469        3
    60        12.5496348        1       169         7.8461939        3
    61        13.0514151        1       170         8.8793737        3
    62        13.9763601        1       171        10.1530851        3
    63        15.7264472        1       172        11.0045948        3
    64        18.6372444        1       173        11.4378885        3
    65        21.3408717        1       174        11.8657142        3
    66        26.7048369        1       175        13.0493621        3
    67        28.8252927        1       176        14.9592427        3
    68        35.7825158        1       177        19.6347059        3
    69        37.4097638        1       178        27.5678283        3
    70        47.1878624        1       179        33.9264823        3
    71        48.7770370        1       180        48.1020449        3
    72        64.7200786        1       181        67.0657023        3
    73        68.3409195        1       182        98.7481212        3
    74        98.7898096        1       183        98.8591111        3
    75        98.8956858        1       184       103.2962364        3
    76       103.3634058        1       185       103.4232285        3
    77       103.5205045        1       186       115.7356597        3
    78       115.3151331        1       187       117.1585796        3
    79       116.2512052        1       188       199.1302515        3
    80       118.9142899        1       189       225.4608338        3
    81       123.2946874        1       190       395.5936825        3
    82       198.6266541        1       191         0.2278301        4
    83       199.5012353        1       192         0.5241896        4
    84       217.1416572        1       193         0.7708358        4
    85       226.4924906        1       194         0.9025899        4
    86       396.8737451        1       195         1.5000933        4
    87       509.7304272        1       196         1.7764345        4
    88       895.9957358        1       197         2.1138156        4
    89         0.0652587        2       198         2.2277089        4
    90         0.1543043        2       199         2.3845589        4
    91         0.1911506        2       200         3.1171134        4
    92         0.3380233        2       201         3.7574081        4
    93         0.4020550        2       202         4.1794667        4
    94         0.6184017        2       203         4.4422125        4
    95         0.7504693        2       204         5.1997048        4
    96         0.8414121        2       205         5.9220459        4
    97         0.8723442        2       206         6.3347784        4
    98         1.1129809        2       207         6.7081973        4
    99         1.4565510        2       208         7.9272179        4
   100         1.5317123        2       209        10.6029274        4
   101         1.8702189        2       210        11.2989357        4
   102         1.9679239        2       211        12.4298445        4
   103         2.2619478        2       212        13.0514151        4
   104         2.3501892        2       213        26.7048369        4
   105         2.4153618        2       214        47.1878624        4
   106         2.6112360        2       215        98.7898096        4
   107         2.9837227        2       216       103.3634058        4
   108         3.7570703        2       217       115.3151331        4
   109         4.0675299        2       218       198.6266541        4
------------------------------------------------------------------------
  -20.6557298594602       -11.2981664819213       -1.61784420588407     
 -0.816528086792862      -0.535509687154101      -0.706480031737566     
 -0.706480031737551       5.713482745910686E-002  7.767440686741771E-002
  0.155853325007845       0.226763079361887       0.227830088026999     
  0.302740753859641       0.397315321402889       0.507570654075289     
  0.524189578611240       0.661608431842566       0.770835762750041     
  0.789382861592792       0.877590708473655       0.902589909694619     
  0.956078039075773        1.31831777583027        1.50009326655122     
   1.54711335010166        1.65456025662151        1.75491265112991     
   1.77643445613681        2.11381562781881        2.21349250672823     
   2.22770886716663        2.33761902200806        2.38455893021514     
   2.56648573168707        3.11711340363000        3.11951009612637     
   3.39833457484066        3.75740813858090        3.99007159915358     
   4.17946670111865        4.32391548634563        4.44221251735467     
   4.68674432297834        5.03434932152667        5.19970476885629     
   5.92204587647196        6.17110655695939        6.28681883553328     
   6.33477844726290        6.70819731590267        7.13754988350443     
   7.92721789239473        8.31619276437758        8.76249060555932     
   9.91648898817310        10.6029273736026        11.2989357394006     
   11.3381371291177        12.4298444746799        12.5496347612132     
   13.0514150915339        13.9763601398242        15.7264472105864     
   18.6372444317367        21.3408716860754        26.7048368577166     
   28.8252927325462        35.7825158082557        37.4097638484682     
   47.1878624148410        48.7770369798393        64.7200785602435     
   68.3409194818647        98.7898095667515        98.8956858281780     
   103.363405752005        103.520504492076        115.315133122451     
   116.251205249657        118.914289909096        123.294687369375     
[...]
 Convergence information after     7 iterations: 
 Largest element of residual vector : -0.72388982E-04.
 Largest element of DIIS residual   : -0.31602656E-04.
 Convergence information after     8 iterations: 
 Largest element of residual vector : -0.19172998E-04.
 Largest element of DIIS residual   :  0.13193558E-04.
 Convergence information after     9 iterations: 
 Largest element of residual vector :  0.64724515E-05.
 Largest element of DIIS residual   :  0.30925574E-05.
 Convergence information after    10 iterations: 
 Largest element of residual vector :  0.25083437E-05.
 Largest element of DIIS residual   :  0.14554372E-05.
 Convergence information after    11 iterations: 
 Largest element of residual vector :  0.73646369E-06.
 Largest element of DIIS residual   :  0.39014559E-06.
 Convergence information after    12 iterations: 
 Largest element of residual vector :  0.30362479E-06.
 Largest element of DIIS residual   :  0.19721451E-06.
 Convergence information after    13 iterations: 
 Largest element of residual vector :  0.12607048E-06.
 Largest element of DIIS residual   :  0.10581239E-06.
 Convergence information after    14 iterations: 
 Largest element of residual vector :  0.74694815E-07.
 Largest element of DIIS residual   :  0.54932109E-07.
 Perturbed amplitude equations converged in    14 iterations.
  Dominant contributions to perturbed wavefunction:
    7    7  142   37   0.2624687269 ABAB
    7    7   37  142   0.2624687269 ABAB
    7    7  142   63   0.2125122910 ABAB
    7    7   63  142   0.2125122910 ABAB
    7    7  142   27   0.2026330278 ABAB
    7    7   27  142   0.2026330278 ABAB
    7    6   37   91   0.1793481608 ABAB
    6    7   91   37   0.1793481608 ABAB
    7    7  142   55   0.1713453625 ABAB
    7    7   55  142   0.1713453625 ABAB
    5    5  142   43   0.1699278588 ABAB
    5    5   43  142   0.1699278588 ABAB
    7    7  142   48   0.1606838613 ABAB
    7    7   48  142   0.1606838613 ABAB
    7    7  142   43   0.1570643522 ABAB
    7    7   43  142   0.1570643522 ABAB
    7    7  143   37   0.1529483721 ABAB
    7    7   37  143   0.1529483721 ABAB
    5    5  142   54   0.1441196592 ABAB
    5    5   54  142   0.1441196592 ABAB
  norm of converged amps    2.83819823422621     
 Starting iterative solution of the perturbed Lambda equations.
 The DIIS procedure is used to accelerate convergence.
 Convergence criterion is 10**(-7).
 Maximum number of iterations is 100.
 Convergence information after     1 iterations: 
 Largest element of residual vector : -0.61789048E-01.
 Largest element of DIIS residual   : -0.61789048E-01.
 Convergence information after     2 iterations: 
 Largest element of residual vector :  0.59794775E-02.
 Largest element of DIIS residual   :  0.61374543E-02.
 Convergence information after     3 iterations: 
 Largest element of residual vector : -0.37399109E-02.
 Largest element of DIIS residual   : -0.33325886E-02.
 Convergence information after     4 iterations: 
 Largest element of residual vector : -0.23302516E-02.
 Largest element of DIIS residual   : -0.17574573E-02.
 Convergence information after     5 iterations: 
 Largest element of residual vector : -0.12392915E-02.
 Largest element of DIIS residual   : -0.55414199E-03.
 Convergence information after     6 iterations: 
 Largest element of residual vector : -0.38330753E-03.
 Largest element of DIIS residual   : -0.92271406E-04.
 Convergence information after     7 iterations: 
 Largest element of residual vector : -0.63836133E-04.
 Largest element of DIIS residual   : -0.27624836E-04.
 Convergence information after     8 iterations: 
 Largest element of residual vector : -0.15272269E-04.
 Largest element of DIIS residual   :  0.11370895E-04.
 Convergence information after     9 iterations: 
 Largest element of residual vector :  0.56728355E-05.
 Largest element of DIIS residual   :  0.26929843E-05.
 Convergence information after    10 iterations: 
 Largest element of residual vector :  0.21621454E-05.
 Largest element of DIIS residual   :  0.12783379E-05.
 Convergence information after    11 iterations: 
 Largest element of residual vector :  0.66131865E-06.
 Largest element of DIIS residual   :  0.36997946E-06.
 Convergence information after    12 iterations: 
 Largest element of residual vector :  0.27960612E-06.
 Largest element of DIIS residual   :  0.18260562E-06.
 Convergence information after    13 iterations: 
 Largest element of residual vector :  0.11744005E-06.
 Largest element of DIIS residual   :  0.96112216E-07.
 Perturbed Lambda equations converged in    13 iterations.
  Dominant contributions to perturbed wavefunction:
    7    7  142   37   0.2522227662 ABAB
    7    7   37  142   0.2522227662 ABAB
    7    7  142   63   0.2039584081 ABAB
    7    7   63  142   0.2039584081 ABAB
    7    7  142   27   0.1940164916 ABAB
    7    7   27  142   0.1940164916 ABAB
    7    6   37   91   0.1705829598 ABAB
    6    7   91   37   0.1705829598 ABAB
    7    7  142   55   0.1636928324 ABAB
    7    7   55  142   0.1636928324 ABAB
    5    5  142   43   0.1630419044 ABAB
    5    5   43  142   0.1630419044 ABAB
    7    7  142   48   0.1543255026 ABAB
    7    7   48  142   0.1543255026 ABAB
    7    7  142   43   0.1492810682 ABAB
    7    7   43  142   0.1492810682 ABAB
    7    7  143   37   0.1476651178 ABAB
    7    7   37  143   0.1476651178 ABAB
    5    5  142   54   0.1382674999 ABAB
    5    5   54  142   0.1382674999 ABAB
        The DBOC first-order density matrix is being calculated 
             (Symmetry block 3, perturbation   2)
 term   9.60958383444018     
 final tnorm  0.903112684972933     
  norm contr. I: |<0|L dT/dx|0>|^2   0.000000000000000E+000
  norm contr. II: <0|[nabla(1+L)e-T][nabla e^T]|0>   9.60958383444018     
  total norm contribution   9.60958383444018     
 oo  1.363708490976492E-002
 vv  -72.1831908745111     
 vo  2.409974964776869E-002
  Correlated perturbed 1-el contribution to DBOC  -72.1454540399536       cm**-1
  SUM_I |dc_I/dx|^2 contribution to DBOC   36.1772925847671       cm**-1
 
 
  The total diagonal Born-Oppenheimer correction (DBOC) is:      0.0041561247 a.u.
  The total diagonal Born-Oppenheimer correction (DBOC) is:        912.163928 cm-1
 
 Total CC energy including DBOC  -113.228758887303     
 First-order density matrix is being calculated  (Symmetry block 3, perturbation   2)
 Calculation of the contributions of <pq||rs> to dI(i,j)/dx required   1.9 seconds.
 Calculation of the contributions of <pq||rs> to dI(a,b)/dx required  16.8 seconds.
 Calculation of the contributions of <pq||rs> to dI(i,a)/dx required   9.7 seconds.
 First-order Z-vector equations are solved for 1 perturbation.
 Convergence reached after  17 iterations.
        U*G(pq,rs) contribution is being calculated
             (Symmetry block 3, perturbation   2)

 CCSD contribution to force constants 

        0.0000000000        0.0000000000        0.0000000000
        0.0000000000        0.0000000000        0.0000000000
        0.0000000000        0.0000000000        0.0000000000
        0.0000000000        0.0000000000        0.0000000000
        0.0000000000        0.0000000000        0.0000000000
        0.0000000000        0.0000000000        0.0000000000
        0.0000000000        0.0000000000        0.0000000000
        0.0000000000        0.0000000000        0.0000000000
        0.0000000000        0.0000000000        0.0000000000
        0.0000000000        0.0000000000        0.0000000000
        0.0000000000        0.0000000000        0.0000000000
        0.0000000000      -11.4672455660       11.4672455660

 CCSD contribution to dipole derivatives 

        0.0000000000        0.0000000000        0.0000000000
        0.0000000000        0.0000000000        0.0000000000
        0.0000000000        0.0000000000        0.0000000000
        0.0000000000        0.0000000000       -0.0386314375
        0.0000000000        0.0000000000        0.0000000000
        0.0000000000        0.0000000000        0.0000000000
 @CHECKOUT-I, Total execution time (CPU/WALL):     1030.55/     237.42 seconds.
--executable xsdcc finished with status     0 in      237.44 seconds (walltime).
 --invoking executable--
/nfs/workspaces/public/cfour_mpi/bin/xanti
 @GETMEM-I,  Allocated    3814 MB of main memory.
 CCSD MO derivative gammas will be sorted to Mulliken order.
 @CHECKOUT-I, Total execution time (CPU/WALL):        9.45/      11.22 seconds.
--executable xanti finished with status     0 in       11.25 seconds (walltime).
 --invoking executable--
/nfs/workspaces/public/cfour_mpi/bin/xbcktrn
 @GETMEM-I,  Allocated    3814 MB of main memory.
 CCSD MO derivative gammas will be transformed to the AO basis.
 @CHECKOUT-I, Total execution time (CPU/WALL):       20.88/       5.98 seconds.
--executable xbcktrn finished with status     0 in        6.00 seconds (walltime).
 --invoking executable--
/nfs/workspaces/public/cfour_mpi/bin/xvdint
 @GETMEM-I,  Allocated    3814 MB of main memory.
 One- and two-electron integral derivatives are calculated
 for RHF-CC/MBPT hessians and dipole derivatives.
 Spherical gaussians are used.
  magnet F F
                    8722  records have been written to the Sort file.
  Total length of Sort file :             178609116  words.
 Evaluation of 2el integral derivatives

                      Two-electron integral gradient
                      ------------------------------

                         C #1 z     0.0000000000
                         O #2 z     0.0000000000


 C #1       0.0000000000           -1.4527873698            0.0000000000
 O #2       0.0000000000            1.4527873698            0.0000000000


 Evaluation of 2e integral derivatives required  328.81 seconds.
  contribution to Hessian
        0.0000000000        0.0000000000        0.0000000000
        0.0000000000       -1.4527873698        1.4527873698
 @CHECKOUT-I, Total execution time (CPU/WALL):      328.81/      67.00 seconds.
--executable xvdint finished with status     0 in       67.02 seconds (walltime).
 --invoking executable--
/nfs/workspaces/public/cfour_mpi/bin/xanti
 @GETMEM-I,  Allocated    3814 MB of main memory.
 CCSD MO gammas will be sorted to Mulliken order.
 @CHECKOUT-I, Total execution time (CPU/WALL):       10.66/       9.26 seconds.
--executable xanti finished with status     0 in        9.27 seconds (walltime).
 --invoking executable--
/nfs/workspaces/public/cfour_mpi/bin/xbcktrn
 @GETMEM-I,  Allocated    3814 MB of main memory.
 CCSD MO gammas will be transformed to the AO basis.
 @CHECKOUT-I, Total execution time (CPU/WALL):       26.14/       6.53 seconds.
--executable xbcktrn finished with status     0 in        6.54 seconds (walltime).
 --invoking executable--
/nfs/workspaces/public/cfour_mpi/bin/xvdint
 @GETMEM-I,  Allocated    3814 MB of main memory.
 One- and two-electron integral derivatives are calculated
 for RHF-CC/MBPT hessians and dipole derivatives.
 Spherical gaussians are used.
  magnet F F

                     Kinetic energy integral gradient
                     --------------------------------

                         C #1 z    -1.9013699768
                         O #2 z     1.9013699768


 C #1       0.0000000000            0.0000000000           -1.9013699768
 O #2       0.0000000000            0.0000000000            1.9013699768



                   Nuclear attraction integral gradient
                   ------------------------------------

                         C #1 z    27.1768974229
                         O #2 z   -27.1768974229


 C #1       0.0000000000            0.0000000000           27.1768974229
 O #2       0.0000000000            0.0000000000          -27.1768974229



                      Reorthonormalization gradient
                      -----------------------------

                         C #1 z     0.0000000000
                         O #2 z     0.0000000000


 C #1       0.0000000000            0.0000000000            0.0000000000
 O #2       0.0000000000            0.0000000000            0.0000000000



                     Kinetic energy integral Hessian
                     -------------------------------


           Symmetry 1

           C #1 z      O #2 z

 C #1 z    0.729758
 O #2 z   -0.729758    0.729758


           Symmetry 2

           C #1 x      O #2 x

 C #1 x   -3.246474
 O #2 x    3.246474   -3.246474


           Symmetry 3

           C #1 y      O #2 y

 C #1 y   -3.246474
 O #2 y    3.246474   -3.246474




           C #1 x      C #1 y      C #1 z      O #2 x      O #2 y      O #2 z

 C #1 x   -3.246474
 C #1 y    0.000000   -3.246474
 C #1 z    0.000000    0.000000    0.729758

 O #2 x    3.246474    0.000000    0.000000   -3.246474
 O #2 y    0.000000    3.246474    0.000000    0.000000   -3.246474
 O #2 z    0.000000    0.000000   -0.729758    0.000000    0.000000    0.729758




                   Nuclear attraction integral Hessian
                   -----------------------------------


           Symmetry 1

           C #1 z      O #2 z

 C #1 z  -12.868241
 O #2 z   12.868241  -12.868241


           Symmetry 2

           C #1 x      O #2 x

 C #1 x   29.818420
 O #2 x  -29.818420   29.818420


           Symmetry 3

           C #1 y      O #2 y

 C #1 y   29.818420
 O #2 y  -29.818420   29.818420




           C #1 x      C #1 y      C #1 z      O #2 x      O #2 y      O #2 z

 C #1 x   29.818420
 C #1 y    0.000000   29.818420
 C #1 z    0.000000    0.000000  -12.868241

 O #2 x  -29.818420    0.000000    0.000000   29.818420
 O #2 y    0.000000  -29.818420    0.000000    0.000000   29.818420
 O #2 z    0.000000    0.000000   12.868241    0.000000    0.000000  -12.868241




                Highest order reorthonormalization Hessian
                ------------------------------------------


           Symmetry 1

           C #1 z      O #2 z

 C #1 z    0.000000
 O #2 z    0.000000    0.000000


           Symmetry 2

           C #1 x      O #2 x

 C #1 x    0.000000
 O #2 x    0.000000    0.000000


           Symmetry 3

           C #1 y      O #2 y

 C #1 y    0.000000
 O #2 y    0.000000    0.000000




           C #1 x      C #1 y      C #1 z      O #2 x      O #2 y      O #2 z




                Electronic contributions to dipole moment
                -----------------------------------------

                               au             Debye

                    z     -0.21616846     -0.54944551

  Conversion factor used: 1 a.u. =   2.54174691 Debye 



   Electronic contributions to static part of dipole moment derivatives
   --------------------------------------------------------------------


                     Total dipole moment derivatives
                     -------------------------------


           Symmetry 1
                              Ez

               C #1 z    -5.81323536
               O #2 z    -8.18676464

           Symmetry 2
                              Ex

               C #1 x    -5.88002289
               O #2 x    -8.11997711

           Symmetry 3
                              Ey

               C #1 y    -5.88002289
               O #2 y    -8.11997711



                       Ex          Ey          Ez

      C #1    x   -5.880023    0.000000    0.000000
      C #1    y    0.000000   -5.880023    0.000000
      C #1    z    0.000000    0.000000   -5.813235

      O #2    x   -8.119977    0.000000    0.000000
      O #2    y    0.000000   -8.119977    0.000000
      O #2    z    0.000000    0.000000   -8.186765

 Evaluation of 1e integral derivatives required    1.68 seconds.
                    8815  records have been written to the Sort file.
  Total length of Sort file :             180513570  words.
 Evaluation of 2el integral derivatives

                      Two-electron integral gradient
                      ------------------------------

                         C #1 z   -11.8516230109
                         O #2 z    11.8516230109


 C #1       0.0000000000            0.0000000000          -11.8516230109
 O #2       0.0000000000            0.0000000000           11.8516230109


 Evaluation of 2e integral derivatives required  714.92 seconds.

                            Molecular gradient
                            ------------------

                         C #1 z    -0.2047927327
                         O #2 z     0.2047927327


 C #1       0.0000000000            0.0000000000           -0.2047927327
 O #2       0.0000000000            0.0000000000            0.2047927327


  Molecular gradient norm 0.290E+00

                            Molecular hessian
                            -----------------


           Symmetry 1

           C #1 z      O #2 z

 C #1 z   94.232444
 O #2 z  -94.232444   94.232444


           Symmetry 2

           C #1 x      O #2 x

 C #1 x   12.287903
 O #2 x  -12.287903   12.287903


           Symmetry 3

           C #1 y      O #2 y

 C #1 y   12.287903
 O #2 y  -12.287903   12.287903




           C #1 x      C #1 y      C #1 z      O #2 x      O #2 y      O #2 z

 C #1 x   12.287903
 C #1 y    0.000000   12.287903
 C #1 z    0.000000    0.000000   94.232444

 O #2 x  -12.287903    0.000000    0.000000   12.287903
 O #2 y    0.000000  -12.287903    0.000000    0.000000   12.287903
 O #2 z    0.000000    0.000000  -94.232444    0.000000    0.000000   94.232444




                           Total dipole moment
                           -------------------

                               au             Debye

                    z     -0.21821390     -0.55464451

  Conversion factor used: 1 a.u. =   2.54174691 Debye 



                     Total dipole moment derivatives
                     -------------------------------


           Symmetry 1
                              Ez

               C #1 z     0.67196545
               O #2 z    -0.67196545

           Symmetry 2
                              Ex

               C #1 x    -0.11966342
               O #2 x     0.11966342

           Symmetry 3
                              Ey

               C #1 y    -0.11966342
               O #2 y     0.11966342



                       Ex          Ey          Ez

      C #1    x   -0.119663    0.000000    0.000000
      C #1    y    0.000000   -0.119663    0.000000
      C #1    z    0.000000    0.000000    0.671965

      O #2    x    0.119663    0.000000    0.000000
      O #2    y    0.000000    0.119663    0.000000
      O #2    z    0.000000    0.000000   -0.671965

 @CHECKOUT-I, Total execution time (CPU/WALL):      716.59/     120.94 seconds.
--executable xvdint finished with status     0 in      120.96 seconds (walltime).
 --invoking executable--
/nfs/workspaces/public/cfour_mpi/bin/xjoda
  @GTFLGS-I, Hessian will be transformed to curvilinear coordinates.
  @GTFLGS-I, Hessian will be transformed to curvilinear coordinates.
  igrd and ihes are                      0                     1
  gradient from JOBARC 
   0.000000000000000   0.000000000000000  -0.204792732665188
   0.000000000000000   0.000000000000000   0.204792732665188
 
  @PROJFCM-I, Projecting force constant matrix onto totally symmetric subspace.
  Largest difference between matrix elements of symmetrized
  and unsymmetrized FCM :    -0.2038902380E-10.
  read isotopes from ZMAT file 
 
  Summary of diagonal Born-Oppenheimer correction at the correlated level
  The total diagonal Born-Oppenheimer correction (DBOC) is:      0.0041561247 a.u.
  The total diagonal Born-Oppenheimer correction (DBOC) is:        912.163928 cm-1
  The total diagonal Born-Oppenheimer correction (DBOC) is:            10.912 kJ/mole
  hellooooooo 
  readis is  F
 
 @CHECKOUT-I, Total execution time (CPU/WALL):        0.01/       0.04 seconds.
--executable xjoda finished with status     0 in        0.06 seconds (walltime).
  The final electronic energy is      -113.228758887303101 a.u. 
  This computation required                         2567.53 seconds (walltime).
