 --invoking executable--
/nfs/workspaces/public/cfour_mpi/bin/xjoda


   *************************************************************************
         <<<     CCCCCC     CCCCCC   |||     CCCCCC     CCCCCC   >>>
       <<<      CCC        CCC       |||    CCC        CCC         >>>
      <<<      CCC        CCC        |||   CCC        CCC            >>>
    <<<        CCC        CCC        |||   CCC        CCC              >>>
      <<<      CCC        CCC        |||   CCC        CCC            >>>
       <<<      CCC        CCC       |||    CCC        CCC         >>>
         <<<     CCCCCC     CCCCCC   |||     CCCCCC     CCCCCC   >>>
   *************************************************************************

     ****************************************************************
     * CFOUR Coupled-Cluster techniques for Computational Chemistry *
     ****************************************************************
 

   Department of Chemistry                Institut fuer Physikalische Chemie
   University of Florida                  Universitaet Mainz
   Gainesville, FL 32611, USA             D-55099 Mainz, Germany

   Department of Chemistry                Fakultaet fuer Chemie und Biowiss.
   Johns Hopkins University               Karlsruher Institut fuer Technologie
   Baltimore, MD 21218, USA               D-76131 Karlsruhe, Germany

   Department of Chemistry                Department of Physical Chemistry
   Southern Methodist University          Eotvos Lorand University
   Dallas, TX 75275, USA                  H-1053 Budapest, Hungary

 
                       Version 2.1
 
                     vincent.theory.phys.ucl.ac.uk                     
                     Tue 25 Feb 18:23:43 GMT 2025                      
                     integer*8 version is running
 
********************************************************************************
*                          Input from ZMAT file                                *
********************************************************************************
Carbon Monoxide DBOC calculation                                                
C                                                                               
O 1 r                                                                           
                                                                                
r=1.5517241379310345                                                            
                                                                                
                                                                                
*CFOUR(CALC=CCSD,BASIS=AUG-PCVQZ,SCF_CONV=10                                    
CC_CONV=14,DBOC=ON,MEMORY=500000000                                             
ZFIELD=200)                                                                     
                                                                                
%isotopes                                                                       
12                                                                              
16                                                                              
********************************************************************************
  @GTFLGS-I, Hessian will be transformed to curvilinear coordinates.
    -------------------------------------------------------------------
                    CFOUR Control Parameters 
    -------------------------------------------------------------------
        External           Internal           Value            Units
          Name               Name
    -------------------------------------------------------------------
       ABCDTYPE             IABCDT         STANDARD    [  0]    ***   
       ANHARMONIC           IANHAR         OFF         [  0]    ***   
       ANH_ALGORIT          IANALG         STANDARD    [  0]    ***   
       ANH_DERIVAT          IANDER         SECOND      [  1]    ***   
       ANH_MODE             ANHMOD         VIBRATION   [  0]    ***   
       ANH_STEPSIZ          ICUBST             50000          x 10-6  
       ANH_SYMMETR          IANHSM         ABELIAN     [  0]    ***   
       AO_LADDERS           IAOLAD         SINGLEPASS  [  1]    ***   
       AV_SCF               IAVSCF         OFF         [  0]    ***   
       BASIS                IBASIS         AUG-PCVQZ   [ 52]    ***   
       BOTHVECTORS          BOTHVC         OFF         [  0]    ***   
       BOX_POTENT           IPIAB          OFF         [  0]    ***   
       BREIT                IBREIT         OFF         [  0]    ***   
       BRUCK_CONV           IBRTOL          10D-  4             ***   
       BRUECKNER            IBRKNR         OFF         [  0]    ***   
       BUFFERSIZE           IBUFFS              4096            ***   
       CACHE_RECS           ICHREC             10               ***   
       CALCLEVEL            ICLLVL         CCSD        [ 10]    ***   
       CCORBOPT             ICCORB         OFF         [  0]  x 0.01  
       CC_CONV              ICCCNV          10D- 14             ***   
       CC_EXPORDER          ICCEOR              5               ***   
       CC_EXTRAPOL          ICCEXT         DIIS        [  1]    ***   
       CC_GUESS             ICCGES         MP2         [  0]    ***   
       CC_MAXCYC            ICCCYC            100              cycles 
       CC_PROGRAM           ICCPRO         VCC         [  0]    ***   
       CHARGE               ICHRGE              0               ***   
       CHOLESKY             ICHOLE         OFF         [  0]    ***   
       CIS_CONV             ICISTL              5               ***   
       COMM_SIZE            IPSIZE            ***               ***   
       CONSTANT             ICONST         OLD         [  1]    ***   
       CONTINUUM            ICONTU         NONE        [  0]    ***   
       CONTRACTION          ICNTYP         GENERAL     [  1]    ***   
       COORDINATES          ICOORD         INTERNAL    [  0]    ***   
       CPHF_CONVER          ICPHFT          10D- 16             ***   
       CPHF_MAXCYC          ICPHFC             64              cycles 
       CUBIC                ICUBIC         OFF         [  0]    ***   
       CURVILINEAR          ICURVY         ON          [  1]    ***   
       DBOC                 IDBOC          ON          [  1]    ***   
       DCT                  IDCT           OFF         [  0]    ***   
       DERIV_LEV            IDRLVL         SECOND      [  2]    ***   
       DEVMEM_SIZE          IDVMEM          50000000           MByte  
       DIAG_MRCC            IEOMST          10D-  0             ***   
       DIFF_TYPE            IDIFTY         RELAXED     [  0]    ***   
       DIRECT               IDIRCT         OFF         [  0]    ***   
       DROPMO               IDRPMO      NONE         
       ECP                  IECP           OFF         [  0]    ***   
       EIGENVECTOR          IVEC                1               ***   
       EL_ANHARM            IELANH         OFF         [  0]    ***   
       EOMFOLLOW            IEOMSR         ENERGY      [  0]    ***   
       EOMIP                IEOMIP         OFF         [  0]    ***   
       EOMLEVEL             HBARFM         SAME        [  0]    ***   
       EOM_MRCC             IMRCCE         NEW         [  1]    ***   
       EOM_NONIT            EOMNON         OFF         [  0]    ***   
       EOM_NSING            IEOMSI          10D-  0             ***   
       EOM_NSTATES          IMRCCD         DAVIDSON    [  0]    ***   
       EOM_NTRIP            IEOMTR          10D-  0             ***   
       EOM_ORDER            IEXORD         ENERGY      [  0]    ***   
       EOM_PROPSTA          IEOMST              0               ***   
       ESTATE_CONV          IEXTOL          10D-  5             ***   
       ESTATE_DIAG          IEXDIG         ITERATIVE   [  0]    ***   
       ESTATE_LOCK          IESLOC         ON          [  1]    ***   
       ESTATE_MAXC          IEXMXC             40               ***   
       ESTATE_PROP          IEXPRP         OFF         [  0]    ***   
       EVAL_HESS            IRECAL              0            # of cyc.
       EXCITATION           IEXCIT              0               ***   
       EXCITE               IEXCIT         NONE        [  0]    ***   
       EXTERN_POT           IEXPOT         OFF         [  0]    ***   
       FCGRADNEW            IFCGNW         OFF         [  0]    ***   
       FC_FIELD             IFINFC              0             x 10-6  
       FD_CALTYPE           IFDCAL         GRADONLY    [  0]    ***   
       FD_PROJECT           IFDPRJ         OFF         [  1]    ***   
       FD_STEPSIZE          IDISFD              0            10-4 bohr
       FD_USEGROUP          IFDGRP         FULL        [  0]    ***   
       FILE_RECSIZ          IFLREC              4096           words  
       FINITE_PERT          IFIPER              0             x 10-6  
       FIXGEOM              IFIXGM         OFF         [  0]    ***   
       FOCK                 IFOCK          AO          [  1]    ***   
       FREQ_ALGORI          IVIALG         STANDARD    [  0]    ***   
       FROZEN_CORE          IFROCO         OFF         [  0]    ***   
       GAMMA_ABCD           IGABCD         STORE       [  0]    ***   
       GAMMA_ABCI           IGABCI         STORE       [  0]    ***   
       GENBAS_1             IGNBS1              0               ***   
       GENBAS_2             IGNBS2              0               ***   
       GENBAS_3             IGNBS3              0               ***   
       GENBAS_4             IGNBS4              0               ***   
       GEO_CONV             ICONTL              5              H/bohr 
       GEO_MAXCYC           IOPTCY             50               ***   
       GEO_MAXSTEP          IMXSTP            300            millibohr
       GEO_METHOD           INR            SINGLE_POINT[  5]    ***   
       GIAO                 IGIAO          OFF         [  1]    ***   
       GIMIC                IGIMIC         OFF         [  0]    ***   
       GRID                 IGRID          OFF         [  0]    ***   
       GRID_ALGO            IGALGO         SERIAL      [  0]    ***   
       GUESS                IGUESS         MOREAD      [  0]    ***   
       HBAR                 IHBAR          OFF         [  0]    ***   
       HESS_TYPE            IHESTP         SCF         [  0]    ***   
       HF2_FILE             IHF2Fl         USE         [  1]    ***   
       HFSTABILITY          ISTABL         OFF         [  0]    ***   
       INCORE               INCORE         OFF         [  0]    ***   
       INPUT_MRCC           IMRCC          ON          [  1]    ***   
       INTEGRALS            INTTYP         VMOL        [  1]    ***   
       JODA_PRINT           IJPRNT              0               ***   
       KEYWORD_OUT          IDMPKW         NO          [  0]    ***   
       LINDEP_TOL           ILINDP              8               ***   
       LINEQ_CONV           IZTACN          10D-  7           cycles  
       LINEQ_EXPOR          ILMAXD              5               ***   
       LINEQ_MAXCY          ILMAXC            100               ***   
       LINEQ_TYPE           ILTYPE         DIIS        [  1]    ***   
       LOCK_ORBOCC          ILOCOC         OFF         [  0]    ***   
       MEMORY_SIZE          IMEMSZ         500000000           words  
       MEM_UNIT             IMEMU          INTEGERWORDS[  0]    ***   
       MRCC                 IMRCCC         OFF         [  0]    ***   
       MULTIPLICTY          IMULTP              1               ***   
       NACOUPLING           IVCOUP         OFF         [  0]    ***   
       NEGEVAL              IDIE           ABORT       [  0]    ***   
       NEWNORM              INEWNO         OFF         [  0]    ***   
       NON-HF               INONHF         OFF         [  0]    ***   
       NTOP_TAMP            ITOPT2             15               ***   
       NUC_MODEL            INUCMO         POINT       [  0]    ***   
       OCCUPATION           IOCCU   ESTIMATED BY SCF 
       OPEN-SHELL           IOPEN          SPIN-ORBITAL[  0]    ***   
       OPTVIB               IOPTVB         OFF         [  0]    ***   
       ORBITALS             IORBTP         STANDARD    [  0]    ***   
       PARALLEL             IPARAL         ON          [  1]    ***   
       PARA_INT             IPINTS         ON          [  1]    ***   
       PARA_PRINT           IPPRIN              0               ***   
       PERT_ORB             IPTORB         STANDARD    [  0]    ***   
       POINTS               IGRDFD              0               ***   
       PRINT                IPRNT               0               ***   
       PROPS                IPROPS         OFF         [  0]    ***   
       PROP_INTEGR          IINTYP         INTERNAL    [  0]    ***   
       PSI                  IPSI           OFF         [  0]    ***   
       QC_ALG               IQCALG         FLM         [  0]    ***   
       QC_LINALG            IQCLIN         TRIDIAG     [  2]    ***   
       QC_MAXCYC            IQCMAX          10D-100           cycles  
       QC_MAXSCFCY          IQCMSC          10D- 15           cycles  
       QC_RTRUST            IQCRTR          10D-  0           x 10-3  
       QC_SKIPSCF           IQCSKI         OFF         [  0]    ***   
       QC_START             IQCSTA          10D-  1             ***   
       QRHFGUESS            IQGUES         OFF         [  0]    ***   
       QUARTIC              IQUART         OFF         [  0]    ***   
       RAMAN_INT            IRAMIN         OFF         [  0]    ***   
       RAMAN_ORB            IRAMRE         UNRELAXED   [  0]    ***   
       RDO                  IRDOFM         ON          [  1]    ***   
       REDUCE_REPR          REDREP         Ir          [  0]    ***   
       REFERENCE            IREFNC         RHF         [  0]    ***   
       RELATIVIST           IRELAT         OFF         [  0]    ***   
       RELAX_DENS           IRDENS         ON          [  1]    ***   
       RESET_FLAGS          IRESET         OFF         [  0]    ***   
       RESTART_CC           ICCRES         OFF         [  0]    ***   
       ROT_EVEC             ROTVEC              0               ***   
       SAVE_INTS            ISVINT         OFF         [  0]    ***   
       SCALE_ON             ISTCRT              0               ***   
       SCF_CONV             ISCFCV          10D- 10             ***   
       SCF_DAMPING          IDAMP               0             x 10-3  
       SCF_EXPORDE          IRPPOR              6               ***   
       SCF_EXPSTAR          IRPPLS              8               ***   
       SCF_EXTRAPO          IRPP           ON          [  1]    ***   
       SCF_MAXCYC           ISCFCY            150              cycles 
       SCF_NOSTOP           ISCFST         OFF         [  0]    ***   
       SCF_PRINT            ISCFPR              0               ***   
       SCF_PROG             ISCFPR         SCF         [  0]    ***   
       SD_FIELD             IFINSD              0             x 10-6  
       SOPERT               IPERSO         OFF         [  0]    ***   
       SPHERICAL            IDFGHI         ON          [  1]    ***   
       SPINORBIT            ISOCAL         OFF         [  0]    ***   
       SPINROTATIO          ISRCON         OFF         [  0]    ***   
       SPIN_FLIP            ISPFLP         OFF         [  0]    ***   
       SPIN_ORBIT           ISPORB         OFF         [  0]    ***   
       SPIN_SCAL            ISCSMP         OFF         [  0]    ***   
       STEEPSCALE           ISTPSC              1000          x 10-3  
       SUBGROUP             ISUBGP         DEFAULT     [  0]    ***   
       SUBGRPAXIS           ISBXYZ         X           [  0]    ***   
       SYMMETRY             ISYM           ON          [  0]    ***   
       SYM_CHECK            ISYMCK         OVERRIDE    [  1]    ***   
       T3_EXTRAPOL          IT3EXT         OFF         [  0]    ***   
       T4_EXTRAPOL          IT4EXP         OFF         [  0]    ***   
       TAMP_SUM             IEVERY              5               ***   
       TESTSUITE            ITESTS         OFF         [  0]    ***   
       THERMOCH             ITHERM         OFF         [  0]    ***   
       TOL_CHOLESK          ITOLCH          10D-  4             ***   
       TRANGRAD             IRESRM         OFF         [  0]    ***   
       TRANS_INV            ITRAIN         IGNORE      [  1]    ***   
       TREAT_PERT           ITREAT         SIMULTANEOUS[  0]    ***   
       TRIP_ALGORI          ITRALG         NORMAL      [  0]    ***   
       UIJ_THRESHO          IUIJTH              1               ***   
       UNITS                IUNITS         ANGSTROM    [  0]    ***   
       UNOS                 IUNOS          OFF         [  0]    ***   
       UPDATE_HESS          IHUPDT         ON          [  1]    ***   
       VIBPHASE             ISETPH         STANDARD    [  0]    ***   
       VIBRATION            IVIB           ANALYTIC    [  1]    ***   
       VIB_ALGORIT          IGEALG         STANDARD    [  0]    ***   
       VNATORB              IVNORB         OFF         [  0]    ***   
       VTRAN                IVTRAN         FULL/PARTIAL[  0]    ***   
       XFIELD               IXEFLD              0             x 10-6  
       XFORM_TOL            IXFTOL          10D- 11             ***   
       YFIELD               IYEFLD              0             x 10-6  
       ZFIELD               IZEFLD            200             x 10-6  
       ZSCALE_EXP           IZEXPS         OFF         [  0]    ***   
    -------------------------------------------------------------------
   2 entries found in Z-matrix 
   Job Title : Carbon Monoxide DBOC calculation                                                
   There are  1 unique internal coordinates.
   Of these,  0 will be optimized.
   User supplied Z-matrix: 
--------------------------------------------------------------------------------
       SYMBOL    BOND      LENGTH    ANGLE     ANGLE     DIHED     ANGLE
                  TO      (ANGST)    WRT      (DEG)      WRT      (DEG)
--------------------------------------------------------------------------------
        C    
        O          1         r    
                  *Initial values for internal coordinates* 
                      Name             Value
                        r               1.5517241379
--------------------------------------------------------------------------------
  read isotopes from ZMAT file 
   Rotational constants (in cm-1): 
          1.0211357905             1.0211357905
   Rotational constants (in MHz): 
      30612.8851485410         30612.8851485410
********************************************************************************
   The full molecular point group is CXv .
   The largest Abelian subgroup of the full molecular point group is C2v .
   The computational point group is C2v .
********************************************************************************
--------------------------------------------------------------------------------
   Analysis of internal coordinates specified by Z-matrix 
--------------------------------------------------------------------------------
   *The nuclear repulsion energy is   16.369211626666665 a.u.
   *There is   1 degree of freedom within the tot. symm. molecular subspace.
   *Z-matrix requests optimization of   0 coordinates.
   *The optimization is constrained.
   *The following   1 parameters can have non-zero 
    derivatives within the totally symmetric subspace:
             r    [ 1]
   *The following   0 parameters are to be optimized:

   *The following coordinates must be varied in an  unconstrained optimization.
             r    [ 1]
--------------------------------------------------------------------------------


 ----------------------------------------------------------------
         Coordinates used in calculation (QCOMP) 
 ----------------------------------------------------------------
 Z-matrix   Atomic            Coordinates (in bohr)
  Symbol    Number           X              Y              Z
 ----------------------------------------------------------------
     C         6        -0.00000000     0.00000000     1.67539129
     O         8         0.00000000     0.00000000    -1.25694297
 ----------------------------------------------------------------
 
   Interatomic distance matrix (Angstroms) 
 
                 C             O    
                [ 1]        [ 2]
  C    [ 1]     0.00000
  O    [ 2]     1.55172     0.00000
 rotcon2
   Rotational constants (in cm-1): 
          1.0211357905             0.0000000000
   Rotational constants (in MHz): 
      30612.8851485410             0.0000000000
  ECPDATA file not present.   Using default ECPDATA. 
  @GTFLGS-I, Hessian will be transformed to curvilinear coordinates.
  There are  218 basis functions.
 @CHECKOUT-I, Total execution time (CPU/WALL):        0.11/       0.15 seconds.
--executable xjoda finished with status     0 in        0.17 seconds (walltime).
 --invoking executable--
/nfs/workspaces/public/cfour_mpi/bin/xvmol
 SERIAL VERSION OF MOLECULE STARTED
********************************************************************************
                    INPUT FROM MOL FILE
********************************************************************************
INTGRL        1    0    1    0    0    0    0    0    0                         
         *** CFOUR Program System (Release V0.1) ***                            
Carbon Monoxide DBOC calculation                                                
    2    2 X  Y       0.10E-08              0    0                              
   9999.00      3.00                                                            
          6.00000000    1    5    1    1    1    1    1                         
C #1  -0.000000000000000   0.000000000000000   1.675391288545551                
   16    9                                                                      
   33980.0000000000       9.100000000000000E-005 -1.900000000000000E-005        
  0.000000000000000E+000  0.000000000000000E+000  0.000000000000000E+000        
  0.000000000000000E+000  0.000000000000000E+000  0.000000000000000E+000        
  0.000000000000000E+000                                                        
   5089.00000000000       7.040000000000000E-004 -1.510000000000000E-004        
  0.000000000000000E+000  0.000000000000000E+000  0.000000000000000E+000        
  0.000000000000000E+000  0.000000000000000E+000  0.000000000000000E+000        
  0.000000000000000E+000                                                        
   1157.00000000000       3.693000000000000E-003 -7.850000000000000E-004        
  0.000000000000000E+000  0.000000000000000E+000  0.000000000000000E+000        
  0.000000000000000E+000  0.000000000000000E+000  0.000000000000000E+000        
  0.000000000000000E+000                                                        
   326.600000000000       1.536000000000000E-002 -3.324000000000000E-003        
  0.000000000000000E+000  0.000000000000000E+000  0.000000000000000E+000        
  0.000000000000000E+000  0.000000000000000E+000  0.000000000000000E+000        
  0.000000000000000E+000                                                        
   106.100000000000       5.292900000000000E-002 -1.151200000000000E-002        
  0.000000000000000E+000  0.000000000000000E+000  0.000000000000000E+000        
  0.000000000000000E+000  0.000000000000000E+000  0.000000000000000E+000        
  0.000000000000000E+000                                                        
   38.1100000000000       0.147043000000000      -3.416000000000000E-002        
  0.000000000000000E+000  0.000000000000000E+000  0.000000000000000E+000        
  0.000000000000000E+000  0.000000000000000E+000  0.000000000000000E+000        
  0.000000000000000E+000                                                        
   14.7500000000000       0.305631000000000      -7.717300000000001E-002        
  0.000000000000000E+000  0.000000000000000E+000  0.000000000000000E+000        
  0.000000000000000E+000  0.000000000000000E+000  0.000000000000000E+000        
  0.000000000000000E+000                                                        
   6.03500000000000       0.399345000000000      -0.141493000000000             
  0.000000000000000E+000  0.000000000000000E+000  0.000000000000000E+000        
  0.000000000000000E+000  0.000000000000000E+000  0.000000000000000E+000        
  0.000000000000000E+000                                                        
   2.53000000000000       0.217051000000000      -0.118019000000000             
  0.000000000000000E+000  0.000000000000000E+000  0.000000000000000E+000        
  0.000000000000000E+000  0.000000000000000E+000  0.000000000000000E+000        
  0.000000000000000E+000                                                        
  0.735500000000000       1.589400000000000E-002  0.273806000000000             
   1.00000000000000       0.000000000000000E+000  0.000000000000000E+000        
  0.000000000000000E+000  0.000000000000000E+000  0.000000000000000E+000        
  0.000000000000000E+000                                                        
  0.290500000000000      -3.084000000000000E-003  0.586510000000000             
  0.000000000000000E+000   1.00000000000000       0.000000000000000E+000        
  0.000000000000000E+000  0.000000000000000E+000  0.000000000000000E+000        
  0.000000000000000E+000                                                        
  0.111100000000000       9.779999999999999E-004  0.285430000000000             
  0.000000000000000E+000  0.000000000000000E+000   1.00000000000000             
  0.000000000000000E+000  0.000000000000000E+000  0.000000000000000E+000        
  0.000000000000000E+000                                                        
   7.21600000000000       0.000000000000000E+000  0.000000000000000E+000        
  0.000000000000000E+000  0.000000000000000E+000  0.000000000000000E+000        
   1.00000000000000       0.000000000000000E+000  0.000000000000000E+000        
  0.000000000000000E+000                                                        
   19.5700000000000       0.000000000000000E+000  0.000000000000000E+000        
  0.000000000000000E+000  0.000000000000000E+000  0.000000000000000E+000        
  0.000000000000000E+000   1.00000000000000       0.000000000000000E+000        
  0.000000000000000E+000                                                        
   53.0730000000000       0.000000000000000E+000  0.000000000000000E+000        
  0.000000000000000E+000  0.000000000000000E+000  0.000000000000000E+000        
  0.000000000000000E+000  0.000000000000000E+000   1.00000000000000             
  0.000000000000000E+000                                                        
  4.145000000000000E-002  0.000000000000000E+000  0.000000000000000E+000        
  0.000000000000000E+000  0.000000000000000E+000  0.000000000000000E+000        
  0.000000000000000E+000  0.000000000000000E+000  0.000000000000000E+000        
   1.00000000000000                                                             
   10    8                                                                      
   34.5100000000000       5.378000000000000E-003  0.000000000000000E+000        
  0.000000000000000E+000  0.000000000000000E+000  0.000000000000000E+000        
  0.000000000000000E+000  0.000000000000000E+000  0.000000000000000E+000        
   7.91500000000000       3.613200000000000E-002  0.000000000000000E+000        
  0.000000000000000E+000  0.000000000000000E+000  0.000000000000000E+000        
  0.000000000000000E+000  0.000000000000000E+000  0.000000000000000E+000        
   2.36800000000000       0.142493000000000       0.000000000000000E+000        
  0.000000000000000E+000  0.000000000000000E+000  0.000000000000000E+000        
  0.000000000000000E+000  0.000000000000000E+000  0.000000000000000E+000        
  0.813200000000000       0.342150000000000        1.00000000000000             
  0.000000000000000E+000  0.000000000000000E+000  0.000000000000000E+000        
  0.000000000000000E+000  0.000000000000000E+000  0.000000000000000E+000        
  0.289000000000000       0.463864000000000       0.000000000000000E+000        
   1.00000000000000       0.000000000000000E+000  0.000000000000000E+000        
  0.000000000000000E+000  0.000000000000000E+000  0.000000000000000E+000        
  0.100700000000000       0.250028000000000       0.000000000000000E+000        
  0.000000000000000E+000   1.00000000000000       0.000000000000000E+000        
  0.000000000000000E+000  0.000000000000000E+000  0.000000000000000E+000        
   8.18200000000000       0.000000000000000E+000  0.000000000000000E+000        
  0.000000000000000E+000  0.000000000000000E+000   1.00000000000000             
  0.000000000000000E+000  0.000000000000000E+000  0.000000000000000E+000        
   24.1860000000000       0.000000000000000E+000  0.000000000000000E+000        
  0.000000000000000E+000  0.000000000000000E+000  0.000000000000000E+000        
   1.00000000000000       0.000000000000000E+000  0.000000000000000E+000        
   71.4940000000000       0.000000000000000E+000  0.000000000000000E+000        
  0.000000000000000E+000  0.000000000000000E+000  0.000000000000000E+000        
  0.000000000000000E+000   1.00000000000000       0.000000000000000E+000        
  3.218000000000000E-002  0.000000000000000E+000  0.000000000000000E+000        
  0.000000000000000E+000  0.000000000000000E+000  0.000000000000000E+000        
  0.000000000000000E+000  0.000000000000000E+000   1.00000000000000             
    6    6                                                                      
   1.84800000000000        1.00000000000000       0.000000000000000E+000        
  0.000000000000000E+000  0.000000000000000E+000  0.000000000000000E+000        
  0.000000000000000E+000                                                        
  0.649000000000000       0.000000000000000E+000   1.00000000000000             
  0.000000000000000E+000  0.000000000000000E+000  0.000000000000000E+000        
  0.000000000000000E+000                                                        
  0.228000000000000       0.000000000000000E+000  0.000000000000000E+000        
   1.00000000000000       0.000000000000000E+000  0.000000000000000E+000        
  0.000000000000000E+000                                                        
   8.65600000000000       0.000000000000000E+000  0.000000000000000E+000        
  0.000000000000000E+000   1.00000000000000       0.000000000000000E+000        
  0.000000000000000E+000                                                        
   33.2130000000000       0.000000000000000E+000  0.000000000000000E+000        
  0.000000000000000E+000  0.000000000000000E+000   1.00000000000000             
  0.000000000000000E+000                                                        
  7.660000000000000E-002  0.000000000000000E+000  0.000000000000000E+000        
  0.000000000000000E+000  0.000000000000000E+000  0.000000000000000E+000        
   1.00000000000000                                                             
    4    4                                                                      
   1.41900000000000        1.00000000000000       0.000000000000000E+000        
  0.000000000000000E+000  0.000000000000000E+000                                
  0.485000000000000       0.000000000000000E+000   1.00000000000000             
  0.000000000000000E+000  0.000000000000000E+000                                
   24.6940000000000       0.000000000000000E+000  0.000000000000000E+000        
   1.00000000000000       0.000000000000000E+000                                
  0.187000000000000       0.000000000000000E+000  0.000000000000000E+000        
  0.000000000000000E+000   1.00000000000000                                     
    2    2                                                                      
   1.01100000000000        1.00000000000000       0.000000000000000E+000        
  0.424000000000000       0.000000000000000E+000   1.00000000000000             
          8.00000000    1    5    1    1    1    1    1                         
O #2   0.000000000000000   0.000000000000000  -1.256942967662880                
   16    9                                                                      
   61420.0000000000       9.000000000000001E-005 -2.000000000000000E-005        
  0.000000000000000E+000  0.000000000000000E+000  0.000000000000000E+000        
  0.000000000000000E+000  0.000000000000000E+000  0.000000000000000E+000        
  0.000000000000000E+000                                                        
   9199.00000000000       6.980000000000001E-004 -1.590000000000000E-004        
  0.000000000000000E+000  0.000000000000000E+000  0.000000000000000E+000        
  0.000000000000000E+000  0.000000000000000E+000  0.000000000000000E+000        
  0.000000000000000E+000                                                        
   2091.00000000000       3.664000000000000E-003 -8.290000000000000E-004        
  0.000000000000000E+000  0.000000000000000E+000  0.000000000000000E+000        
  0.000000000000000E+000  0.000000000000000E+000  0.000000000000000E+000        
  0.000000000000000E+000                                                        
   590.900000000000       1.521800000000000E-002 -3.508000000000000E-003        
  0.000000000000000E+000  0.000000000000000E+000  0.000000000000000E+000        
  0.000000000000000E+000  0.000000000000000E+000  0.000000000000000E+000        
  0.000000000000000E+000                                                        
   192.300000000000       5.242300000000000E-002 -1.215600000000000E-002        
  0.000000000000000E+000  0.000000000000000E+000  0.000000000000000E+000        
  0.000000000000000E+000  0.000000000000000E+000  0.000000000000000E+000        
  0.000000000000000E+000                                                        
   69.3200000000000       0.145921000000000      -3.626100000000000E-002        
  0.000000000000000E+000  0.000000000000000E+000  0.000000000000000E+000        
  0.000000000000000E+000  0.000000000000000E+000  0.000000000000000E+000        
  0.000000000000000E+000                                                        
   26.9700000000000       0.305258000000000      -8.299200000000000E-002        
  0.000000000000000E+000  0.000000000000000E+000  0.000000000000000E+000        
  0.000000000000000E+000  0.000000000000000E+000  0.000000000000000E+000        
  0.000000000000000E+000                                                        
   11.1000000000000       0.398508000000000      -0.152090000000000             
  0.000000000000000E+000  0.000000000000000E+000  0.000000000000000E+000        
  0.000000000000000E+000  0.000000000000000E+000  0.000000000000000E+000        
  0.000000000000000E+000                                                        
   4.68200000000000       0.216980000000000      -0.115331000000000             
  0.000000000000000E+000  0.000000000000000E+000  0.000000000000000E+000        
  0.000000000000000E+000  0.000000000000000E+000  0.000000000000000E+000        
  0.000000000000000E+000                                                        
   1.42800000000000       1.759400000000000E-002  0.288979000000000             
   1.00000000000000       0.000000000000000E+000  0.000000000000000E+000        
  0.000000000000000E+000  0.000000000000000E+000  0.000000000000000E+000        
  0.000000000000000E+000                                                        
  0.554700000000000      -2.502000000000000E-003  0.586128000000000             
  0.000000000000000E+000   1.00000000000000       0.000000000000000E+000        
  0.000000000000000E+000  0.000000000000000E+000  0.000000000000000E+000        
  0.000000000000000E+000                                                        
  0.206700000000000       9.540000000000000E-004  0.277624000000000             
  0.000000000000000E+000  0.000000000000000E+000   1.00000000000000             
  0.000000000000000E+000  0.000000000000000E+000  0.000000000000000E+000        
  0.000000000000000E+000                                                        
   12.9740000000000       0.000000000000000E+000  0.000000000000000E+000        
  0.000000000000000E+000  0.000000000000000E+000  0.000000000000000E+000        
   1.00000000000000       0.000000000000000E+000  0.000000000000000E+000        
  0.000000000000000E+000                                                        
   34.9000000000000       0.000000000000000E+000  0.000000000000000E+000        
  0.000000000000000E+000  0.000000000000000E+000  0.000000000000000E+000        
  0.000000000000000E+000   1.00000000000000       0.000000000000000E+000        
  0.000000000000000E+000                                                        
   93.8810000000000       0.000000000000000E+000  0.000000000000000E+000        
  0.000000000000000E+000  0.000000000000000E+000  0.000000000000000E+000        
  0.000000000000000E+000  0.000000000000000E+000   1.00000000000000             
  0.000000000000000E+000                                                        
  6.959000000000000E-002  0.000000000000000E+000  0.000000000000000E+000        
  0.000000000000000E+000  0.000000000000000E+000  0.000000000000000E+000        
  0.000000000000000E+000  0.000000000000000E+000  0.000000000000000E+000        
   1.00000000000000                                                             
   10    8                                                                      
   63.4200000000000       6.044000000000000E-003  0.000000000000000E+000        
  0.000000000000000E+000  0.000000000000000E+000  0.000000000000000E+000        
  0.000000000000000E+000  0.000000000000000E+000  0.000000000000000E+000        
   14.6600000000000       4.179900000000000E-002  0.000000000000000E+000        
  0.000000000000000E+000  0.000000000000000E+000  0.000000000000000E+000        
  0.000000000000000E+000  0.000000000000000E+000  0.000000000000000E+000        
   4.45900000000000       0.161143000000000       0.000000000000000E+000        
  0.000000000000000E+000  0.000000000000000E+000  0.000000000000000E+000        
  0.000000000000000E+000  0.000000000000000E+000  0.000000000000000E+000        
   1.53100000000000       0.356731000000000        1.00000000000000             
  0.000000000000000E+000  0.000000000000000E+000  0.000000000000000E+000        
  0.000000000000000E+000  0.000000000000000E+000  0.000000000000000E+000        
  0.530200000000000       0.448309000000000       0.000000000000000E+000        
   1.00000000000000       0.000000000000000E+000  0.000000000000000E+000        
  0.000000000000000E+000  0.000000000000000E+000  0.000000000000000E+000        
  0.175000000000000       0.244940000000000       0.000000000000000E+000        
  0.000000000000000E+000   1.00000000000000       0.000000000000000E+000        
  0.000000000000000E+000  0.000000000000000E+000  0.000000000000000E+000        
   14.4750000000000       0.000000000000000E+000  0.000000000000000E+000        
  0.000000000000000E+000  0.000000000000000E+000   1.00000000000000             
  0.000000000000000E+000  0.000000000000000E+000  0.000000000000000E+000        
   42.7300000000000       0.000000000000000E+000  0.000000000000000E+000        
  0.000000000000000E+000  0.000000000000000E+000  0.000000000000000E+000        
   1.00000000000000       0.000000000000000E+000  0.000000000000000E+000        
   126.140000000000       0.000000000000000E+000  0.000000000000000E+000        
  0.000000000000000E+000  0.000000000000000E+000  0.000000000000000E+000        
  0.000000000000000E+000   1.00000000000000       0.000000000000000E+000        
  5.348000000000000E-002  0.000000000000000E+000  0.000000000000000E+000        
  0.000000000000000E+000  0.000000000000000E+000  0.000000000000000E+000        
  0.000000000000000E+000  0.000000000000000E+000   1.00000000000000             
    6    6                                                                      
   3.77500000000000        1.00000000000000       0.000000000000000E+000        
  0.000000000000000E+000  0.000000000000000E+000  0.000000000000000E+000        
  0.000000000000000E+000                                                        
   1.30000000000000       0.000000000000000E+000   1.00000000000000             
  0.000000000000000E+000  0.000000000000000E+000  0.000000000000000E+000        
  0.000000000000000E+000                                                        
  0.444000000000000       0.000000000000000E+000  0.000000000000000E+000        
   1.00000000000000       0.000000000000000E+000  0.000000000000000E+000        
  0.000000000000000E+000                                                        
   14.9270000000000       0.000000000000000E+000  0.000000000000000E+000        
  0.000000000000000E+000   1.00000000000000       0.000000000000000E+000        
  0.000000000000000E+000                                                        
   57.5440000000000       0.000000000000000E+000  0.000000000000000E+000        
  0.000000000000000E+000  0.000000000000000E+000   1.00000000000000             
  0.000000000000000E+000                                                        
  0.154000000000000       0.000000000000000E+000  0.000000000000000E+000        
  0.000000000000000E+000  0.000000000000000E+000  0.000000000000000E+000        
   1.00000000000000                                                             
    4    4                                                                      
   2.66600000000000        1.00000000000000       0.000000000000000E+000        
  0.000000000000000E+000  0.000000000000000E+000                                
  0.859000000000000       0.000000000000000E+000   1.00000000000000             
  0.000000000000000E+000  0.000000000000000E+000                                
   26.4830000000000       0.000000000000000E+000  0.000000000000000E+000        
   1.00000000000000       0.000000000000000E+000                                
  0.324000000000000       0.000000000000000E+000  0.000000000000000E+000        
  0.000000000000000E+000   1.00000000000000                                     
    2    2                                                                      
   1.84600000000000        1.00000000000000       0.000000000000000E+000        
  0.714000000000000       0.000000000000000E+000   1.00000000000000             
FINISH                                                                          
 
********************************************************************************
 ONE- AND TWO-ELECTRON INTEGRALS OVER SYMMETRY-ADAPTED AOS ARE CALCULATED.

  SPHERICAL HARMONICS ARE USED.
  
  INTEGRALS LESS THAN  0.10E-13 ARE NEGLECTED.

  NUCLEAR REPULSION ENERGY :   16.3692116267 A.U.
  @MOLECU-I, ONE ELECTRON INTEGRALS (CPU/WALL):        0.06/       0.06 SECONDS.
  @TWOEL-I,    4451053 INTEGRALS OF SYMMETRY TYPE  I I I I
  @TWOEL-I,   19201898 INTEGRALS OF SYMMETRY TYPE  I J I J
  @TWOEL-I,   10110589 INTEGRALS OF SYMMETRY TYPE  I I J J
  @TWOEL-I,   14196439 INTEGRALS OF SYMMETRY TYPE  I J K L
  @TWOEL-I, TOTAL NUMBER OF 2-E INTEGRALS   47959979.
  @MOLECU-I, TWO ELECTRON INTEGRALS (CPU/WALL):      165.83/      22.83 SECONDS.
 @CHECKOUT-I, Total execution time (CPU/WALL):      165.91/      22.91 seconds.

Running with 14 threads/proc

--executable xvmol finished with status     0 in       22.95 seconds (walltime).
 --invoking executable--
/nfs/workspaces/public/cfour_mpi/bin/xvmol2ja
 @GETMEM-I,  Allocated    3814 MB of main memory.
 @CHECKOUT-I, Total execution time (CPU/WALL):        0.14/       0.04 seconds.
--executable xvmol2ja finished with status     0 in        0.07 seconds (walltime).
 --invoking executable--
/nfs/workspaces/public/cfour_mpi/bin/xvprop
 @GETMEM-I,  Allocated    3814 MB of main memory.
   Property integrals will be calculated.
    --------------------------------------------------------------
                                   Property evaluated at 
    Property type                X             Y             Z
    --------------------------------------------------------------
    Dipole moment               ----          ----          ----  
    Quadrupole moment           ----          ----          ----  
    Octopole moment             ----          ----          ----  
    Relativisitic corr.         ----          ----          ----  
    Second moment            0.0000000     0.0000000     0.0000000
    Electron density         0.0000000     0.0000000     1.6753913
    Electron density         0.0000000     0.0000000    -1.2569430
    Field gradient           0.0000000     0.0000000     1.6753913
    Field gradient           0.0000000     0.0000000    -1.2569430
    Potential                0.0000000     0.0000000     1.6753913
    Potential                0.0000000     0.0000000    -1.2569430
    --------------------------------------------------------------
 @CHECKOUT-I, Total execution time (CPU/WALL):        1.33/       1.35 seconds.
--executable xvprop finished with status     0 in        1.36 seconds (walltime).
 --invoking executable--
/nfs/workspaces/public/cfour_mpi/bin/xvscf
  There are  218 functions in the AO basis.

  There are 4 irreducible representations.

       Irrep        # of functions
         1                 86
         2                 52
         3                 52
         4                 28


  Parameters for SCF calculation: 
        SCF reference function:  RHF  
  Maximum number of iterations:  150
     Full symmetry point group: CXv 
     Computational point group: C2v 
        Initial density matrix: MOREAD                 
     SCF convergence tolerance: 10**(-10)
  DIIS convergence acceleration:  ON
          Latest start for DIIS:   8
                     DIIS order:   6

  Memory information:    2523578 words required.
  Fock matrices are constructed from AO integral file.
 @GETMEM-I,  Allocated      19 MB of main memory.
  Initialization and symmetry analysis required      0.002 seconds.

  Adding electric field perturbation to one-electron Hamiltonian.
  Field direction     : Z
  Field strength      :  0.0002000 a.u.

  @INITGES-I, Occupancies from core Hamiltonian:

          Alpha population by irrep:   5    1    1    0
           Beta population by irrep:   5    1    1    0


 total no. of electrons in initial guess :  0.000000000000000E+000
  --------------------------------------------------------------------
  Iteration         Total Energy            Largest Density Difference
  --------------------------------------------------------------------
       0            16.369212265868669              0.0000000000D+00
   current occupation vector 
     5  1  1  0
     5  1  1  0
       1           -93.520774237643295              0.1754117280D+02
   current occupation vector 
     5  1  1  0
     5  1  1  0
       2           -98.111486219861320              0.1754115106D+02
   current occupation vector 
     5  1  1  0
     5  1  1  0
       3          -100.811966582957908              0.6448731376D+01
   current occupation vector 
     5  1  1  0
     5  1  1  0
       4           -95.818141408139937              0.6442320323D+01
   current occupation vector 
     5  1  1  0
     5  1  1  0
       5          -100.480522419083243              0.6892911489D+01
   current occupation vector 
     5  1  1  0
     5  1  1  0
       6           -95.446539662005875              0.6893525658D+01
   current occupation vector 
     5  1  1  0
     5  1  1  0
       7          -100.463260971144564              0.6921247235D+01
   current occupation vector 
     5  1  1  0
     5  1  1  0
       8           -95.433737625927307              0.6921315497D+01
   current occupation vector 
     5  1  1  0
     5  1  1  0
       9          -107.496771162706480              0.5698471108D+01
   current occupation vector 
     5  1  1  0
     5  1  1  0
      10          -110.203626523610197              0.1242702897D+01
   current occupation vector 
     5  1  1  0
     5  1  1  0
      11          -112.387079951444036              0.1202361529D+01
   current occupation vector 
     5  1  1  0
     5  1  1  0
      12          -112.551394082906313              0.4799147880D+00
   current occupation vector 
     5  1  1  0
     5  1  1  0
      13          -112.560318048400404              0.1271241684D+00
   current occupation vector 
     5  1  1  0
     5  1  1  0
      14          -112.563264234569004              0.6804871208D-01
   current occupation vector 
     5  1  1  0
     5  1  1  0
      15          -112.563467533986568              0.1779660698D-01
   current occupation vector 
     5  1  1  0
     5  1  1  0
      16          -112.563606400937601              0.2065761296D-01
   current occupation vector 
     5  1  1  0
     5  1  1  0
      17          -112.563655338346848              0.1457117998D-01
   current occupation vector 
     5  1  1  0
     5  1  1  0
      18          -112.563664023342909              0.7912470188D-02
   current occupation vector 
     5  1  1  0
     5  1  1  0
      19          -112.563664093293568              0.6836796528D-03
   current occupation vector 
     5  1  1  0
     5  1  1  0
      20          -112.563664093896648              0.2227775700D-04
   current occupation vector 
     5  1  1  0
     5  1  1  0
      21          -112.563664093945164              0.9036748111D-05
   current occupation vector 
     5  1  1  0
     5  1  1  0
      22          -112.563664093946471              0.1299012502D-05
   current occupation vector 
     5  1  1  0
     5  1  1  0
      23          -112.563664093946841              0.2405875874D-06
   current occupation vector 
     5  1  1  0
     5  1  1  0
      24          -112.563664093946471              0.5444178708D-07
   current occupation vector 
     5  1  1  0
     5  1  1  0
      25          -112.563664093943174              0.3700201634D-07
   current occupation vector 
     5  1  1  0
     5  1  1  0
      26          -112.563664093946301              0.2397505394D-07
   current occupation vector 
     5  1  1  0
     5  1  1  0
      27          -112.563664093947068              0.1596622734D-07
   current occupation vector 
     5  1  1  0
     5  1  1  0
      28          -112.563664093946471              0.1271965200D-08
   current occupation vector 
     5  1  1  0
     5  1  1  0
      29          -112.563664093946329              0.1094857538D-09
   current occupation vector 
     5  1  1  0
     5  1  1  0

  SCF has converged.

 Density matrix saved to file den.dat
 total electron number:   14.0000000000000     
     E(SCF)=      -112.563664093943316              0.6104561301D-10

  Eigenvector printing suppressed.

 @PUTMOS-I, Writing converged MOs to NEWMOS. 
 @PUTMOS-I, Symmetry   1 Full Blocks 21 Partial Blocksize   2
 @PUTMOS-I, Symmetry   2 Full Blocks 13 Partial Blocksize   0
 @PUTMOS-I, Symmetry   3 Full Blocks 13 Partial Blocksize   0
 @PUTMOS-I, Symmetry   4 Full Blocks  7 Partial Blocksize   0
 @PUTFOCK-I, Writing converged Fock matrix to NEWFOCK. 
 @PUTFOCK-I, Symmetry   1 Full Blocks 21 Partial Blocksize   2
 @PUTFOCK-I, Symmetry   2 Full Blocks 13 Partial Blocksize   0
 @PUTFOCK-I, Symmetry   3 Full Blocks 13 Partial Blocksize   0
 @PUTFOCK-I, Symmetry   4 Full Blocks  7 Partial Blocksize   0


 
  ORBITAL EIGENVALUES (ALPHA)  (1H = 27.2113834 eV)

       MO #        E(hartree)               E(eV)           FULLSYM    COMPSYM
       ----   --------------------   --------------------   -------   ---------
    1     1         -20.6497188560        -561.9074168936     SG+        A1 (1)
    2     2         -11.5120396192        -313.2585237951     SG+        A1 (1)
    3     3          -1.2944754904         -35.2244688709     SG+        A1 (1)
    4     4          -0.8013539115         -21.8059485258     SG+        A1 (1)
    5     5          -0.5402566036         -14.7011295758     SG+        A1 (1)
    6   139          -0.5067656363         -13.7897940222      PI        B2 (3)
    7    87          -0.5067656363         -13.7897940222      PI        B1 (2)
  +++++++++++++++++++++++++++++++++++++++++++++++++++++++++++++++++++++++++++++
    8   140           0.0023445119           0.0637974110      PI        B2 (3)
    9    88           0.0023445119           0.0637974110      PI        B1 (2)
   10     6           0.0621201534           1.6903753110     SG+        A1 (1)
   11     7           0.0682924615           1.8583323519     SG+        A1 (1)
   12   141           0.0833404962           2.2678101936      PI        B2 (3)
   13    89           0.0833404962           2.2678101936      PI        B1 (2)
   14     8           0.1566889560           4.2637232565     SG+        A1 (1)
   15   142           0.1776654289           4.8345221015      PI        B2 (3)
   16    90           0.1776654289           4.8345221015      PI        B1 (2)
   17     9           0.2079996552           5.6599583649     SG+        A1 (1)
   18   191           0.2231539921           6.0723288350      DE        A2 (4)
   19    10           0.2231539921           6.0723288350      DE        A1 (1)
   20   143           0.2881819846           7.8418304731      PI        B2 (3)
   21    91           0.2881819846           7.8418304731      PI        B1 (2)
   22    11           0.3005313242           8.1778730868     SG+        A1 (1)
   23    12           0.3255579131           8.8588811923     SG+        A1 (1)
   24   144           0.4038361714          10.9889408901      PI        B2 (3)
   25    92           0.4038361714          10.9889408901      PI        B1 (2)
   26    13           0.4288119308          11.6685658560     SG+        A1 (1)
   27    14           0.5127656983          13.9530640108     SG+        A1 (1)
   28   192           0.5493661480          14.9490128800      DE        A2 (4)
   29    15           0.5493661480          14.9490128800      DE        A1 (1)
   30   145           0.6229970090          16.9526104690      PI        B2 (3)
   31    93           0.6229970090          16.9526104690      PI        B1 (2)
   32    16           0.7091223935          19.2962013274     SG+        A1 (1)
   33   146           0.7338734179          19.9697109404      PH        B2 (3)
   34    94           0.7338734179          19.9697109404      PH        B1 (2)
   35   193           0.7418632607          20.1871256163      DE        A2 (4)
   36    17           0.7418632607          20.1871256163      DE        A1 (1)
   37   147           0.7798714358          21.2213806413      PI        B2 (3)
   38    95           0.7798714358          21.2213806413      PI        B1 (2)
   39    18           0.8224167854          22.3790984626     SG+        A1 (1)
   40   194           0.8630316340          23.4842846794      DE        A2 (4)
   41    19           0.8630316340          23.4842846794      DE        A1 (1)
   42    20           0.8788774391          23.9154709557     SG+        A1 (1)
   43   148           0.8893866816          24.2014419846      PI        B2 (3)
   44    96           0.8893866816          24.2014419846      PI        B1 (2)
   45   149           1.0366564828          28.2088570063      PI        B2 (3)
   46    97           1.0366564828          28.2088570063      PI        B1 (2)
   47    21           1.1300736979          30.7508686625     SG+        A1 (1)
   48    22           1.3701087916          37.2825556273     SG+        A1 (1)
   49   150           1.4221066371          38.6974889369      PH        B2 (3)
   50    98           1.4221066371          38.6974889369      PH        B1 (2)
   51   151           1.5031587165          40.9030281445      PI        B2 (3)
   52    99           1.5031587165          40.9030281445      PI        B1 (2)
   53   195           1.5814442090          43.0332846957      DE        A2 (4)
   54    23           1.5814442090          43.0332846957      DE        A1 (1)
   55    24           1.5984327879          43.4955674301     SG+        A1 (1)
   56   152           1.6378662392          44.5686061940      PI        B2 (3)
   57   100           1.6378662392          44.5686061940      PI        B1 (2)
   58   196           1.6849816188          45.8506808515      DE        A2 (4)
   59    25           1.6849816188          45.8506808515      DE        A1 (1)
   60    26           1.9159171719          52.1347567272     SG+        A1 (1)
   61    27           1.9667094897          53.5168859613     SG+        A1 (1)
   62   197           2.0716740892          56.3731179213      PI        A2 (4)
   63    28           2.0716740892          56.3731179213      PI        A1 (1)
   64   153           2.0814676394          56.6396139698      PI        B2 (3)
   65   101           2.0814676394          56.6396139699      PI        B1 (2)
   66   198           2.1308223683          57.9826244220      DE        A2 (4)
   67    29           2.1308223683          57.9826244220      DE        A1 (1)
   68   154           2.2094168008          60.1212876561      PH        B2 (3)
   69   102           2.2094168008          60.1212876561      PH        B1 (2)
   70   103           2.2206487413          60.4269242976      PH        B1 (2)
   71   155           2.2206487413          60.4269242976      PH        B2 (3)
   72    30           2.2285483437          60.6418834046     SG+        A1 (1)
   73   104           2.2317896132          60.7300828332      PI        B1 (2)
   74   156           2.2317896132          60.7300828332      PI        B2 (3)
   75   199           2.2904058168          62.3251108226      DE        A2 (4)
   76    31           2.2904058168          62.3251108226      DE        A1 (1)
   77    32           2.4182034655          65.8026616384     SG+        A1 (1)
   78   157           2.5162889581          68.4717035833      PI        B2 (3)
   79   105           2.5162889581          68.4717035833      PI        B1 (2)
   80   158           2.5939406492          70.5847135230      PI        B2 (3)
   81   106           2.5939406492          70.5847135230      PI        B1 (2)
   82    33           2.6216657404          71.3391516078     SG+        A1 (1)
   83   200           2.6669074200          72.5702402970      DE        A2 (4)
   84    34           2.6669074200          72.5702402970      DE        A1 (1)
   85    35           2.9853442701          81.2353475150     SG+        A1 (1)
   86   159           3.4268580607          93.2495485460      PI        B2 (3)
   87   107           3.4268580607          93.2495485460      PI        B1 (2)
   88    36           3.7062772097         100.8529301385      PI        A1 (1)
   89   201           3.7062772097         100.8529301385      PI        A2 (4)
   90    37           3.9018712187         106.1753137096     SG+        A1 (1)
   91   108           3.9334108816         107.0335515693      PH        B1 (2)
   92   160           3.9334108816         107.0335515693      PH        B2 (3)
   93   161           4.1356577987         112.5369699708      PH        B2 (3)
   94   109           4.1356577987         112.5369699708      PH        B1 (2)
   95    38           4.1454129542         112.8024212479     SG+        A1 (1)
   96   110           4.1584274831         113.1565645829      PI        B1 (2)
   97   162           4.1584274831         113.1565645829      PI        B2 (3)
   98   202           4.1944276997         114.1361802812      DE        A2 (4)
   99    39           4.1944276997         114.1361802813      DE        A1 (1)
  100   203           4.2865643429         116.6433458033      DE        A2 (4)
  101    40           4.2865643429         116.6433458033      DE        A1 (1)
  102    41           4.4267688157         120.4585034678     SG+        A1 (1)
  103   111           4.5606841579         124.1025251875      PI        B1 (2)
  104   163           4.5606841579         124.1025251875      PI        B2 (3)
  105    42           4.7120320016         128.2209093877      DE        A1 (1)
  106   204           4.7120320016         128.2209093877      DE        A2 (4)
  107    43           4.7547521733         129.3833843600     SG+        A1 (1)
  108   164           5.1790590546         140.9293615849      PI        B2 (3)
  109   112           5.1790590546         140.9293615849      PI        B1 (2)
  110    44           5.2710950842         143.4337892729     SG+        A1 (1)
  111   113           5.3443110867         145.4260979886      PI        B1 (2)
  112   165           5.3443110867         145.4260979886      PI        B2 (3)
  113   205           5.8332055136         158.7295916812      PI        A2 (4)
  114    45           5.8332055136         158.7295916812      PI        A1 (1)
  115   166           5.9068339950         160.7331245172      PH        B2 (3)
  116   114           5.9068339950         160.7331245172      PH        B1 (2)
  117    46           6.0610532193         164.9296429574     SG+        A1 (1)
  118   206           6.1190341480         166.5073842389      DE        A2 (4)
  119    47           6.1190341480         166.5073842389      DE        A1 (1)
  120   115           6.1416994425         167.1241382571      PI        B1 (2)
  121   167           6.1416994425         167.1241382571      PI        B2 (3)
  122    48           6.1978182996         168.6512099929     SG+        A1 (1)
  123   207           6.3441865818         172.6340934398      DE        A2 (4)
  124    49           6.3441865818         172.6340934398      DE        A1 (1)
  125   168           6.3608752326         173.0882147126      PH        B2 (3)
  126   116           6.3608752326         173.0882147126      PH        B1 (2)
  127   208           6.4953985232         176.7487795505      DE        A2 (4)
  128    50           6.4953985232         176.7487795506      DE        A1 (1)
  129   117           6.8170661404         185.5018004091      PI        B1 (2)
  130   169           6.8170661404         185.5018004091      PI        B2 (3)
  131    51           7.1125600305         193.5425979448     SG+        A1 (1)
  132   118           7.3278913361         199.4020606591      PI        B1 (2)
  133   170           7.3278913361         199.4020606591      PI        B2 (3)
  134    52           7.9225729124         215.5841690337     SG+        A1 (1)
  135    53           9.6021910480         261.2889020861     SG+        A1 (1)
  136   119           9.7732655921         265.9440770972      PI        B1 (2)
  137   171           9.7732655921         265.9440770973      PI        B2 (3)
  138   209          10.6493825708         289.7844321084      PI        A2 (4)
  139    54          10.6493825708         289.7844321084      PI        A1 (1)
  140    55          10.6897900024         290.8839742200     SG+        A1 (1)
  141   172          10.7411815930         292.2824104960      PH        B2 (3)
  142   120          10.7411815930         292.2824104960      PH        B1 (2)
  143   210          10.9709555625         298.5348780761      DE        A2 (4)
  144    56          10.9709555625         298.5348780761      DE        A1 (1)
  145   173          10.9776248766         298.7163593385      PI        B2 (3)
  146   121          10.9776248766         298.7163593385      PI        B1 (2)
  147    57          11.1728486856         304.0286692537     SG+        A1 (1)
  148   122          11.8872767029         323.4692439454      PH        B1 (2)
  149   174          11.8872767029         323.4692439454      PH        B2 (3)
  150    58          11.9999265542         326.5346022375      DE        A1 (1)
  151   211          11.9999265542         326.5346022377      DE        A2 (4)
  152   123          12.4019379204         337.4738876558      PI        B1 (2)
  153   175          12.4019379204         337.4738876558      PI        B2 (3)
  154    59          12.6320093026         343.7344482463     SG+        A1 (1)
  155    60          12.7317840451         346.4494570167      DE        A1 (1)
  156   212          12.7317840451         346.4494570167      DE        A2 (4)
  157   176          13.0990172225         356.4423798039      PI        B2 (3)
  158   124          13.0990172225         356.4423798040      PI        B1 (2)
  159    61          13.5836748013         369.6305829991     SG+        A1 (1)
  160    62          17.3762586789         472.8320369703     SG+        A1 (1)
  161   125          18.7440348614         510.0511190770      PI        B1 (2)
  162   177          18.7440348614         510.0511190771      PI        B2 (3)
  163    63          19.7765923970         538.1484380597     SG+        A1 (1)
  164    64          26.2691598041         714.8201790256      DE        A1 (1)
  165   213          26.2691598041         714.8201790256      DE        A2 (4)
  166   178          26.5922887870         723.6129656674      PI        B2 (3)
  167   126          26.5922887870         723.6129656675      PI        B1 (2)
  168    65          27.0696332953         736.6021700970     SG+        A1 (1)
  169   127          33.4611792821         910.5249784611      PI        B1 (2)
  170   179          33.4611792821         910.5249784615      PI        B2 (3)
  171    66          34.3277174907         934.1046818875     SG+        A1 (1)
  172    67          35.6389624308         969.7854706815     SG+        A1 (1)
  173    68          47.0731405218        1280.9252745814      DE        A1 (1)
  174   214          47.0731405218        1280.9252745814      DE        A2 (4)
  175   180          47.2599090255        1286.0075039424      PI        B2 (3)
  176   128          47.2599090255        1286.0075039424      PI        B1 (2)
  177    69          47.5399643879        1293.6281977821     SG+        A1 (1)
  178    70          63.7958387404        1735.9730272909     SG+        A1 (1)
  179   129          66.3238454155        1804.7635861640      PI        B1 (2)
  180   181          66.3238454155        1804.7635861641      PI        B2 (3)
  181    71          67.0764385346        1825.2426860712     SG+        A1 (1)
  182   182          98.5175550428        2680.7989619012      PH        B2 (3)
  183   130          98.5175550428        2680.7989619012      PH        B1 (2)
  184    72          98.5310585889        2681.1664120715      DE        A1 (1)
  185   215          98.5310585889        2681.1664120715      DE        A2 (4)
  186   131          98.5444876802        2681.5318362212      PI        B1 (2)
  187   183          98.5444876802        2681.5318362212      PI        B2 (3)
  188    73          98.5561610652        2681.8494851785     SG+        A1 (1)
  189   132         103.3063060521        2811.1075016224      PH        B1 (2)
  190   184         103.3063060521        2811.1075016224      PH        B2 (3)
  191    74         103.3090246410        2811.1814781851      DE        A1 (1)
  192   216         103.3090246410        2811.1814781871      DE        A2 (4)
  193   185         103.3401631008        2812.0287987541      PI        B2 (3)
  194   133         103.3401631008        2812.0287987541      PI        B1 (2)
  195    75         103.3460530423        2812.1890722117     SG+        A1 (1)
  196   217         114.9703624525        3128.5026123329      DE        A2 (4)
  197    76         114.9703624525        3128.5026123330      DE        A1 (1)
  198   134         115.1267823436        3132.7590139592      PI        B1 (2)
  199   186         115.1267823436        3132.7590139592      PI        B2 (3)
  200    77         115.3622953639        3139.1676490510     SG+        A1 (1)
  201   135         116.7592270223        3177.1800919910      PI        B1 (2)
  202   187         116.7592270223        3177.1800919913      PI        B2 (3)
  203    78         117.4584601662        3196.2071931565     SG+        A1 (1)
  204    79         121.9036605568        3317.1672452738     SG+        A1 (1)
  205    80         198.5536360096        5402.9191149213      DE        A1 (1)
  206   218         198.5536360096        5402.9191149213      DE        A2 (4)
  207   136         198.6554863145        5405.6906026165      PI        B1 (2)
  208   188         198.6554863145        5405.6906026165      PI        B2 (3)
  209    81         198.7995102256        5409.6096924819     SG+        A1 (1)
  210    82         216.3211681403        5886.3982438026     SG+        A1 (1)
  211   189         224.8027422678        6117.1936092216      PI        B2 (3)
  212   137         224.8027422678        6117.1936092217      PI        B1 (2)
  213    83         225.3931922718        6133.2605706591     SG+        A1 (1)
  214   190         395.2797336041       10756.1083813515      PI        B2 (3)
  215   138         395.2797336041       10756.1083813515      PI        B1 (2)
  216    84         395.8412293656       10771.3874577960     SG+        A1 (1)
  217    85         508.6241831662       13840.3676546486     SG+        A1 (1)
  218    86         895.1388464190       24357.9663461418     SG+        A1 (1)


  VSCF finished.

 @CHECKOUT-I, Total execution time (CPU/WALL):       51.56/       9.55 seconds.
--executable xvscf finished with status     0 in        9.58 seconds (walltime).
 --invoking executable--
/nfs/workspaces/public/cfour_mpi/bin/xvtran
 @GETMEM-I,  Allocated    3814 MB of main memory.
  Full RHF integral transformation
  Transformation of IIII integrals :
  1 pass through the AO integral file was required.
     4451053 AO integrals were read.
     8652012 MO integrals were written to HF2.
  Transformation of IIJJ integrals :
  1 pass through the AO integral file was required.
    10110589 AO integrals were read.
    14412887 MO integrals were written to HF2.
  Transformation of IJIJ integrals :
  1 pass through the AO integral file was required.
    19201898 AO integrals were read.
    26831062 MO integrals were written to HF2.
  Transformation of IJKL integrals :
  1 pass through the AO integral file was required.
    14196439 AO integrals were read.
    18136353 MO integrals were written to HF2.
  Summary of active molecular orbitals: 
------------------------------------------------------------------------
 
  Index      Eigenvalue    Symmetry    Index      Eigenvalue    Symmetry
------------------------------------------------------------------------
     1       -20.6497189        1       110         4.1356578        2
     2       -11.5120396        1       111         4.1584275        2
     3        -1.2944755        1       112         4.5606842        2
     4        -0.8013539        1       113         5.1790591        2
     5        -0.5402566        1       114         5.3443111        2
     6        -0.5067656        2       115         5.9068340        2
     7        -0.5067656        3       116         6.1416994        2
     8         0.0621202        1       117         6.3608752        2
     9         0.0682925        1       118         6.8170661        2
    10         0.1566890        1       119         7.3278913        2
    11         0.2079997        1       120         9.7732656        2
    12         0.2231540        1       121        10.7411816        2
    13         0.3005313        1       122        10.9776249        2
    14         0.3255579        1       123        11.8872767        2
    15         0.4288119        1       124        12.4019379        2
    16         0.5127657        1       125        13.0990172        2
    17         0.5493661        1       126        18.7440349        2
    18         0.7091224        1       127        26.5922888        2
    19         0.7418633        1       128        33.4611793        2
    20         0.8224168        1       129        47.2599090        2
    21         0.8630316        1       130        66.3238454        2
    22         0.8788774        1       131        98.5175550        2
    23         1.1300737        1       132        98.5444877        2
    24         1.3701088        1       133       103.3063061        2
    25         1.5814442        1       134       103.3401631        2
    26         1.5984328        1       135       115.1267823        2
    27         1.6849816        1       136       116.7592270        2
    28         1.9159172        1       137       198.6554863        2
    29         1.9667095        1       138       224.8027423        2
    30         2.0716741        1       139       395.2797336        2
    31         2.1308224        1       140         0.0023445        3
    32         2.2285483        1       141         0.0833405        3
    33         2.2904058        1       142         0.1776654        3
    34         2.4182035        1       143         0.2881820        3
    35         2.6216657        1       144         0.4038362        3
    36         2.6669074        1       145         0.6229970        3
    37         2.9853443        1       146         0.7338734        3
    38         3.7062772        1       147         0.7798714        3
    39         3.9018712        1       148         0.8893867        3
    40         4.1454130        1       149         1.0366565        3
    41         4.1944277        1       150         1.4221066        3
    42         4.2865643        1       151         1.5031587        3
    43         4.4267688        1       152         1.6378662        3
    44         4.7120320        1       153         2.0814676        3
    45         4.7547522        1       154         2.2094168        3
    46         5.2710951        1       155         2.2206487        3
    47         5.8332055        1       156         2.2317896        3
    48         6.0610532        1       157         2.5162890        3
    49         6.1190341        1       158         2.5939406        3
    50         6.1978183        1       159         3.4268581        3
    51         6.3441866        1       160         3.9334109        3
    52         6.4953985        1       161         4.1356578        3
    53         7.1125600        1       162         4.1584275        3
    54         7.9225729        1       163         4.5606842        3
    55         9.6021910        1       164         5.1790591        3
    56        10.6493826        1       165         5.3443111        3
    57        10.6897900        1       166         5.9068340        3
    58        10.9709556        1       167         6.1416994        3
    59        11.1728487        1       168         6.3608752        3
    60        11.9999266        1       169         6.8170661        3
    61        12.6320093        1       170         7.3278913        3
    62        12.7317840        1       171         9.7732656        3
    63        13.5836748        1       172        10.7411816        3
    64        17.3762587        1       173        10.9776249        3
    65        19.7765924        1       174        11.8872767        3
    66        26.2691598        1       175        12.4019379        3
    67        27.0696333        1       176        13.0990172        3
    68        34.3277175        1       177        18.7440349        3
    69        35.6389624        1       178        26.5922888        3
    70        47.0731405        1       179        33.4611793        3
    71        47.5399644        1       180        47.2599090        3
    72        63.7958387        1       181        66.3238454        3
    73        67.0764385        1       182        98.5175550        3
    74        98.5310586        1       183        98.5444877        3
    75        98.5561611        1       184       103.3063061        3
    76       103.3090246        1       185       103.3401631        3
    77       103.3460530        1       186       115.1267823        3
    78       114.9703625        1       187       116.7592270        3
    79       115.3622954        1       188       198.6554863        3
    80       117.4584602        1       189       224.8027423        3
    81       121.9036606        1       190       395.2797336        3
    82       198.5536360        1       191         0.2231540        4
    83       198.7995102        1       192         0.5493661        4
    84       216.3211681        1       193         0.7418633        4
    85       225.3931923        1       194         0.8630316        4
    86       395.8412294        1       195         1.5814442        4
    87       508.6241832        1       196         1.6849816        4
    88       895.1388464        1       197         2.0716741        4
    89         0.0023445        2       198         2.1308224        4
    90         0.0833405        2       199         2.2904058        4
    91         0.1776654        2       200         2.6669074        4
    92         0.2881820        2       201         3.7062772        4
    93         0.4038362        2       202         4.1944277        4
    94         0.6229970        2       203         4.2865643        4
    95         0.7338734        2       204         4.7120320        4
    96         0.7798714        2       205         5.8332055        4
    97         0.8893867        2       206         6.1190341        4
    98         1.0366565        2       207         6.3441866        4
    99         1.4221066        2       208         6.4953985        4
   100         1.5031587        2       209        10.6493826        4
   101         1.6378662        2       210        10.9709556        4
   102         2.0814676        2       211        11.9999266        4
   103         2.2094168        2       212        12.7317840        4
   104         2.2206487        2       213        26.2691598        4
   105         2.2317896        2       214        47.0731405        4
   106         2.5162890        2       215        98.5310586        4
   107         2.5939406        2       216       103.3090246        4
   108         3.4268581        2       217       114.9703625        4
   109         3.9334109        2       218       198.5536360        4
------------------------------------------------------------------------
  -20.6497188560298       -11.5120396192380       -1.29447549039110     
 -0.801353911532771      -0.540256603633221      -0.506765636260050     
 -0.506765636260055       6.212015339849587E-002  6.829246145155846E-002
  0.156688956010114       0.207999655207261       0.223153992053752     
  0.300531324211915       0.325557913101516       0.428811930819209     
  0.512765698298776       0.549366147992434       0.709122393513278     
  0.741863260663656       0.822416785417600       0.863031634010104     
  0.878877439055063        1.13007369785235        1.37010879157785     
   1.58144420895839        1.59843278788058        1.68498161881579     
   1.91591717189802        1.96670948972315        2.07167408920932     
   2.13082236833195        2.22854834365528        2.29040581680087     
   2.41820346547900        2.62166574036982        2.66690741996561     
   2.98534427011020        3.70627720965248        3.90187121870588     
   4.14541295419310        4.19442769974176        4.28656434289494     
   4.42676881572316        4.71203200156828        4.75475217331468     
   5.27109508415932        5.83320551358702        6.06105321927293     
   6.11903414800074        6.19781829956258        6.34418658184789     
   6.49539852319931        7.11256003047488        7.92257291239905     
[...]
 Convergence information after    13 iterations: 
 Largest element of residual vector : -0.14421764E-05.
 Largest element of DIIS residual   : -0.13632976E-05.
 Convergence information after    14 iterations: 
 Largest element of residual vector : -0.89035400E-06.
 Largest element of DIIS residual   : -0.80696406E-06.
 Convergence information after    15 iterations: 
 Largest element of residual vector : -0.41867486E-06.
 Largest element of DIIS residual   : -0.25284519E-06.
 Convergence information after    16 iterations: 
 Largest element of residual vector : -0.15450994E-06.
 Largest element of DIIS residual   : -0.13201977E-06.
 Convergence information after    17 iterations: 
 Largest element of residual vector : -0.69329592E-07.
 Largest element of DIIS residual   : -0.61483647E-07.
 Perturbed amplitude equations converged in    17 iterations.
  Dominant contributions to perturbed wavefunction:
    7    7  140   45  -0.2290139122 ABAB
    7    7   45  140  -0.2290139122 ABAB
    7    7  140   22  -0.2123046098 ABAB
    7    7   22  140  -0.2123046098 ABAB
    7    7  140   39  -0.2114751284 ABAB
    7    7   39  140  -0.2114751284 ABAB
    7    7  140   28   0.2044908020 ABAB
    7    7   28  140   0.2044908020 ABAB
    7    0   35    0   0.1646297519 AA  
    7    7  140   29  -0.1622847007 ABAB
    7    7   29  140  -0.1622847007 ABAB
    7    7  140   57   0.1591224461 ABAB
    7    7   57  140   0.1591224461 ABAB
    7    7  140   54   0.1467769467 ABAB
    7    7   54  140   0.1467769467 ABAB
    7    6   45   89  -0.1433259908 ABAB
    6    7   89   45  -0.1433259908 ABAB
    7    0   39    0   0.1354191122 AA  
    7    7  140   16   0.1329940309 ABAB
    7    7   16  140   0.1329940309 ABAB
  norm of converged amps    1.70798409399066     
 Starting iterative solution of the perturbed Lambda equations.
 The DIIS procedure is used to accelerate convergence.
 Convergence criterion is 10**(-7).
 Maximum number of iterations is 100.
 Convergence information after     1 iterations: 
 Largest element of residual vector :  0.77121558E-01.
 Largest element of DIIS residual   :  0.77121558E-01.
 Convergence information after     2 iterations: 
 Largest element of residual vector :  0.15360039E-01.
 Largest element of DIIS residual   :  0.11649833E-01.
 Convergence information after     3 iterations: 
 Largest element of residual vector : -0.65114354E-02.
 Largest element of DIIS residual   : -0.61865869E-02.
 Convergence information after     4 iterations: 
 Largest element of residual vector : -0.38597407E-02.
 Largest element of DIIS residual   : -0.34718627E-02.
 Convergence information after     5 iterations: 
 Largest element of residual vector : -0.32224738E-02.
 Largest element of DIIS residual   : -0.24677607E-02.
 Convergence information after     6 iterations: 
 Largest element of residual vector : -0.16046276E-02.
 Largest element of DIIS residual   : -0.71347961E-03.
 Convergence information after     7 iterations: 
 Largest element of residual vector : -0.73657977E-03.
 Largest element of DIIS residual   : -0.34691903E-03.
 Convergence information after     8 iterations: 
 Largest element of residual vector : -0.24163200E-03.
 Largest element of DIIS residual   : -0.15657683E-03.
 Convergence information after     9 iterations: 
 Largest element of residual vector : -0.10189760E-03.
 Largest element of DIIS residual   : -0.46143304E-04.
 Convergence information after    10 iterations: 
 Largest element of residual vector : -0.41688189E-04.
 Largest element of DIIS residual   : -0.18688812E-04.
 Convergence information after    11 iterations: 
 Largest element of residual vector : -0.86377121E-05.
 Largest element of DIIS residual   : -0.48909584E-05.
 Convergence information after    12 iterations: 
 Largest element of residual vector : -0.24097158E-05.
 Largest element of DIIS residual   : -0.18596943E-05.
 Convergence information after    13 iterations: 
 Largest element of residual vector : -0.15666428E-05.
 Largest element of DIIS residual   : -0.13599590E-05.
 Convergence information after    14 iterations: 
 Largest element of residual vector : -0.66215089E-06.
 Largest element of DIIS residual   : -0.52890974E-06.
 Convergence information after    15 iterations: 
 Largest element of residual vector : -0.37617329E-06.
 Largest element of DIIS residual   : -0.14382786E-06.
 Convergence information after    16 iterations: 
 Largest element of residual vector : -0.89565326E-07.
 Largest element of DIIS residual   : -0.87002893E-07.
 Perturbed Lambda equations converged in    16 iterations.
  Dominant contributions to perturbed wavefunction:
    7    7  140   45  -0.1924030845 ABAB
    7    7   45  140  -0.1924030845 ABAB
    7    7  140   22  -0.1780571177 ABAB
    7    7   22  140  -0.1780571177 ABAB
    7    7  140   39  -0.1760279711 ABAB
    7    7   39  140  -0.1760279711 ABAB
    7    7  140   28   0.1741372088 ABAB
    7    7   28  140   0.1741372088 ABAB
    7    7  140   29  -0.1333270407 ABAB
    7    7   29  140  -0.1333270407 ABAB
    7    7  140   57   0.1326083895 ABAB
    7    7   57  140   0.1326083895 ABAB
    7    7  140   54   0.1240131242 ABAB
    7    7   54  140   0.1240131242 ABAB
    7    6   45   89  -0.1189495955 ABAB
    6    7   89   45  -0.1189495955 ABAB
    7    7  140   16   0.1097611989 ABAB
    7    7   16  140   0.1097611989 ABAB
    7    6   39   89  -0.1092142857 ABAB
    6    7   89   39  -0.1092142857 ABAB
        The DBOC first-order density matrix is being calculated 
             (Symmetry block 3, perturbation   2)
 term   3.09708901239819     
 final tnorm  0.808811187666793     
  norm contr. I: |<0|L dT/dx|0>|^2   0.000000000000000E+000
  norm contr. II: <0|[nabla(1+L)e-T][nabla e^T]|0>   3.09708901239819     
  total norm contribution   3.09708901239819     
 oo  8.762143820734772E-003
 vv  -23.1800426463021     
 vo  7.078835760416510E-002
  Correlated perturbed 1-el contribution to DBOC  -23.1004921448772       cm**-1
  SUM_I |dc_I/dx|^2 contribution to DBOC   11.6596407599918       cm**-1
 
 
  The total diagonal Born-Oppenheimer correction (DBOC) is:      0.0041409562 a.u.
  The total diagonal Born-Oppenheimer correction (DBOC) is:        908.834827 cm-1
 
 Total CC energy including DBOC  -113.102444974795     
 First-order density matrix is being calculated  (Symmetry block 3, perturbation   2)
 Calculation of the contributions of <pq||rs> to dI(i,j)/dx required   1.3 seconds.
 Calculation of the contributions of <pq||rs> to dI(a,b)/dx required  12.6 seconds.
 Calculation of the contributions of <pq||rs> to dI(i,a)/dx required   8.5 seconds.
 First-order Z-vector equations are solved for 1 perturbation.
 Convergence reached after  19 iterations.
        U*G(pq,rs) contribution is being calculated
             (Symmetry block 3, perturbation   2)

 CCSD contribution to force constants 

        0.0000000000        0.0000000000        0.0000000000
        0.0000000000        0.0000000000        0.0000000000
        0.0000000000        0.0000000000        0.0000000000
        0.0000000000        0.0000000000        0.0000000000
        0.0000000000        0.0000000000        0.0000000000
        0.0000000000        0.0000000000        0.0000000000
        0.0000000000        0.0000000000        0.0000000000
        0.0000000000        0.0000000000        0.0000000000
        0.0000000000        0.0000000000        0.0000000000
        0.0000000000        0.0000000000        0.0000000000
        0.0000000000        0.0000000000        0.0000000000
        0.0000000000       -3.3631819636        3.3631819636

 CCSD contribution to dipole derivatives 

        0.0000000000        0.0000000000        0.0000000000
        0.0000000000        0.0000000000        0.0000000000
        0.0000000000        0.0000000000        0.0000000000
        0.0000000000        0.0000000000       -0.0570933950
        0.0000000000        0.0000000000        0.0000000000
        0.0000000000        0.0000000000        0.0000000000
 @CHECKOUT-I, Total execution time (CPU/WALL):      986.09/     222.21 seconds.
--executable xsdcc finished with status     0 in      222.26 seconds (walltime).
 --invoking executable--
/nfs/workspaces/public/cfour_mpi/bin/xanti
 @GETMEM-I,  Allocated    3814 MB of main memory.
 CCSD MO derivative gammas will be sorted to Mulliken order.
 @CHECKOUT-I, Total execution time (CPU/WALL):        9.77/      26.35 seconds.
--executable xanti finished with status     0 in       26.38 seconds (walltime).
 --invoking executable--
/nfs/workspaces/public/cfour_mpi/bin/xbcktrn
 @GETMEM-I,  Allocated    3814 MB of main memory.
 CCSD MO derivative gammas will be transformed to the AO basis.
 @CHECKOUT-I, Total execution time (CPU/WALL):       17.47/       4.95 seconds.
--executable xbcktrn finished with status     0 in        4.98 seconds (walltime).
 --invoking executable--
/nfs/workspaces/public/cfour_mpi/bin/xvdint
 @GETMEM-I,  Allocated    3814 MB of main memory.
 One- and two-electron integral derivatives are calculated
 for RHF-CC/MBPT hessians and dipole derivatives.
 Spherical gaussians are used.
  magnet F F
                    8722  records have been written to the Sort file.
  Total length of Sort file :             178609116  words.
 Evaluation of 2el integral derivatives

                      Two-electron integral gradient
                      ------------------------------

                         C #1 z     0.0000000000
                         O #2 z     0.0000000000


 C #1       0.0000000000            0.0559038784            0.0000000000
 O #2       0.0000000000           -0.0559038784            0.0000000000


 Evaluation of 2e integral derivatives required  251.19 seconds.
  contribution to Hessian
        0.0000000000        0.0000000000        0.0000000000
        0.0000000000        0.0559038784       -0.0559038784
 @CHECKOUT-I, Total execution time (CPU/WALL):      251.18/      63.26 seconds.
--executable xvdint finished with status     0 in       63.29 seconds (walltime).
 --invoking executable--
/nfs/workspaces/public/cfour_mpi/bin/xanti
 @GETMEM-I,  Allocated    3814 MB of main memory.
 CCSD MO gammas will be sorted to Mulliken order.
 @CHECKOUT-I, Total execution time (CPU/WALL):       10.20/       8.77 seconds.
--executable xanti finished with status     0 in        8.80 seconds (walltime).
 --invoking executable--
/nfs/workspaces/public/cfour_mpi/bin/xbcktrn
 @GETMEM-I,  Allocated    3814 MB of main memory.
 CCSD MO gammas will be transformed to the AO basis.
 @CHECKOUT-I, Total execution time (CPU/WALL):       24.18/       6.05 seconds.
--executable xbcktrn finished with status     0 in        6.08 seconds (walltime).
 --invoking executable--
/nfs/workspaces/public/cfour_mpi/bin/xvdint
 @GETMEM-I,  Allocated    3814 MB of main memory.
 One- and two-electron integral derivatives are calculated
 for RHF-CC/MBPT hessians and dipole derivatives.
 Spherical gaussians are used.
  magnet F F

                     Kinetic energy integral gradient
                     --------------------------------

                         C #1 z    -0.5858244858
                         O #2 z     0.5858244858


 C #1       0.0000000000            0.0000000000           -0.5858244858
 O #2       0.0000000000            0.0000000000            0.5858244858



                   Nuclear attraction integral gradient
                   ------------------------------------

                         C #1 z    14.3964738985
                         O #2 z   -14.3964738985


 C #1       0.0000000000            0.0000000000           14.3964738985
 O #2       0.0000000000            0.0000000000          -14.3964738985



                      Reorthonormalization gradient
                      -----------------------------

                         C #1 z     0.0000000000
                         O #2 z     0.0000000000


 C #1       0.0000000000            0.0000000000            0.0000000000
 O #2       0.0000000000            0.0000000000            0.0000000000



                     Kinetic energy integral Hessian
                     -------------------------------


           Symmetry 1

           C #1 z      O #2 z

 C #1 z    0.612813
 O #2 z   -0.612813    0.612813


           Symmetry 2

           C #1 x      O #2 x

 C #1 x   -0.466735
 O #2 x    0.466735   -0.466735


           Symmetry 3

           C #1 y      O #2 y

 C #1 y   -0.466735
 O #2 y    0.466735   -0.466735




           C #1 x      C #1 y      C #1 z      O #2 x      O #2 y      O #2 z

 C #1 x   -0.466735
 C #1 y    0.000000   -0.466735
 C #1 z    0.000000    0.000000    0.612813

 O #2 x    0.466735    0.000000    0.000000   -0.466735
 O #2 y    0.000000    0.466735    0.000000    0.000000   -0.466735
 O #2 z    0.000000    0.000000   -0.612813    0.000000    0.000000    0.612813




                   Nuclear attraction integral Hessian
                   -----------------------------------


           Symmetry 1

           C #1 z      O #2 z

 C #1 z   -8.813102
 O #2 z    8.813102   -8.813102


           Symmetry 2

           C #1 x      O #2 x

 C #1 x    8.020932
 O #2 x   -8.020932    8.020932


           Symmetry 3

           C #1 y      O #2 y

 C #1 y    8.020932
 O #2 y   -8.020932    8.020932




           C #1 x      C #1 y      C #1 z      O #2 x      O #2 y      O #2 z

 C #1 x    8.020932
 C #1 y    0.000000    8.020932
 C #1 z    0.000000    0.000000   -8.813102

 O #2 x   -8.020932    0.000000    0.000000    8.020932
 O #2 y    0.000000   -8.020932    0.000000    0.000000    8.020932
 O #2 z    0.000000    0.000000    8.813102    0.000000    0.000000   -8.813102




                Highest order reorthonormalization Hessian
                ------------------------------------------


           Symmetry 1

           C #1 z      O #2 z

 C #1 z    0.000000
 O #2 z    0.000000    0.000000


           Symmetry 2

           C #1 x      O #2 x

 C #1 x    0.000000
 O #2 x    0.000000    0.000000


           Symmetry 3

           C #1 y      O #2 y

 C #1 y    0.000000
 O #2 y    0.000000    0.000000




           C #1 x      C #1 y      C #1 z      O #2 x      O #2 y      O #2 z




                Electronic contributions to dipole moment
                -----------------------------------------

                               au             Debye

                    z      0.44729156      1.13690193

  Conversion factor used: 1 a.u. =   2.54174691 Debye 



   Electronic contributions to static part of dipole moment derivatives
   --------------------------------------------------------------------


                     Total dipole moment derivatives
                     -------------------------------


           Symmetry 1
                              Ez

               C #1 z    -5.64931428
               O #2 z    -8.35068572

           Symmetry 2
                              Ex

               C #1 x    -5.67026953
               O #2 x    -8.32973047

           Symmetry 3
                              Ey

               C #1 y    -5.67026953
               O #2 y    -8.32973047



                       Ex          Ey          Ez

      C #1    x   -5.670270    0.000000    0.000000
      C #1    y    0.000000   -5.670270    0.000000
      C #1    z    0.000000    0.000000   -5.649314

      O #2    x   -8.329730    0.000000    0.000000
      O #2    y    0.000000   -8.329730    0.000000
      O #2    z    0.000000    0.000000   -8.350686

 Evaluation of 1e integral derivatives required    1.64 seconds.
                    8815  records have been written to the Sort file.
  Total length of Sort file :             180513570  words.
 Evaluation of 2el integral derivatives

                      Two-electron integral gradient
                      ------------------------------

                         C #1 z    -7.6190693153
                         O #2 z     7.6190693153


 C #1       0.0000000000            0.0000000000           -7.6190693153
 O #2       0.0000000000            0.0000000000            7.6190693153


 Evaluation of 2e integral derivatives required  551.37 seconds.

                            Molecular gradient
                            ------------------

                         C #1 z     0.6092657375
                         O #2 z    -0.6092657375


 C #1       0.0000000000            0.0000000000            0.6092657375
 O #2       0.0000000000            0.0000000000           -0.6092657375


  Molecular gradient norm 0.862E+00

                            Molecular hessian
                            -----------------


           Symmetry 1

           C #1 z      O #2 z

 C #1 z   18.610154
 O #2 z  -18.610154   18.610154


           Symmetry 2

           C #1 x      O #2 x

 C #1 x    3.567265
 O #2 x   -3.567265    3.567265


           Symmetry 3

           C #1 y      O #2 y

 C #1 y    3.567265
 O #2 y   -3.567265    3.567265




           C #1 x      C #1 y      C #1 z      O #2 x      O #2 y      O #2 z

 C #1 x    3.567265
 C #1 y    0.000000    3.567265
 C #1 z    0.000000    0.000000   18.610154

 O #2 x   -3.567265    0.000000    0.000000    3.567265
 O #2 y    0.000000   -3.567265    0.000000    0.000000    3.567265
 O #2 z    0.000000    0.000000  -18.610154    0.000000    0.000000   18.610154




                           Total dipole moment
                           -------------------

                               au             Debye

                    z      0.44409555      1.12877848

  Conversion factor used: 1 a.u. =   2.54174691 Debye 



                     Total dipole moment derivatives
                     -------------------------------


           Symmetry 1
                              Ez

               C #1 z     0.60628916
               O #2 z    -0.60628916

           Symmetry 2
                              Ex

               C #1 x     0.15705907
               O #2 x    -0.15705907

           Symmetry 3
                              Ey

               C #1 y     0.15705907
               O #2 y    -0.15705907



                       Ex          Ey          Ez

      C #1    x    0.157059    0.000000    0.000000
      C #1    y    0.000000    0.157059    0.000000
      C #1    z    0.000000    0.000000    0.606289

      O #2    x   -0.157059    0.000000    0.000000
      O #2    y    0.000000   -0.157059    0.000000
      O #2    z    0.000000    0.000000   -0.606289

 @CHECKOUT-I, Total execution time (CPU/WALL):      552.99/     100.90 seconds.
--executable xvdint finished with status     0 in      100.93 seconds (walltime).
 --invoking executable--
/nfs/workspaces/public/cfour_mpi/bin/xjoda
  @GTFLGS-I, Hessian will be transformed to curvilinear coordinates.
  @GTFLGS-I, Hessian will be transformed to curvilinear coordinates.
  igrd and ihes are                      0                     1
  gradient from JOBARC 
   0.000000000000000   0.000000000000000   0.609265737457376
   0.000000000000000   0.000000000000000  -0.609265737457376
 
  @PROJFCM-I, Projecting force constant matrix onto totally symmetric subspace.
  Largest difference between matrix elements of symmetrized
  and unsymmetrized FCM :     0.1184385923E-11.
  read isotopes from ZMAT file 
 
  Summary of diagonal Born-Oppenheimer correction at the correlated level
  The total diagonal Born-Oppenheimer correction (DBOC) is:      0.0041409562 a.u.
  The total diagonal Born-Oppenheimer correction (DBOC) is:        908.834827 cm-1
  The total diagonal Born-Oppenheimer correction (DBOC) is:            10.872 kJ/mole
  hellooooooo 
  readis is  F
 
 @CHECKOUT-I, Total execution time (CPU/WALL):        0.01/       0.01 seconds.
--executable xjoda finished with status     0 in        0.07 seconds (walltime).
  The final electronic energy is      -113.102444974795389 a.u. 
  This computation required                         2251.18 seconds (walltime).
