 --invoking executable--
/nfs/workspaces/public/cfour_mpi/bin/xjoda


   *************************************************************************
         <<<     CCCCCC     CCCCCC   |||     CCCCCC     CCCCCC   >>>
       <<<      CCC        CCC       |||    CCC        CCC         >>>
      <<<      CCC        CCC        |||   CCC        CCC            >>>
    <<<        CCC        CCC        |||   CCC        CCC              >>>
      <<<      CCC        CCC        |||   CCC        CCC            >>>
       <<<      CCC        CCC       |||    CCC        CCC         >>>
         <<<     CCCCCC     CCCCCC   |||     CCCCCC     CCCCCC   >>>
   *************************************************************************

     ****************************************************************
     * CFOUR Coupled-Cluster techniques for Computational Chemistry *
     ****************************************************************
 

   Department of Chemistry                Institut fuer Physikalische Chemie
   University of Florida                  Universitaet Mainz
   Gainesville, FL 32611, USA             D-55099 Mainz, Germany

   Department of Chemistry                Fakultaet fuer Chemie und Biowiss.
   Johns Hopkins University               Karlsruher Institut fuer Technologie
   Baltimore, MD 21218, USA               D-76131 Karlsruhe, Germany

   Department of Chemistry                Department of Physical Chemistry
   Southern Methodist University          Eotvos Lorand University
   Dallas, TX 75275, USA                  H-1053 Budapest, Hungary

 
                       Version 2.1
 
                     vincent.theory.phys.ucl.ac.uk                     
                     Tue 25 Feb 00:54:23 GMT 2025                      
                     integer*8 version is running
 
********************************************************************************
*                          Input from ZMAT file                                *
********************************************************************************
Carbon Monoxide DBOC calculation                                                
C                                                                               
O 1 r                                                                           
                                                                                
r=1.1482758620689655                                                            
                                                                                
                                                                                
*CFOUR(CALC=CCSD,BASIS=AUG-PCVQZ,SCF_CONV=10                                    
CC_CONV=14,DBOC=ON,MEMORY=500000000                                             
ZFIELD=200)                                                                     
                                                                                
%isotopes                                                                       
12                                                                              
16                                                                              
********************************************************************************
  @GTFLGS-I, Hessian will be transformed to curvilinear coordinates.
    -------------------------------------------------------------------
                    CFOUR Control Parameters 
    -------------------------------------------------------------------
        External           Internal           Value            Units
          Name               Name
    -------------------------------------------------------------------
       ABCDTYPE             IABCDT         STANDARD    [  0]    ***   
       ANHARMONIC           IANHAR         OFF         [  0]    ***   
       ANH_ALGORIT          IANALG         STANDARD    [  0]    ***   
       ANH_DERIVAT          IANDER         SECOND      [  1]    ***   
       ANH_MODE             ANHMOD         VIBRATION   [  0]    ***   
       ANH_STEPSIZ          ICUBST             50000          x 10-6  
       ANH_SYMMETR          IANHSM         ABELIAN     [  0]    ***   
       AO_LADDERS           IAOLAD         SINGLEPASS  [  1]    ***   
       AV_SCF               IAVSCF         OFF         [  0]    ***   
       BASIS                IBASIS         AUG-PCVQZ   [ 52]    ***   
       BOTHVECTORS          BOTHVC         OFF         [  0]    ***   
       BOX_POTENT           IPIAB          OFF         [  0]    ***   
       BREIT                IBREIT         OFF         [  0]    ***   
       BRUCK_CONV           IBRTOL          10D-  4             ***   
       BRUECKNER            IBRKNR         OFF         [  0]    ***   
       BUFFERSIZE           IBUFFS              4096            ***   
       CACHE_RECS           ICHREC             10               ***   
       CALCLEVEL            ICLLVL         CCSD        [ 10]    ***   
       CCORBOPT             ICCORB         OFF         [  0]  x 0.01  
       CC_CONV              ICCCNV          10D- 14             ***   
       CC_EXPORDER          ICCEOR              5               ***   
       CC_EXTRAPOL          ICCEXT         DIIS        [  1]    ***   
       CC_GUESS             ICCGES         MP2         [  0]    ***   
       CC_MAXCYC            ICCCYC            100              cycles 
       CC_PROGRAM           ICCPRO         VCC         [  0]    ***   
       CHARGE               ICHRGE              0               ***   
       CHOLESKY             ICHOLE         OFF         [  0]    ***   
       CIS_CONV             ICISTL              5               ***   
       COMM_SIZE            IPSIZE            ***               ***   
       CONSTANT             ICONST         OLD         [  1]    ***   
       CONTINUUM            ICONTU         NONE        [  0]    ***   
       CONTRACTION          ICNTYP         GENERAL     [  1]    ***   
       COORDINATES          ICOORD         INTERNAL    [  0]    ***   
       CPHF_CONVER          ICPHFT          10D- 16             ***   
       CPHF_MAXCYC          ICPHFC             64              cycles 
       CUBIC                ICUBIC         OFF         [  0]    ***   
       CURVILINEAR          ICURVY         ON          [  1]    ***   
       DBOC                 IDBOC          ON          [  1]    ***   
       DCT                  IDCT           OFF         [  0]    ***   
       DERIV_LEV            IDRLVL         SECOND      [  2]    ***   
       DEVMEM_SIZE          IDVMEM          50000000           MByte  
       DIAG_MRCC            IEOMST          10D-  0             ***   
       DIFF_TYPE            IDIFTY         RELAXED     [  0]    ***   
       DIRECT               IDIRCT         OFF         [  0]    ***   
       DROPMO               IDRPMO      NONE         
       ECP                  IECP           OFF         [  0]    ***   
       EIGENVECTOR          IVEC                1               ***   
       EL_ANHARM            IELANH         OFF         [  0]    ***   
       EOMFOLLOW            IEOMSR         ENERGY      [  0]    ***   
       EOMIP                IEOMIP         OFF         [  0]    ***   
       EOMLEVEL             HBARFM         SAME        [  0]    ***   
       EOM_MRCC             IMRCCE         NEW         [  1]    ***   
       EOM_NONIT            EOMNON         OFF         [  0]    ***   
       EOM_NSING            IEOMSI          10D-  0             ***   
       EOM_NSTATES          IMRCCD         DAVIDSON    [  0]    ***   
       EOM_NTRIP            IEOMTR          10D-  0             ***   
       EOM_ORDER            IEXORD         ENERGY      [  0]    ***   
       EOM_PROPSTA          IEOMST              0               ***   
       ESTATE_CONV          IEXTOL          10D-  5             ***   
       ESTATE_DIAG          IEXDIG         ITERATIVE   [  0]    ***   
       ESTATE_LOCK          IESLOC         ON          [  1]    ***   
       ESTATE_MAXC          IEXMXC             40               ***   
       ESTATE_PROP          IEXPRP         OFF         [  0]    ***   
       EVAL_HESS            IRECAL              0            # of cyc.
       EXCITATION           IEXCIT              0               ***   
       EXCITE               IEXCIT         NONE        [  0]    ***   
       EXTERN_POT           IEXPOT         OFF         [  0]    ***   
       FCGRADNEW            IFCGNW         OFF         [  0]    ***   
       FC_FIELD             IFINFC              0             x 10-6  
       FD_CALTYPE           IFDCAL         GRADONLY    [  0]    ***   
       FD_PROJECT           IFDPRJ         OFF         [  1]    ***   
       FD_STEPSIZE          IDISFD              0            10-4 bohr
       FD_USEGROUP          IFDGRP         FULL        [  0]    ***   
       FILE_RECSIZ          IFLREC              4096           words  
       FINITE_PERT          IFIPER              0             x 10-6  
       FIXGEOM              IFIXGM         OFF         [  0]    ***   
       FOCK                 IFOCK          AO          [  1]    ***   
       FREQ_ALGORI          IVIALG         STANDARD    [  0]    ***   
       FROZEN_CORE          IFROCO         OFF         [  0]    ***   
       GAMMA_ABCD           IGABCD         STORE       [  0]    ***   
       GAMMA_ABCI           IGABCI         STORE       [  0]    ***   
       GENBAS_1             IGNBS1              0               ***   
       GENBAS_2             IGNBS2              0               ***   
       GENBAS_3             IGNBS3              0               ***   
       GENBAS_4             IGNBS4              0               ***   
       GEO_CONV             ICONTL              5              H/bohr 
       GEO_MAXCYC           IOPTCY             50               ***   
       GEO_MAXSTEP          IMXSTP            300            millibohr
       GEO_METHOD           INR            SINGLE_POINT[  5]    ***   
       GIAO                 IGIAO          OFF         [  1]    ***   
       GIMIC                IGIMIC         OFF         [  0]    ***   
       GRID                 IGRID          OFF         [  0]    ***   
       GRID_ALGO            IGALGO         SERIAL      [  0]    ***   
       GUESS                IGUESS         MOREAD      [  0]    ***   
       HBAR                 IHBAR          OFF         [  0]    ***   
       HESS_TYPE            IHESTP         SCF         [  0]    ***   
       HF2_FILE             IHF2Fl         USE         [  1]    ***   
       HFSTABILITY          ISTABL         OFF         [  0]    ***   
       INCORE               INCORE         OFF         [  0]    ***   
       INPUT_MRCC           IMRCC          ON          [  1]    ***   
       INTEGRALS            INTTYP         VMOL        [  1]    ***   
       JODA_PRINT           IJPRNT              0               ***   
       KEYWORD_OUT          IDMPKW         NO          [  0]    ***   
       LINDEP_TOL           ILINDP              8               ***   
       LINEQ_CONV           IZTACN          10D-  7           cycles  
       LINEQ_EXPOR          ILMAXD              5               ***   
       LINEQ_MAXCY          ILMAXC            100               ***   
       LINEQ_TYPE           ILTYPE         DIIS        [  1]    ***   
       LOCK_ORBOCC          ILOCOC         OFF         [  0]    ***   
       MEMORY_SIZE          IMEMSZ         500000000           words  
       MEM_UNIT             IMEMU          INTEGERWORDS[  0]    ***   
       MRCC                 IMRCCC         OFF         [  0]    ***   
       MULTIPLICTY          IMULTP              1               ***   
       NACOUPLING           IVCOUP         OFF         [  0]    ***   
       NEGEVAL              IDIE           ABORT       [  0]    ***   
       NEWNORM              INEWNO         OFF         [  0]    ***   
       NON-HF               INONHF         OFF         [  0]    ***   
       NTOP_TAMP            ITOPT2             15               ***   
       NUC_MODEL            INUCMO         POINT       [  0]    ***   
       OCCUPATION           IOCCU   ESTIMATED BY SCF 
       OPEN-SHELL           IOPEN          SPIN-ORBITAL[  0]    ***   
       OPTVIB               IOPTVB         OFF         [  0]    ***   
       ORBITALS             IORBTP         STANDARD    [  0]    ***   
       PARALLEL             IPARAL         ON          [  1]    ***   
       PARA_INT             IPINTS         ON          [  1]    ***   
       PARA_PRINT           IPPRIN              0               ***   
       PERT_ORB             IPTORB         STANDARD    [  0]    ***   
       POINTS               IGRDFD              0               ***   
       PRINT                IPRNT               0               ***   
       PROPS                IPROPS         OFF         [  0]    ***   
       PROP_INTEGR          IINTYP         INTERNAL    [  0]    ***   
       PSI                  IPSI           OFF         [  0]    ***   
       QC_ALG               IQCALG         FLM         [  0]    ***   
       QC_LINALG            IQCLIN         TRIDIAG     [  2]    ***   
       QC_MAXCYC            IQCMAX          10D-100           cycles  
       QC_MAXSCFCY          IQCMSC          10D- 15           cycles  
       QC_RTRUST            IQCRTR          10D-  0           x 10-3  
       QC_SKIPSCF           IQCSKI         OFF         [  0]    ***   
       QC_START             IQCSTA          10D-  1             ***   
       QRHFGUESS            IQGUES         OFF         [  0]    ***   
       QUARTIC              IQUART         OFF         [  0]    ***   
       RAMAN_INT            IRAMIN         OFF         [  0]    ***   
       RAMAN_ORB            IRAMRE         UNRELAXED   [  0]    ***   
       RDO                  IRDOFM         ON          [  1]    ***   
       REDUCE_REPR          REDREP         Ir          [  0]    ***   
       REFERENCE            IREFNC         RHF         [  0]    ***   
       RELATIVIST           IRELAT         OFF         [  0]    ***   
       RELAX_DENS           IRDENS         ON          [  1]    ***   
       RESET_FLAGS          IRESET         OFF         [  0]    ***   
       RESTART_CC           ICCRES         OFF         [  0]    ***   
       ROT_EVEC             ROTVEC              0               ***   
       SAVE_INTS            ISVINT         OFF         [  0]    ***   
       SCALE_ON             ISTCRT              0               ***   
       SCF_CONV             ISCFCV          10D- 10             ***   
       SCF_DAMPING          IDAMP               0             x 10-3  
       SCF_EXPORDE          IRPPOR              6               ***   
       SCF_EXPSTAR          IRPPLS              8               ***   
       SCF_EXTRAPO          IRPP           ON          [  1]    ***   
       SCF_MAXCYC           ISCFCY            150              cycles 
       SCF_NOSTOP           ISCFST         OFF         [  0]    ***   
       SCF_PRINT            ISCFPR              0               ***   
       SCF_PROG             ISCFPR         SCF         [  0]    ***   
       SD_FIELD             IFINSD              0             x 10-6  
       SOPERT               IPERSO         OFF         [  0]    ***   
       SPHERICAL            IDFGHI         ON          [  1]    ***   
       SPINORBIT            ISOCAL         OFF         [  0]    ***   
       SPINROTATIO          ISRCON         OFF         [  0]    ***   
       SPIN_FLIP            ISPFLP         OFF         [  0]    ***   
       SPIN_ORBIT           ISPORB         OFF         [  0]    ***   
       SPIN_SCAL            ISCSMP         OFF         [  0]    ***   
       STEEPSCALE           ISTPSC              1000          x 10-3  
       SUBGROUP             ISUBGP         DEFAULT     [  0]    ***   
       SUBGRPAXIS           ISBXYZ         X           [  0]    ***   
       SYMMETRY             ISYM           ON          [  0]    ***   
       SYM_CHECK            ISYMCK         OVERRIDE    [  1]    ***   
       T3_EXTRAPOL          IT3EXT         OFF         [  0]    ***   
       T4_EXTRAPOL          IT4EXP         OFF         [  0]    ***   
       TAMP_SUM             IEVERY              5               ***   
       TESTSUITE            ITESTS         OFF         [  0]    ***   
       THERMOCH             ITHERM         OFF         [  0]    ***   
       TOL_CHOLESK          ITOLCH          10D-  4             ***   
       TRANGRAD             IRESRM         OFF         [  0]    ***   
       TRANS_INV            ITRAIN         IGNORE      [  1]    ***   
       TREAT_PERT           ITREAT         SIMULTANEOUS[  0]    ***   
       TRIP_ALGORI          ITRALG         NORMAL      [  0]    ***   
       UIJ_THRESHO          IUIJTH              1               ***   
       UNITS                IUNITS         ANGSTROM    [  0]    ***   
       UNOS                 IUNOS          OFF         [  0]    ***   
       UPDATE_HESS          IHUPDT         ON          [  1]    ***   
       VIBPHASE             ISETPH         STANDARD    [  0]    ***   
       VIBRATION            IVIB           ANALYTIC    [  1]    ***   
       VIB_ALGORIT          IGEALG         STANDARD    [  0]    ***   
       VNATORB              IVNORB         OFF         [  0]    ***   
       VTRAN                IVTRAN         FULL/PARTIAL[  0]    ***   
       XFIELD               IXEFLD              0             x 10-6  
       XFORM_TOL            IXFTOL          10D- 11             ***   
       YFIELD               IYEFLD              0             x 10-6  
       ZFIELD               IZEFLD            200             x 10-6  
       ZSCALE_EXP           IZEXPS         OFF         [  0]    ***   
    -------------------------------------------------------------------
   2 entries found in Z-matrix 
   Job Title : Carbon Monoxide DBOC calculation                                                
   There are  1 unique internal coordinates.
   Of these,  0 will be optimized.
   User supplied Z-matrix: 
--------------------------------------------------------------------------------
       SYMBOL    BOND      LENGTH    ANGLE     ANGLE     DIHED     ANGLE
                  TO      (ANGST)    WRT      (DEG)      WRT      (DEG)
--------------------------------------------------------------------------------
        C    
        O          1         r    
                  *Initial values for internal coordinates* 
                      Name             Value
                        r               1.1482758621
--------------------------------------------------------------------------------
  read isotopes from ZMAT file 
   Rotational constants (in cm-1): 
          1.8647476087             1.8647476087
   Rotational constants (in MHz): 
      55903.7347489792         55903.7347489792
********************************************************************************
   The full molecular point group is CXv .
   The largest Abelian subgroup of the full molecular point group is C2v .
   The computational point group is C2v .
********************************************************************************
--------------------------------------------------------------------------------
   Analysis of internal coordinates specified by Z-matrix 
--------------------------------------------------------------------------------
   *The nuclear repulsion energy is   22.120556252252253 a.u.
   *There is   1 degree of freedom within the tot. symm. molecular subspace.
   *Z-matrix requests optimization of   0 coordinates.
   *The optimization is constrained.
   *The following   1 parameters can have non-zero 
    derivatives within the totally symmetric subspace:
             r    [ 1]
   *The following   0 parameters are to be optimized:

   *The following coordinates must be varied in an  unconstrained optimization.
             r    [ 1]
--------------------------------------------------------------------------------


 ----------------------------------------------------------------
         Coordinates used in calculation (QCOMP) 
 ----------------------------------------------------------------
 Z-matrix   Atomic            Coordinates (in bohr)
  Symbol    Number           X              Y              Z
 ----------------------------------------------------------------
     C         6        -0.00000000     0.00000000     1.23978955
     O         8         0.00000000     0.00000000    -0.93013780
 ----------------------------------------------------------------
 
   Interatomic distance matrix (Angstroms) 
 
                 C             O    
                [ 1]        [ 2]
  C    [ 1]     0.00000
  O    [ 2]     1.14828     0.00000
 rotcon2
   Rotational constants (in cm-1): 
          1.8647476087             0.0000000000
   Rotational constants (in MHz): 
      55903.7347489792             0.0000000000
  ECPDATA file not present.   Using default ECPDATA. 
  @GTFLGS-I, Hessian will be transformed to curvilinear coordinates.
  There are  218 basis functions.
 @CHECKOUT-I, Total execution time (CPU/WALL):        0.09/       0.14 seconds.
--executable xjoda finished with status     0 in        0.15 seconds (walltime).
 --invoking executable--
/nfs/workspaces/public/cfour_mpi/bin/xvmol
 SERIAL VERSION OF MOLECULE STARTED
********************************************************************************
                    INPUT FROM MOL FILE
********************************************************************************
INTGRL        1    0    1    0    0    0    0    0    0                         
         *** CFOUR Program System (Release V0.1) ***                            
Carbon Monoxide DBOC calculation                                                
    2    2 X  Y       0.10E-08              0    0                              
   9999.00      3.00                                                            
          6.00000000    1    5    1    1    1    1    1                         
C #1  -0.000000000000000   0.000000000000000   1.239789553523708                
   16    9                                                                      
   33980.0000000000       9.100000000000000E-005 -1.900000000000000E-005        
  0.000000000000000E+000  0.000000000000000E+000  0.000000000000000E+000        
  0.000000000000000E+000  0.000000000000000E+000  0.000000000000000E+000        
  0.000000000000000E+000                                                        
   5089.00000000000       7.040000000000000E-004 -1.510000000000000E-004        
  0.000000000000000E+000  0.000000000000000E+000  0.000000000000000E+000        
  0.000000000000000E+000  0.000000000000000E+000  0.000000000000000E+000        
  0.000000000000000E+000                                                        
   1157.00000000000       3.693000000000000E-003 -7.850000000000000E-004        
  0.000000000000000E+000  0.000000000000000E+000  0.000000000000000E+000        
  0.000000000000000E+000  0.000000000000000E+000  0.000000000000000E+000        
  0.000000000000000E+000                                                        
   326.600000000000       1.536000000000000E-002 -3.324000000000000E-003        
  0.000000000000000E+000  0.000000000000000E+000  0.000000000000000E+000        
  0.000000000000000E+000  0.000000000000000E+000  0.000000000000000E+000        
  0.000000000000000E+000                                                        
   106.100000000000       5.292900000000000E-002 -1.151200000000000E-002        
  0.000000000000000E+000  0.000000000000000E+000  0.000000000000000E+000        
  0.000000000000000E+000  0.000000000000000E+000  0.000000000000000E+000        
  0.000000000000000E+000                                                        
   38.1100000000000       0.147043000000000      -3.416000000000000E-002        
  0.000000000000000E+000  0.000000000000000E+000  0.000000000000000E+000        
  0.000000000000000E+000  0.000000000000000E+000  0.000000000000000E+000        
  0.000000000000000E+000                                                        
   14.7500000000000       0.305631000000000      -7.717300000000001E-002        
  0.000000000000000E+000  0.000000000000000E+000  0.000000000000000E+000        
  0.000000000000000E+000  0.000000000000000E+000  0.000000000000000E+000        
  0.000000000000000E+000                                                        
   6.03500000000000       0.399345000000000      -0.141493000000000             
  0.000000000000000E+000  0.000000000000000E+000  0.000000000000000E+000        
  0.000000000000000E+000  0.000000000000000E+000  0.000000000000000E+000        
  0.000000000000000E+000                                                        
   2.53000000000000       0.217051000000000      -0.118019000000000             
  0.000000000000000E+000  0.000000000000000E+000  0.000000000000000E+000        
  0.000000000000000E+000  0.000000000000000E+000  0.000000000000000E+000        
  0.000000000000000E+000                                                        
  0.735500000000000       1.589400000000000E-002  0.273806000000000             
   1.00000000000000       0.000000000000000E+000  0.000000000000000E+000        
  0.000000000000000E+000  0.000000000000000E+000  0.000000000000000E+000        
  0.000000000000000E+000                                                        
  0.290500000000000      -3.084000000000000E-003  0.586510000000000             
  0.000000000000000E+000   1.00000000000000       0.000000000000000E+000        
  0.000000000000000E+000  0.000000000000000E+000  0.000000000000000E+000        
  0.000000000000000E+000                                                        
  0.111100000000000       9.779999999999999E-004  0.285430000000000             
  0.000000000000000E+000  0.000000000000000E+000   1.00000000000000             
  0.000000000000000E+000  0.000000000000000E+000  0.000000000000000E+000        
  0.000000000000000E+000                                                        
   7.21600000000000       0.000000000000000E+000  0.000000000000000E+000        
  0.000000000000000E+000  0.000000000000000E+000  0.000000000000000E+000        
   1.00000000000000       0.000000000000000E+000  0.000000000000000E+000        
  0.000000000000000E+000                                                        
   19.5700000000000       0.000000000000000E+000  0.000000000000000E+000        
  0.000000000000000E+000  0.000000000000000E+000  0.000000000000000E+000        
  0.000000000000000E+000   1.00000000000000       0.000000000000000E+000        
  0.000000000000000E+000                                                        
   53.0730000000000       0.000000000000000E+000  0.000000000000000E+000        
  0.000000000000000E+000  0.000000000000000E+000  0.000000000000000E+000        
  0.000000000000000E+000  0.000000000000000E+000   1.00000000000000             
  0.000000000000000E+000                                                        
  4.145000000000000E-002  0.000000000000000E+000  0.000000000000000E+000        
  0.000000000000000E+000  0.000000000000000E+000  0.000000000000000E+000        
  0.000000000000000E+000  0.000000000000000E+000  0.000000000000000E+000        
   1.00000000000000                                                             
   10    8                                                                      
   34.5100000000000       5.378000000000000E-003  0.000000000000000E+000        
  0.000000000000000E+000  0.000000000000000E+000  0.000000000000000E+000        
  0.000000000000000E+000  0.000000000000000E+000  0.000000000000000E+000        
   7.91500000000000       3.613200000000000E-002  0.000000000000000E+000        
  0.000000000000000E+000  0.000000000000000E+000  0.000000000000000E+000        
  0.000000000000000E+000  0.000000000000000E+000  0.000000000000000E+000        
   2.36800000000000       0.142493000000000       0.000000000000000E+000        
  0.000000000000000E+000  0.000000000000000E+000  0.000000000000000E+000        
  0.000000000000000E+000  0.000000000000000E+000  0.000000000000000E+000        
  0.813200000000000       0.342150000000000        1.00000000000000             
  0.000000000000000E+000  0.000000000000000E+000  0.000000000000000E+000        
  0.000000000000000E+000  0.000000000000000E+000  0.000000000000000E+000        
  0.289000000000000       0.463864000000000       0.000000000000000E+000        
   1.00000000000000       0.000000000000000E+000  0.000000000000000E+000        
  0.000000000000000E+000  0.000000000000000E+000  0.000000000000000E+000        
  0.100700000000000       0.250028000000000       0.000000000000000E+000        
  0.000000000000000E+000   1.00000000000000       0.000000000000000E+000        
  0.000000000000000E+000  0.000000000000000E+000  0.000000000000000E+000        
   8.18200000000000       0.000000000000000E+000  0.000000000000000E+000        
  0.000000000000000E+000  0.000000000000000E+000   1.00000000000000             
  0.000000000000000E+000  0.000000000000000E+000  0.000000000000000E+000        
   24.1860000000000       0.000000000000000E+000  0.000000000000000E+000        
  0.000000000000000E+000  0.000000000000000E+000  0.000000000000000E+000        
   1.00000000000000       0.000000000000000E+000  0.000000000000000E+000        
   71.4940000000000       0.000000000000000E+000  0.000000000000000E+000        
  0.000000000000000E+000  0.000000000000000E+000  0.000000000000000E+000        
  0.000000000000000E+000   1.00000000000000       0.000000000000000E+000        
  3.218000000000000E-002  0.000000000000000E+000  0.000000000000000E+000        
  0.000000000000000E+000  0.000000000000000E+000  0.000000000000000E+000        
  0.000000000000000E+000  0.000000000000000E+000   1.00000000000000             
    6    6                                                                      
   1.84800000000000        1.00000000000000       0.000000000000000E+000        
  0.000000000000000E+000  0.000000000000000E+000  0.000000000000000E+000        
  0.000000000000000E+000                                                        
  0.649000000000000       0.000000000000000E+000   1.00000000000000             
  0.000000000000000E+000  0.000000000000000E+000  0.000000000000000E+000        
  0.000000000000000E+000                                                        
  0.228000000000000       0.000000000000000E+000  0.000000000000000E+000        
   1.00000000000000       0.000000000000000E+000  0.000000000000000E+000        
  0.000000000000000E+000                                                        
   8.65600000000000       0.000000000000000E+000  0.000000000000000E+000        
  0.000000000000000E+000   1.00000000000000       0.000000000000000E+000        
  0.000000000000000E+000                                                        
   33.2130000000000       0.000000000000000E+000  0.000000000000000E+000        
  0.000000000000000E+000  0.000000000000000E+000   1.00000000000000             
  0.000000000000000E+000                                                        
  7.660000000000000E-002  0.000000000000000E+000  0.000000000000000E+000        
  0.000000000000000E+000  0.000000000000000E+000  0.000000000000000E+000        
   1.00000000000000                                                             
    4    4                                                                      
   1.41900000000000        1.00000000000000       0.000000000000000E+000        
  0.000000000000000E+000  0.000000000000000E+000                                
  0.485000000000000       0.000000000000000E+000   1.00000000000000             
  0.000000000000000E+000  0.000000000000000E+000                                
   24.6940000000000       0.000000000000000E+000  0.000000000000000E+000        
   1.00000000000000       0.000000000000000E+000                                
  0.187000000000000       0.000000000000000E+000  0.000000000000000E+000        
  0.000000000000000E+000   1.00000000000000                                     
    2    2                                                                      
   1.01100000000000        1.00000000000000       0.000000000000000E+000        
  0.424000000000000       0.000000000000000E+000   1.00000000000000             
          8.00000000    1    5    1    1    1    1    1                         
O #2   0.000000000000000   0.000000000000000  -0.930137796070531                
   16    9                                                                      
   61420.0000000000       9.000000000000001E-005 -2.000000000000000E-005        
  0.000000000000000E+000  0.000000000000000E+000  0.000000000000000E+000        
  0.000000000000000E+000  0.000000000000000E+000  0.000000000000000E+000        
  0.000000000000000E+000                                                        
   9199.00000000000       6.980000000000001E-004 -1.590000000000000E-004        
  0.000000000000000E+000  0.000000000000000E+000  0.000000000000000E+000        
  0.000000000000000E+000  0.000000000000000E+000  0.000000000000000E+000        
  0.000000000000000E+000                                                        
   2091.00000000000       3.664000000000000E-003 -8.290000000000000E-004        
  0.000000000000000E+000  0.000000000000000E+000  0.000000000000000E+000        
  0.000000000000000E+000  0.000000000000000E+000  0.000000000000000E+000        
  0.000000000000000E+000                                                        
   590.900000000000       1.521800000000000E-002 -3.508000000000000E-003        
  0.000000000000000E+000  0.000000000000000E+000  0.000000000000000E+000        
  0.000000000000000E+000  0.000000000000000E+000  0.000000000000000E+000        
  0.000000000000000E+000                                                        
   192.300000000000       5.242300000000000E-002 -1.215600000000000E-002        
  0.000000000000000E+000  0.000000000000000E+000  0.000000000000000E+000        
  0.000000000000000E+000  0.000000000000000E+000  0.000000000000000E+000        
  0.000000000000000E+000                                                        
   69.3200000000000       0.145921000000000      -3.626100000000000E-002        
  0.000000000000000E+000  0.000000000000000E+000  0.000000000000000E+000        
  0.000000000000000E+000  0.000000000000000E+000  0.000000000000000E+000        
  0.000000000000000E+000                                                        
   26.9700000000000       0.305258000000000      -8.299200000000000E-002        
  0.000000000000000E+000  0.000000000000000E+000  0.000000000000000E+000        
  0.000000000000000E+000  0.000000000000000E+000  0.000000000000000E+000        
  0.000000000000000E+000                                                        
   11.1000000000000       0.398508000000000      -0.152090000000000             
  0.000000000000000E+000  0.000000000000000E+000  0.000000000000000E+000        
  0.000000000000000E+000  0.000000000000000E+000  0.000000000000000E+000        
  0.000000000000000E+000                                                        
   4.68200000000000       0.216980000000000      -0.115331000000000             
  0.000000000000000E+000  0.000000000000000E+000  0.000000000000000E+000        
  0.000000000000000E+000  0.000000000000000E+000  0.000000000000000E+000        
  0.000000000000000E+000                                                        
   1.42800000000000       1.759400000000000E-002  0.288979000000000             
   1.00000000000000       0.000000000000000E+000  0.000000000000000E+000        
  0.000000000000000E+000  0.000000000000000E+000  0.000000000000000E+000        
  0.000000000000000E+000                                                        
  0.554700000000000      -2.502000000000000E-003  0.586128000000000             
  0.000000000000000E+000   1.00000000000000       0.000000000000000E+000        
  0.000000000000000E+000  0.000000000000000E+000  0.000000000000000E+000        
  0.000000000000000E+000                                                        
  0.206700000000000       9.540000000000000E-004  0.277624000000000             
  0.000000000000000E+000  0.000000000000000E+000   1.00000000000000             
  0.000000000000000E+000  0.000000000000000E+000  0.000000000000000E+000        
  0.000000000000000E+000                                                        
   12.9740000000000       0.000000000000000E+000  0.000000000000000E+000        
  0.000000000000000E+000  0.000000000000000E+000  0.000000000000000E+000        
   1.00000000000000       0.000000000000000E+000  0.000000000000000E+000        
  0.000000000000000E+000                                                        
   34.9000000000000       0.000000000000000E+000  0.000000000000000E+000        
  0.000000000000000E+000  0.000000000000000E+000  0.000000000000000E+000        
  0.000000000000000E+000   1.00000000000000       0.000000000000000E+000        
  0.000000000000000E+000                                                        
   93.8810000000000       0.000000000000000E+000  0.000000000000000E+000        
  0.000000000000000E+000  0.000000000000000E+000  0.000000000000000E+000        
  0.000000000000000E+000  0.000000000000000E+000   1.00000000000000             
  0.000000000000000E+000                                                        
  6.959000000000000E-002  0.000000000000000E+000  0.000000000000000E+000        
  0.000000000000000E+000  0.000000000000000E+000  0.000000000000000E+000        
  0.000000000000000E+000  0.000000000000000E+000  0.000000000000000E+000        
   1.00000000000000                                                             
   10    8                                                                      
   63.4200000000000       6.044000000000000E-003  0.000000000000000E+000        
  0.000000000000000E+000  0.000000000000000E+000  0.000000000000000E+000        
  0.000000000000000E+000  0.000000000000000E+000  0.000000000000000E+000        
   14.6600000000000       4.179900000000000E-002  0.000000000000000E+000        
  0.000000000000000E+000  0.000000000000000E+000  0.000000000000000E+000        
  0.000000000000000E+000  0.000000000000000E+000  0.000000000000000E+000        
   4.45900000000000       0.161143000000000       0.000000000000000E+000        
  0.000000000000000E+000  0.000000000000000E+000  0.000000000000000E+000        
  0.000000000000000E+000  0.000000000000000E+000  0.000000000000000E+000        
   1.53100000000000       0.356731000000000        1.00000000000000             
  0.000000000000000E+000  0.000000000000000E+000  0.000000000000000E+000        
  0.000000000000000E+000  0.000000000000000E+000  0.000000000000000E+000        
  0.530200000000000       0.448309000000000       0.000000000000000E+000        
   1.00000000000000       0.000000000000000E+000  0.000000000000000E+000        
  0.000000000000000E+000  0.000000000000000E+000  0.000000000000000E+000        
  0.175000000000000       0.244940000000000       0.000000000000000E+000        
  0.000000000000000E+000   1.00000000000000       0.000000000000000E+000        
  0.000000000000000E+000  0.000000000000000E+000  0.000000000000000E+000        
   14.4750000000000       0.000000000000000E+000  0.000000000000000E+000        
  0.000000000000000E+000  0.000000000000000E+000   1.00000000000000             
  0.000000000000000E+000  0.000000000000000E+000  0.000000000000000E+000        
   42.7300000000000       0.000000000000000E+000  0.000000000000000E+000        
  0.000000000000000E+000  0.000000000000000E+000  0.000000000000000E+000        
   1.00000000000000       0.000000000000000E+000  0.000000000000000E+000        
   126.140000000000       0.000000000000000E+000  0.000000000000000E+000        
  0.000000000000000E+000  0.000000000000000E+000  0.000000000000000E+000        
  0.000000000000000E+000   1.00000000000000       0.000000000000000E+000        
  5.348000000000000E-002  0.000000000000000E+000  0.000000000000000E+000        
  0.000000000000000E+000  0.000000000000000E+000  0.000000000000000E+000        
  0.000000000000000E+000  0.000000000000000E+000   1.00000000000000             
    6    6                                                                      
   3.77500000000000        1.00000000000000       0.000000000000000E+000        
  0.000000000000000E+000  0.000000000000000E+000  0.000000000000000E+000        
  0.000000000000000E+000                                                        
   1.30000000000000       0.000000000000000E+000   1.00000000000000             
  0.000000000000000E+000  0.000000000000000E+000  0.000000000000000E+000        
  0.000000000000000E+000                                                        
  0.444000000000000       0.000000000000000E+000  0.000000000000000E+000        
   1.00000000000000       0.000000000000000E+000  0.000000000000000E+000        
  0.000000000000000E+000                                                        
   14.9270000000000       0.000000000000000E+000  0.000000000000000E+000        
  0.000000000000000E+000   1.00000000000000       0.000000000000000E+000        
  0.000000000000000E+000                                                        
   57.5440000000000       0.000000000000000E+000  0.000000000000000E+000        
  0.000000000000000E+000  0.000000000000000E+000   1.00000000000000             
  0.000000000000000E+000                                                        
  0.154000000000000       0.000000000000000E+000  0.000000000000000E+000        
  0.000000000000000E+000  0.000000000000000E+000  0.000000000000000E+000        
   1.00000000000000                                                             
    4    4                                                                      
   2.66600000000000        1.00000000000000       0.000000000000000E+000        
  0.000000000000000E+000  0.000000000000000E+000                                
  0.859000000000000       0.000000000000000E+000   1.00000000000000             
  0.000000000000000E+000  0.000000000000000E+000                                
   26.4830000000000       0.000000000000000E+000  0.000000000000000E+000        
   1.00000000000000       0.000000000000000E+000                                
  0.324000000000000       0.000000000000000E+000  0.000000000000000E+000        
  0.000000000000000E+000   1.00000000000000                                     
    2    2                                                                      
   1.84600000000000        1.00000000000000       0.000000000000000E+000        
  0.714000000000000       0.000000000000000E+000   1.00000000000000             
FINISH                                                                          
 
********************************************************************************
 ONE- AND TWO-ELECTRON INTEGRALS OVER SYMMETRY-ADAPTED AOS ARE CALCULATED.

  SPHERICAL HARMONICS ARE USED.
  
  INTEGRALS LESS THAN  0.10E-13 ARE NEGLECTED.

  NUCLEAR REPULSION ENERGY :   22.1205562523 A.U.
  @MOLECU-I, ONE ELECTRON INTEGRALS (CPU/WALL):        0.05/       0.07 SECONDS.
  @TWOEL-I,    4587150 INTEGRALS OF SYMMETRY TYPE  I I I I
  @TWOEL-I,   19695843 INTEGRALS OF SYMMETRY TYPE  I J I J
  @TWOEL-I,   10379244 INTEGRALS OF SYMMETRY TYPE  I I J J
  @TWOEL-I,   14572659 INTEGRALS OF SYMMETRY TYPE  I J K L
  @TWOEL-I, TOTAL NUMBER OF 2-E INTEGRALS   49234896.
  @MOLECU-I, TWO ELECTRON INTEGRALS (CPU/WALL):      179.92/      24.78 SECONDS.
 @CHECKOUT-I, Total execution time (CPU/WALL):      179.98/      24.86 seconds.

Running with 14 threads/proc

--executable xvmol finished with status     0 in       24.88 seconds (walltime).
 --invoking executable--
/nfs/workspaces/public/cfour_mpi/bin/xvmol2ja
 @GETMEM-I,  Allocated    3814 MB of main memory.
 @CHECKOUT-I, Total execution time (CPU/WALL):        0.14/       0.05 seconds.
--executable xvmol2ja finished with status     0 in        0.07 seconds (walltime).
 --invoking executable--
/nfs/workspaces/public/cfour_mpi/bin/xvprop
 @GETMEM-I,  Allocated    3814 MB of main memory.
   Property integrals will be calculated.
    --------------------------------------------------------------
                                   Property evaluated at 
    Property type                X             Y             Z
    --------------------------------------------------------------
    Dipole moment               ----          ----          ----  
    Quadrupole moment           ----          ----          ----  
    Octopole moment             ----          ----          ----  
    Relativisitic corr.         ----          ----          ----  
    Second moment            0.0000000     0.0000000     0.0000000
    Electron density         0.0000000     0.0000000     1.2397896
    Electron density         0.0000000     0.0000000    -0.9301378
    Field gradient           0.0000000     0.0000000     1.2397896
    Field gradient           0.0000000     0.0000000    -0.9301378
    Potential                0.0000000     0.0000000     1.2397896
    Potential                0.0000000     0.0000000    -0.9301378
    --------------------------------------------------------------
 @CHECKOUT-I, Total execution time (CPU/WALL):        1.31/       1.34 seconds.
--executable xvprop finished with status     0 in        1.35 seconds (walltime).
 --invoking executable--
/nfs/workspaces/public/cfour_mpi/bin/xvscf
  There are  218 functions in the AO basis.

  There are 4 irreducible representations.

       Irrep        # of functions
         1                 86
         2                 52
         3                 52
         4                 28


  Parameters for SCF calculation: 
        SCF reference function:  RHF  
  Maximum number of iterations:  150
     Full symmetry point group: CXv 
     Computational point group: C2v 
        Initial density matrix: MOREAD                 
     SCF convergence tolerance: 10**(-10)
  DIIS convergence acceleration:  ON
          Latest start for DIIS:   8
                     DIIS order:   6

  Memory information:    2523578 words required.
  Fock matrices are constructed from AO integral file.
 @GETMEM-I,  Allocated      19 MB of main memory.
  Initialization and symmetry analysis required      0.001 seconds.

  Adding electric field perturbation to one-electron Hamiltonian.
  Field direction     : Z
  Field strength      :  0.0002000 a.u.

  @INITGES-I, Occupancies from core Hamiltonian:

          Alpha population by irrep:   5    1    1    0
           Beta population by irrep:   5    1    1    0


 total no. of electrons in initial guess :  0.000000000000000E+000
  --------------------------------------------------------------------
  Iteration         Total Energy            Largest Density Difference
  --------------------------------------------------------------------
       0            22.120556725261732              0.0000000000D+00
   current occupation vector 
     5  1  1  0
     5  1  1  0
       1           -91.942570069771435              0.1859407489D+02
   current occupation vector 
     5  1  1  0
     5  1  1  0
       2           -96.887087538421625              0.1858969130D+02
   current occupation vector 
     5  1  1  0
     5  1  1  0
       3          -103.410608439643255              0.1733878128D+02
   current occupation vector 
     5  1  1  0
     5  1  1  0
       4          -100.320372706650616              0.7515822841D+01
   current occupation vector 
     5  1  1  0
     5  1  1  0
       5          -103.224324598755061              0.7028066039D+01
   current occupation vector 
     5  1  1  0
     5  1  1  0
       6          -100.207195984806859              0.5827587025D+01
   current occupation vector 
     5  1  1  0
     5  1  1  0
       7          -103.099746702242882              0.5667212136D+01
   current occupation vector 
     5  1  1  0
     5  1  1  0
       8          -100.014508040462005              0.5655583746D+01
   current occupation vector 
     5  1  1  0
     5  1  1  0
       9          -110.680627772587087              0.4262545715D+01
   current occupation vector 
     5  1  1  0
     5  1  1  0
      10          -112.232077653524129              0.9238464658D+00
   current occupation vector 
     5  1  1  0
     5  1  1  0
      11          -112.766979334498018              0.5189760525D+00
   current occupation vector 
     5  1  1  0
     5  1  1  0
      12          -112.785184733034470              0.1151213350D+00
   current occupation vector 
     5  1  1  0
     5  1  1  0
      13          -112.785701333928785              0.2690407642D-01
   current occupation vector 
     5  1  1  0
     5  1  1  0
      14          -112.785798973738338              0.1472693550D-01
   current occupation vector 
     5  1  1  0
     5  1  1  0
      15          -112.785804964460482              0.4874719021D-02
   current occupation vector 
     5  1  1  0
     5  1  1  0
      16          -112.785805026775762              0.4341485383D-03
   current occupation vector 
     5  1  1  0
     5  1  1  0
      17          -112.785805028522333              0.4829382028D-04
   current occupation vector 
     5  1  1  0
     5  1  1  0
      18          -112.785805028569712              0.9127484006D-05
   current occupation vector 
     5  1  1  0
     5  1  1  0
      19          -112.785805028572298              0.1743334214D-05
   current occupation vector 
     5  1  1  0
     5  1  1  0
      20          -112.785805028571644              0.3363093073D-06
   current occupation vector 
     5  1  1  0
     5  1  1  0
      21          -112.785805028573009              0.4387053476D-07
   current occupation vector 
     5  1  1  0
     5  1  1  0
      22          -112.785805028571275              0.1107796122D-07
   current occupation vector 
     5  1  1  0
     5  1  1  0
      23          -112.785805028571986              0.6092500948D-08
   current occupation vector 
     5  1  1  0
     5  1  1  0
      24          -112.785805028571616              0.1694072105D-09
   current occupation vector 
     5  1  1  0
     5  1  1  0
      25          -112.785805028572128              0.1264777172D-09
   current occupation vector 
     5  1  1  0
     5  1  1  0
      26          -112.785805028571900              0.1145081807D-09
   current occupation vector 
     5  1  1  0
     5  1  1  0
      27          -112.785805028572213              0.1813422468D-09
   current occupation vector 
     5  1  1  0
     5  1  1  0
      28          -112.785805028570877              0.2245553743D-09
   current occupation vector 
     5  1  1  0
     5  1  1  0

  SCF has converged.

 Density matrix saved to file den.dat
 total electron number:   14.0000000000001     
     E(SCF)=      -112.785805028571161              0.3542643956D-10

  Eigenvector printing suppressed.

 @PUTMOS-I, Writing converged MOs to NEWMOS. 
 @PUTMOS-I, Symmetry   1 Full Blocks 21 Partial Blocksize   2
 @PUTMOS-I, Symmetry   2 Full Blocks 13 Partial Blocksize   0
 @PUTMOS-I, Symmetry   3 Full Blocks 13 Partial Blocksize   0
 @PUTMOS-I, Symmetry   4 Full Blocks  7 Partial Blocksize   0
 @PUTFOCK-I, Writing converged Fock matrix to NEWFOCK. 
 @PUTFOCK-I, Symmetry   1 Full Blocks 21 Partial Blocksize   2
 @PUTFOCK-I, Symmetry   2 Full Blocks 13 Partial Blocksize   0
 @PUTFOCK-I, Symmetry   3 Full Blocks 13 Partial Blocksize   0
 @PUTFOCK-I, Symmetry   4 Full Blocks  7 Partial Blocksize   0


 
  ORBITAL EIGENVALUES (ALPHA)  (1H = 27.2113834 eV)

       MO #        E(hartree)               E(eV)           FULLSYM    COMPSYM
       ----   --------------------   --------------------   -------   ---------
    1     1         -20.6658172778        -562.3454772210     SG+        A1 (1)
    2     2         -11.3693242254        -309.3750404957     SG+        A1 (1)
    3     3          -1.5079407080         -41.0331527502     SG+        A1 (1)
    4     4          -0.8029329883         -21.8489173882     SG+        A1 (1)
    5   139          -0.6317357839         -17.1904046241      PI        B2 (3)
    6    87          -0.6317357839         -17.1904046241      PI        B1 (2)
    7     5          -0.5569576759         -15.1555888574     SG+        A1 (1)
  +++++++++++++++++++++++++++++++++++++++++++++++++++++++++++++++++++++++++++++
    8     6           0.0600082996           1.6329088476     SG+        A1 (1)
    9    88           0.0625256508           1.7014094557      PI        B1 (2)
   10   140           0.0625256508           1.7014094557      PI        B2 (3)
   11     7           0.0752996929           2.0490088126     SG+        A1 (1)
   12    89           0.1362861013           3.7085333558      PI        B1 (2)
   13   141           0.1362861013           3.7085333558      PI        B2 (3)
   14     8           0.1560014792           4.2450160618     SG+        A1 (1)
   15    90           0.1661719970           4.5217699198      PI        B1 (2)
   16   142           0.1661719970           4.5217699198      PI        B2 (3)
   17     9           0.2280580981           6.2057763442     SG+        A1 (1)
   18   191           0.2280949333           6.2067786812      DE        A2 (4)
   19    10           0.2280949333           6.2067786812      DE        A1 (1)
   20    11           0.3013202619           8.1993411738     SG+        A1 (1)
   21    91           0.3190684163           8.6822930080      PI        B1 (2)
   22   143           0.3190684163           8.6822930080      PI        B2 (3)
   23    12           0.3914547694          10.6520258138     SG+        A1 (1)
   24    92           0.3955086423          10.7623373041      PI        B1 (2)
   25   144           0.3955086423          10.7623373041      PI        B2 (3)
   26    13           0.5082145855          13.8292219368     SG+        A1 (1)
   27   192           0.5357671881          14.5789663685      DE        A2 (4)
   28    14           0.5357671881          14.5789663685      DE        A1 (1)
   29   145           0.6234066281          16.9637567718      PI        B2 (3)
   30    93           0.6234066281          16.9637567718      PI        B1 (2)
   31    15           0.6391008897          17.3908193422     SG+        A1 (1)
   32   146           0.7485902032          20.3701750283      PH        B2 (3)
   33    94           0.7485902032          20.3701750283      PH        B1 (2)
   34   193           0.7680631320          20.9000603594      DE        A2 (4)
   35    16           0.7680631320          20.9000603594      DE        A1 (1)
   36    17           0.7794030683          21.2086357133     SG+        A1 (1)
   37    95           0.8212978454          22.3486505571      PI        B1 (2)
   38   147           0.8212978454          22.3486505571      PI        B2 (3)
   39    18           0.8711179742          23.7043251823     SG+        A1 (1)
   40    96           0.8826060792          24.0169324131      PI        B1 (2)
   41   148           0.8826060792          24.0169324132      PI        B2 (3)
   42   194           0.8900221168          24.2187330546      DE        A2 (4)
   43    19           0.8900221168          24.2187330547      DE        A1 (1)
   44    20           0.9006577315          24.5081428438     SG+        A1 (1)
   45    97           1.0725956281          29.1868108700      PI        B1 (2)
   46   149           1.0725956281          29.1868108700      PI        B2 (3)
   47    21           1.1814235867          32.1481701756     SG+        A1 (1)
   48   150           1.4459894434          39.3473731366      PH        B2 (3)
   49    98           1.4459894434          39.3473731366      PH        B1 (2)
   50    22           1.4663746334          39.9020823571     SG+        A1 (1)
   51   195           1.5206395172          41.3787049160      DE        A2 (4)
   52    23           1.5206395172          41.3787049161      DE        A1 (1)
   53   151           1.5566551678          42.3587405924      PI        B2 (3)
   54    99           1.5566551678          42.3587405924      PI        B1 (2)
   55    24           1.6674749684          45.3743006752     SG+        A1 (1)
   56   196           1.7664721097          48.0681498416      DE        A2 (4)
   57    25           1.7664721097          48.0681498416      DE        A1 (1)
   58    26           1.7771798025          48.3595209777     SG+        A1 (1)
   59   100           1.7900296632          48.7091834627      PI        B1 (2)
   60   152           1.7900296632          48.7091834627      PI        B2 (3)
   61   101           1.9775442317          53.8117142795      PI        B1 (2)
   62   153           1.9775442317          53.8117142796      PI        B2 (3)
   63   197           2.1044686857          57.2655042606      PI        A2 (4)
   64    27           2.1044686857          57.2655042606      PI        A1 (1)
   65    28           2.1232743273          57.7772317835     SG+        A1 (1)
   66   198           2.1920614997          59.6490259046      DE        A2 (4)
   67    29           2.1920614997          59.6490259046      DE        A1 (1)
   68   102           2.2504073668          61.2366976643      PH        B1 (2)
   69   154           2.2504073668          61.2366976643      PH        B2 (3)
   70    30           2.3142640445          62.9743262039     SG+        A1 (1)
   71   103           2.3212071226          63.1632569630      PI        B1 (2)
   72   155           2.3212071226          63.1632569630      PI        B2 (3)
   73   104           2.3559708464          64.1092259802      PH        B1 (2)
   74   156           2.3559708464          64.1092259802      PH        B2 (3)
   75   199           2.3615888170          64.2620987339      DE        A2 (4)
   76    31           2.3615888171          64.2620987339      DE        A1 (1)
   77    32           2.4836254643          67.5828847310     SG+        A1 (1)
   78   105           2.5938409474          70.5820004986      PI        B1 (2)
   79   157           2.5938409474          70.5820004986      PI        B2 (3)
   80   158           2.8139344168          76.5710482776      PI        B2 (3)
   81   106           2.8139344168          76.5710482776      PI        B1 (2)
   82    33           2.9146424246          79.3114524908     SG+        A1 (1)
   83    34           2.9925164008          81.4305111125      DE        A1 (1)
   84   200           2.9925164008          81.4305111125      DE        A2 (4)
   85    35           3.4798388537          94.6912292190     SG+        A1 (1)
   86    36           3.7201345934         101.2300087193      PI        A1 (1)
   87   201           3.7201345934         101.2300087193      PI        A2 (4)
   88   159           3.7442196478         101.8853963704      PI        B2 (3)
   89   107           3.7442196478         101.8853963704      PI        B1 (2)
   90    37           3.9399507690         107.2115109523     SG+        A1 (1)
   91   108           4.0843666549         111.1412669934      PH        B1 (2)
   92   160           4.0843666549         111.1412669934      PH        B2 (3)
   93   202           4.1778743227         113.6857399931      DE        A2 (4)
   94    38           4.1778743227         113.6857399931      DE        A1 (1)
   95   161           4.2093316459         114.5417372746      PI        B2 (3)
   96   109           4.2093316459         114.5417372746      PI        B1 (2)
   97   110           4.2626502812         115.9926111016      PH        B1 (2)
   98   162           4.2626502812         115.9926111016      PH        B2 (3)
   99    39           4.2661514982         116.0878840589     SG+        A1 (1)
  100    40           4.3731233969         118.9987374099      DE        A1 (1)
  101   203           4.3731233969         118.9987374099      DE        A2 (4)
  102    41           4.5037604199         122.5535515269     SG+        A1 (1)
  103   163           4.7692616242         129.7782065897      PI        B2 (3)
  104   111           4.7692616242         129.7782065897      PI        B1 (2)
  105    42           5.0397623239         137.1389048415     SG+        A1 (1)
  106   164           5.0997580803         138.7714723709      PI        B2 (3)
  107   112           5.0997580803         138.7714723709      PI        B1 (2)
  108   204           5.1395821054         139.8551391851      DE        A2 (4)
  109    43           5.1395821054         139.8551391851      DE        A1 (1)
  110    44           5.7810562748         157.3105387501     SG+        A1 (1)
  111   165           5.7934371788         157.6474402766      PI        B2 (3)
  112   113           5.7934371788         157.6474402766      PI        B1 (2)
  113    45           5.8981381387         160.4964982375      PI        A1 (1)
  114   205           5.8981381387         160.4964982375      PI        A2 (4)
  115   166           6.1173059740         166.4603582349      PH        B2 (3)
  116   114           6.1173059740         166.4603582349      PH        B1 (2)
  117    46           6.2357738151         169.6840320778     SG+        A1 (1)
  118   206           6.2994533154         171.4168393744      DE        A2 (4)
  119    47           6.2994533154         171.4168393744      DE        A1 (1)
  120   167           6.3228484473         172.0534532795      PI        B2 (3)
  121   115           6.3228484473         172.0534532796      PI        B1 (2)
  122   168           6.4398553282         175.2373723756      PH        B2 (3)
  123   116           6.4398553282         175.2373723756      PH        B1 (2)
  124    48           6.5809417143         179.0765281218      DE        A1 (1)
  125   207           6.5809417143         179.0765281218      DE        A2 (4)
  126    49           7.0115223209         190.7932220916     SG+        A1 (1)
  127   208           7.2753126139         197.9713208912      DE        A2 (4)
  128    50           7.2753126139         197.9713208913      DE        A1 (1)
  129   169           7.4461483197         202.6199967810      PI        B2 (3)
  130   117           7.4461483197         202.6199967810      PI        B1 (2)
  131    51           7.7626939630         211.2336416442     SG+        A1 (1)
  132    52           8.2058220651         223.2917703246     SG+        A1 (1)
  133   170           8.4276036459         229.3267539520      PI        B2 (3)
  134   118           8.4276036459         229.3267539521      PI        B1 (2)
  135   171          10.1223406726         275.4428929476      PI        B2 (3)
  136   119          10.1223406726         275.4428929476      PI        B1 (2)
  137    53          10.5659118769         287.5130790522     SG+        A1 (1)
  138   209          10.6028131169         288.5172128417      PI        A2 (4)
  139    54          10.6028131169         288.5172128417      PI        A1 (1)
  140   172          10.8690716796         295.7624766750      PH        B2 (3)
  141   120          10.8690716796         295.7624766750      PH        B1 (2)
  142   210          11.1175146582         302.5229538205      DE        A2 (4)
  143    55          11.1175146582         302.5229538205      DE        A1 (1)
  144    56          11.1298825059         302.8595000661     SG+        A1 (1)
  145   173          11.3620974895         309.1783910146      PI        B2 (3)
  146   121          11.3620974895         309.1783910146      PI        B1 (2)
  147    57          11.5442504398         314.1350247831     SG+        A1 (1)
  148   122          11.8549023317         322.5882925171      PH        B1 (2)
  149   174          11.8549023317         322.5882925171      PH        B2 (3)
  150    58          12.2725168037         333.9521600288      DE        A1 (1)
  151   211          12.2725168037         333.9521600291      DE        A2 (4)
  152   123          12.6167415273         343.3189909594      PI        B1 (2)
  153   175          12.6167415273         343.3189909594      PI        B2 (3)
  154    59          12.8648108085         350.0692992790      DE        A1 (1)
  155   212          12.8648108085         350.0692992790      DE        A2 (4)
  156    60          13.2438843789         360.3844155398     SG+        A1 (1)
  157   124          14.0776660152         383.0727673173      PI        B1 (2)
  158   176          14.0776660152         383.0727673173      PI        B2 (3)
  159    61          15.4814199851         421.2708547898     SG+        A1 (1)
  160    62          18.0209922621         490.3761296913     SG+        A1 (1)
  161   177          19.3757231288         527.2402307093      PI        B2 (3)
  162   125          19.3757231288         527.2402307096      PI        B1 (2)
  163    63          20.6244848104         561.2207636030     SG+        A1 (1)
  164   213          26.5185599517         721.6067020606      DE        A2 (4)
  165    64          26.5185599517         721.6067020606      DE        A1 (1)
  166   178          26.9864955402         734.3398767655      PI        B2 (3)
  167   126          26.9864955402         734.3398767656      PI        B1 (2)
  168    65          28.1563746355         766.1739053610     SG+        A1 (1)
  169   179          33.7889970979         919.4453547334      PI        B2 (3)
  170   127          33.7889970979         919.4453547337      PI        B1 (2)
  171    66          34.9592800081         951.2903716881     SG+        A1 (1)
  172    67          36.7525397648        1000.0874504635     SG+        A1 (1)
  173   214          47.1181236816        1282.1493285890      DE        A2 (4)
  174    68          47.1181236816        1282.1493285890      DE        A1 (1)
  175   180          47.6722137462        1297.2268857741      PI        B2 (3)
  176   128          47.6722137462        1297.2268857741      PI        B1 (2)
  177    69          48.5377994722        1320.7806708313     SG+        A1 (1)
  178    70          64.2035352353        1747.0670129222     SG+        A1 (1)
  179   181          66.8249627438        1818.3996819123      PI        B2 (3)
  180   129          66.8249627438        1818.3996819126      PI        B1 (2)
  181    71          67.7950558945        1844.7972585689     SG+        A1 (1)
  182   130          98.6672497320        2684.8723614818      PH        B1 (2)
  183   182          98.6672497320        2684.8723614818      PH        B2 (3)
  184   215          98.6885235492        2685.4512514777      DE        A2 (4)
  185    72          98.6885235492        2685.4512514777      DE        A1 (1)
  186   131          98.7540370545        2687.2339645888      PI        B1 (2)
  187   183          98.7540370545        2687.2339645888      PI        B2 (3)
  188    73          98.7660500618        2687.5608551340     SG+        A1 (1)
  189   132         103.2836512315        2810.4910326114      PH        B1 (2)
  190   184         103.2836512315        2810.4910326114      PH        B2 (3)
  191    74         103.3318344801        2811.8021654645      DE        A1 (1)
  192   216         103.3318344802        2811.8021654653      DE        A2 (4)
  193   133         103.3597156763        2812.5608513819      PI        B1 (2)
  194   185         103.3597156763        2812.5608513820      PI        B2 (3)
  195    75         103.4169438146        2814.1181081951     SG+        A1 (1)
  196   217         115.1755073678        3134.0848892746      DE        A2 (4)
  197    76         115.1755073678        3134.0848892746      DE        A1 (1)
  198   186         115.4042723914        3140.3099020407      PI        B2 (3)
  199   134         115.4042723914        3140.3099020407      PI        B1 (2)
  200    77         116.0011032229        3156.5504946209     SG+        A1 (1)
  201   187         117.0388904157        3184.7901198132      PI        B2 (3)
  202   135         117.0388904158        3184.7901198136      PI        B1 (2)
  203    78         118.0082596691        3211.1679982233     SG+        A1 (1)
  204    79         122.8803914765        3343.7454448085     SG+        A1 (1)
  205   218         198.5762518846        5403.5345241659      DE        A2 (4)
  206    80         198.5762518846        5403.5345241661      DE        A1 (1)
  207   188         198.8757589702        5411.6845263034      PI        B2 (3)
  208   136         198.8757589702        5411.6845263038      PI        B1 (2)
  209    81         199.3078327456        5423.4418514634     SG+        A1 (1)
  210    82         216.6826801397        5896.2354854203     SG+        A1 (1)
  211   189         225.2400664215        6129.0938044366      PI        B2 (3)
  212   137         225.2400664215        6129.0938044368      PI        B1 (2)
  213    83         226.0359182668        6150.7500341297     SG+        A1 (1)
  214   190         395.4972020675       10762.0259990870      PI        B2 (3)
  215   138         395.4972020676       10762.0259990876      PI        B1 (2)
  216    84         396.3017626098       10783.9192044710     SG+        A1 (1)
  217    85         509.4248370519       13862.1545545005     SG+        A1 (1)
  218    86         895.5123374422       24368.1295535688     SG+        A1 (1)


  VSCF finished.

 @CHECKOUT-I, Total execution time (CPU/WALL):       51.26/       9.99 seconds.
--executable xvscf finished with status     0 in       10.00 seconds (walltime).
 --invoking executable--
/nfs/workspaces/public/cfour_mpi/bin/xvtran
 @GETMEM-I,  Allocated    3814 MB of main memory.
  Full RHF integral transformation
  Transformation of IIII integrals :
  1 pass through the AO integral file was required.
     4587150 AO integrals were read.
     8829889 MO integrals were written to HF2.
  Transformation of IIJJ integrals :
  1 pass through the AO integral file was required.
    10379244 AO integrals were read.
    14639071 MO integrals were written to HF2.
  Transformation of IJIJ integrals :
  1 pass through the AO integral file was required.
    19695843 AO integrals were read.
    27558792 MO integrals were written to HF2.
  Transformation of IJKL integrals :
  1 pass through the AO integral file was required.
    14572659 AO integrals were read.
    18622043 MO integrals were written to HF2.
  Summary of active molecular orbitals: 
------------------------------------------------------------------------
 
  Index      Eigenvalue    Symmetry    Index      Eigenvalue    Symmetry
------------------------------------------------------------------------
     1       -20.6658173        1       110         4.2093316        2
     2       -11.3693242        1       111         4.2626503        2
     3        -1.5079407        1       112         4.7692616        2
     4        -0.8029330        1       113         5.0997581        2
     5        -0.5569577        1       114         5.7934372        2
     6        -0.6317358        2       115         6.1173060        2
     7        -0.6317358        3       116         6.3228484        2
     8         0.0600083        1       117         6.4398553        2
     9         0.0752997        1       118         7.4461483        2
    10         0.1560015        1       119         8.4276036        2
    11         0.2280581        1       120        10.1223407        2
    12         0.2280949        1       121        10.8690717        2
    13         0.3013203        1       122        11.3620975        2
    14         0.3914548        1       123        11.8549023        2
    15         0.5082146        1       124        12.6167415        2
    16         0.5357672        1       125        14.0776660        2
    17         0.6391009        1       126        19.3757231        2
    18         0.7680631        1       127        26.9864955        2
    19         0.7794031        1       128        33.7889971        2
    20         0.8711180        1       129        47.6722137        2
    21         0.8900221        1       130        66.8249627        2
    22         0.9006577        1       131        98.6672497        2
    23         1.1814236        1       132        98.7540371        2
    24         1.4663746        1       133       103.2836512        2
    25         1.5206395        1       134       103.3597157        2
    26         1.6674750        1       135       115.4042724        2
    27         1.7664721        1       136       117.0388904        2
    28         1.7771798        1       137       198.8757590        2
    29         2.1044687        1       138       225.2400664        2
    30         2.1232743        1       139       395.4972021        2
    31         2.1920615        1       140         0.0625257        3
    32         2.3142640        1       141         0.1362861        3
    33         2.3615888        1       142         0.1661720        3
    34         2.4836255        1       143         0.3190684        3
    35         2.9146424        1       144         0.3955086        3
    36         2.9925164        1       145         0.6234066        3
    37         3.4798389        1       146         0.7485902        3
    38         3.7201346        1       147         0.8212978        3
    39         3.9399508        1       148         0.8826061        3
    40         4.1778743        1       149         1.0725956        3
    41         4.2661515        1       150         1.4459894        3
    42         4.3731234        1       151         1.5566552        3
    43         4.5037604        1       152         1.7900297        3
    44         5.0397623        1       153         1.9775442        3
    45         5.1395821        1       154         2.2504074        3
    46         5.7810563        1       155         2.3212071        3
    47         5.8981381        1       156         2.3559708        3
    48         6.2357738        1       157         2.5938409        3
    49         6.2994533        1       158         2.8139344        3
    50         6.5809417        1       159         3.7442196        3
    51         7.0115223        1       160         4.0843667        3
    52         7.2753126        1       161         4.2093316        3
    53         7.7626940        1       162         4.2626503        3
    54         8.2058221        1       163         4.7692616        3
    55        10.5659119        1       164         5.0997581        3
    56        10.6028131        1       165         5.7934372        3
    57        11.1175147        1       166         6.1173060        3
    58        11.1298825        1       167         6.3228484        3
    59        11.5442504        1       168         6.4398553        3
    60        12.2725168        1       169         7.4461483        3
    61        12.8648108        1       170         8.4276036        3
    62        13.2438844        1       171        10.1223407        3
    63        15.4814200        1       172        10.8690717        3
    64        18.0209923        1       173        11.3620975        3
    65        20.6244848        1       174        11.8549023        3
    66        26.5185600        1       175        12.6167415        3
    67        28.1563746        1       176        14.0776660        3
    68        34.9592800        1       177        19.3757231        3
    69        36.7525398        1       178        26.9864955        3
    70        47.1181237        1       179        33.7889971        3
    71        48.5377995        1       180        47.6722137        3
    72        64.2035352        1       181        66.8249627        3
    73        67.7950559        1       182        98.6672497        3
    74        98.6885235        1       183        98.7540371        3
    75        98.7660501        1       184       103.2836512        3
    76       103.3318345        1       185       103.3597157        3
    77       103.4169438        1       186       115.4042724        3
    78       115.1755074        1       187       117.0388904        3
    79       116.0011032        1       188       198.8757590        3
    80       118.0082597        1       189       225.2400664        3
    81       122.8803915        1       190       395.4972021        3
    82       198.5762519        1       191         0.2280949        4
    83       199.3078327        1       192         0.5357672        4
    84       216.6826801        1       193         0.7680631        4
    85       226.0359183        1       194         0.8900221        4
    86       396.3017626        1       195         1.5206395        4
    87       509.4248371        1       196         1.7664721        4
    88       895.5123374        1       197         2.1044687        4
    89         0.0625257        2       198         2.1920615        4
    90         0.1362861        2       199         2.3615888        4
    91         0.1661720        2       200         2.9925164        4
    92         0.3190684        2       201         3.7201346        4
    93         0.3955086        2       202         4.1778743        4
    94         0.6234066        2       203         4.3731234        4
    95         0.7485902        2       204         5.1395821        4
    96         0.8212978        2       205         5.8981381        4
    97         0.8826061        2       206         6.2994533        4
    98         1.0725956        2       207         6.5809417        4
    99         1.4459894        2       208         7.2753126        4
   100         1.5566552        2       209        10.6028131        4
   101         1.7900297        2       210        11.1175147        4
   102         1.9775442        2       211        12.2725168        4
   103         2.2504074        2       212        12.8648108        4
   104         2.3212071        2       213        26.5185600        4
   105         2.3559708        2       214        47.1181237        4
   106         2.5938409        2       215        98.6885235        4
   107         2.8139344        2       216       103.3318345        4
   108         3.7442196        2       217       115.1755074        4
   109         4.0843667        2       218       198.5762519        4
------------------------------------------------------------------------
  -20.6658172778175       -11.3693242253776       -1.50794070801418     
 -0.802932988266874      -0.556957675934730      -0.631735783934058     
 -0.631735783934075       6.000829959929311E-002  7.529969287086147E-002
  0.156001479213339       0.228058098074822       0.228094933286088     
  0.301320261937442       0.391454769396271       0.508214585545920     
  0.535767188098213       0.639100889749001       0.768063131967980     
  0.779403068251843       0.871117974190688       0.890022116798271     
  0.900657731492336        1.18142358670418        1.46637463338565     
   1.52063951721220        1.66747496840685        1.76647210967006     
   1.77717980254219        2.10446868572496        2.12327432729737     
   2.19206149969426        2.31426404450701        2.36158881705017     
   2.48362546429649        2.91464242464141        2.99251640078440     
   3.47983885372635        3.72013459335095        3.93995076899727     
   4.17787432274110        4.26615149815840        4.37312339694908     
   4.50376041987239        5.03976232393702        5.13958210537482     
   5.78105627478488        5.89813813866907        6.23577381507857     
   6.29945331535120        6.58094171433327        7.01152232089856     
   7.27531261388616        7.76269396300543        8.20582206506425     
   10.5659118768724        10.6028131168699        11.1175146582415     
   11.1298825059397        11.5442504398033        12.2725168037144     
[...]
 Convergence information after     9 iterations: 
 Largest element of residual vector : -0.94765202E-05.
 Largest element of DIIS residual   :  0.48897354E-05.
 Convergence information after    10 iterations: 
 Largest element of residual vector :  0.57186186E-05.
 Largest element of DIIS residual   :  0.38813084E-05.
 Convergence information after    11 iterations: 
 Largest element of residual vector :  0.22847373E-05.
 Largest element of DIIS residual   :  0.79071209E-06.
 Convergence information after    12 iterations: 
 Largest element of residual vector :  0.93789778E-06.
 Largest element of DIIS residual   :  0.43107961E-06.
 Convergence information after    13 iterations: 
 Largest element of residual vector :  0.33242337E-06.
 Largest element of DIIS residual   :  0.20867877E-06.
 Convergence information after    14 iterations: 
 Largest element of residual vector :  0.16944612E-06.
 Largest element of DIIS residual   :  0.86439548E-07.
 Perturbed amplitude equations converged in    14 iterations.
  Dominant contributions to perturbed wavefunction:
    7    7  141   28   0.2265068352 ABAB
    7    7   28  141   0.2265068352 ABAB
    7    7  141   37   0.2052961027 ABAB
    7    7   37  141   0.2052961027 ABAB
    7    7  141   55   0.1763171167 ABAB
    7    7   55  141   0.1763171167 ABAB
    7    7  141   53  -0.1497394690 ABAB
    7    7   53  141  -0.1497394690 ABAB
    7    6   28   90   0.1485789943 ABAB
    6    7   90   28   0.1485789943 ABAB
    7    7  142   28   0.1464424636 ABAB
    7    7   28  142   0.1464424636 ABAB
    5    5  141   44   0.1432515373 ABAB
    5    5   44  141   0.1432515373 ABAB
    7    7  141   39   0.1423743038 ABAB
    7    7   39  141   0.1423743038 ABAB
    7    7  141   44   0.1417756884 ABAB
    7    7   44  141   0.1417756884 ABAB
    7    6   37   90   0.1349893801 ABAB
    6    7   90   37   0.1349893801 ABAB
  norm of converged amps    2.39881071812091     
 Starting iterative solution of the perturbed Lambda equations.
 The DIIS procedure is used to accelerate convergence.
 Convergence criterion is 10**(-7).
 Maximum number of iterations is 100.
 Convergence information after     1 iterations: 
 Largest element of residual vector : -0.67851045E-01.
 Largest element of DIIS residual   : -0.67851045E-01.
 Convergence information after     2 iterations: 
 Largest element of residual vector :  0.79232163E-02.
 Largest element of DIIS residual   :  0.49916957E-02.
 Convergence information after     3 iterations: 
 Largest element of residual vector : -0.46155359E-02.
 Largest element of DIIS residual   : -0.40209580E-02.
 Convergence information after     4 iterations: 
 Largest element of residual vector : -0.28595720E-02.
 Largest element of DIIS residual   : -0.22763620E-02.
 Convergence information after     5 iterations: 
 Largest element of residual vector : -0.17002346E-02.
 Largest element of DIIS residual   : -0.80175399E-03.
 Convergence information after     6 iterations: 
 Largest element of residual vector : -0.55906820E-03.
 Largest element of DIIS residual   :  0.13375166E-03.
 Convergence information after     7 iterations: 
 Largest element of residual vector : -0.11262450E-03.
 Largest element of DIIS residual   : -0.48586857E-04.
 Convergence information after     8 iterations: 
 Largest element of residual vector : -0.22189398E-04.
 Largest element of DIIS residual   :  0.21533547E-04.
 Convergence information after     9 iterations: 
 Largest element of residual vector :  0.74937084E-05.
 Largest element of DIIS residual   : -0.47848278E-05.
 Convergence information after    10 iterations: 
 Largest element of residual vector :  0.45650567E-05.
 Largest element of DIIS residual   :  0.33310354E-05.
 Convergence information after    11 iterations: 
 Largest element of residual vector :  0.17758887E-05.
 Largest element of DIIS residual   :  0.73596407E-06.
 Convergence information after    12 iterations: 
 Largest element of residual vector :  0.83902053E-06.
 Largest element of DIIS residual   :  0.55190260E-06.
 Convergence information after    13 iterations: 
 Largest element of residual vector :  0.41245785E-06.
 Largest element of DIIS residual   :  0.30220129E-06.
 Convergence information after    14 iterations: 
 Largest element of residual vector :  0.23836131E-06.
 Largest element of DIIS residual   :  0.11871084E-06.
 Convergence information after    15 iterations: 
 Largest element of residual vector :  0.81680654E-07.
 Largest element of DIIS residual   :  0.37557046E-07.
 Perturbed Lambda equations converged in    15 iterations.
  Dominant contributions to perturbed wavefunction:
    7    7  141   28   0.2130271699 ABAB
    7    7   28  141   0.2130271699 ABAB
    7    7  141   37   0.1941860894 ABAB
    7    7   37  141   0.1941860894 ABAB
    7    7  141   55   0.1642459803 ABAB
    7    7   55  141   0.1642459803 ABAB
    7    7  141   53  -0.1403993166 ABAB
    7    7   53  141  -0.1403993166 ABAB
    7    7  142   28   0.1395228183 ABAB
    7    7   28  142   0.1395228183 ABAB
    7    6   28   90   0.1377121180 ABAB
    6    7   90   28   0.1377121180 ABAB
    5    5  141   44   0.1374083945 ABAB
    5    5   44  141   0.1374083945 ABAB
    7    7  141   39   0.1326352098 ABAB
    7    7   39  141   0.1326352098 ABAB
    7    7  141   44   0.1304539408 ABAB
    7    7   44  141   0.1304539408 ABAB
    7    6   37   90   0.1260830609 ABAB
    6    7   90   37   0.1260830609 ABAB
        The DBOC first-order density matrix is being calculated 
             (Symmetry block 3, perturbation   2)
 term   6.72725015625574     
 final tnorm  0.884925722198147     
  norm contr. I: |<0|L dT/dx|0>|^2   0.000000000000000E+000
  norm contr. II: <0|[nabla(1+L)e-T][nabla e^T]|0>   6.72725015625574     
  total norm contribution   6.72725015625574     
 oo  1.154006267746350E-002
 vv  -50.4979388421070     
 vo  4.763990524596971E-002
  Correlated perturbed 1-el contribution to DBOC  -50.4387588741835       cm**-1
  SUM_I |dc_I/dx|^2 contribution to DBOC   25.3261432947332       cm**-1
 
 
  The total diagonal Born-Oppenheimer correction (DBOC) is:      0.0041420682 a.u.
  The total diagonal Born-Oppenheimer correction (DBOC) is:        909.078888 cm-1
 
 Total CC energy including DBOC  -113.280209364674     
 First-order density matrix is being calculated  (Symmetry block 3, perturbation   2)
 Calculation of the contributions of <pq||rs> to dI(i,j)/dx required   1.7 seconds.
 Calculation of the contributions of <pq||rs> to dI(a,b)/dx required  15.3 seconds.
 Calculation of the contributions of <pq||rs> to dI(i,a)/dx required   9.5 seconds.
 First-order Z-vector equations are solved for 1 perturbation.
 Convergence reached after  18 iterations.
        U*G(pq,rs) contribution is being calculated
             (Symmetry block 3, perturbation   2)

 CCSD contribution to force constants 

        0.0000000000        0.0000000000        0.0000000000
        0.0000000000        0.0000000000        0.0000000000
        0.0000000000        0.0000000000        0.0000000000
        0.0000000000        0.0000000000        0.0000000000
        0.0000000000        0.0000000000        0.0000000000
        0.0000000000        0.0000000000        0.0000000000
        0.0000000000        0.0000000000        0.0000000000
        0.0000000000        0.0000000000        0.0000000000
        0.0000000000        0.0000000000        0.0000000000
        0.0000000000        0.0000000000        0.0000000000
        0.0000000000        0.0000000000        0.0000000000
        0.0000000000       -1.1522704542        1.1522704542

 CCSD contribution to dipole derivatives 

        0.0000000000        0.0000000000        0.0000000000
        0.0000000000        0.0000000000        0.0000000000
        0.0000000000        0.0000000000        0.0000000000
        0.0000000000        0.0000000000       -0.0453605338
        0.0000000000        0.0000000000        0.0000000000
        0.0000000000        0.0000000000        0.0000000000
 @CHECKOUT-I, Total execution time (CPU/WALL):     1046.05/     242.44 seconds.
--executable xsdcc finished with status     0 in      242.46 seconds (walltime).
 --invoking executable--
/nfs/workspaces/public/cfour_mpi/bin/xanti
 @GETMEM-I,  Allocated    3814 MB of main memory.
 CCSD MO derivative gammas will be sorted to Mulliken order.
 @CHECKOUT-I, Total execution time (CPU/WALL):        9.29/      13.79 seconds.
--executable xanti finished with status     0 in       13.81 seconds (walltime).
 --invoking executable--
/nfs/workspaces/public/cfour_mpi/bin/xbcktrn
 @GETMEM-I,  Allocated    3814 MB of main memory.
 CCSD MO derivative gammas will be transformed to the AO basis.
 @CHECKOUT-I, Total execution time (CPU/WALL):       22.98/       3.82 seconds.
--executable xbcktrn finished with status     0 in        3.84 seconds (walltime).
 --invoking executable--
/nfs/workspaces/public/cfour_mpi/bin/xvdint
 @GETMEM-I,  Allocated    3814 MB of main memory.
 One- and two-electron integral derivatives are calculated
 for RHF-CC/MBPT hessians and dipole derivatives.
 Spherical gaussians are used.
  magnet F F
                    8722  records have been written to the Sort file.
  Total length of Sort file :             178609116  words.
 Evaluation of 2el integral derivatives

                      Two-electron integral gradient
                      ------------------------------

                         C #1 z     0.0000000000
                         O #2 z     0.0000000000


 C #1       0.0000000000           -0.5767010487            0.0000000000
 O #2       0.0000000000            0.5767010487            0.0000000000


 Evaluation of 2e integral derivatives required  353.31 seconds.
  contribution to Hessian
        0.0000000000        0.0000000000        0.0000000000
        0.0000000000       -0.5767010487        0.5767010487
 @CHECKOUT-I, Total execution time (CPU/WALL):      353.30/      69.65 seconds.
--executable xvdint finished with status     0 in       69.67 seconds (walltime).
 --invoking executable--
/nfs/workspaces/public/cfour_mpi/bin/xanti
 @GETMEM-I,  Allocated    3814 MB of main memory.
 CCSD MO gammas will be sorted to Mulliken order.
 @CHECKOUT-I, Total execution time (CPU/WALL):       11.47/      10.16 seconds.
--executable xanti finished with status     0 in       10.18 seconds (walltime).
 --invoking executable--
/nfs/workspaces/public/cfour_mpi/bin/xbcktrn
 @GETMEM-I,  Allocated    3814 MB of main memory.
 CCSD MO gammas will be transformed to the AO basis.
 @CHECKOUT-I, Total execution time (CPU/WALL):       28.96/       4.91 seconds.
--executable xbcktrn finished with status     0 in        4.93 seconds (walltime).
 --invoking executable--
/nfs/workspaces/public/cfour_mpi/bin/xvdint
 @GETMEM-I,  Allocated    3814 MB of main memory.
 One- and two-electron integral derivatives are calculated
 for RHF-CC/MBPT hessians and dipole derivatives.
 Spherical gaussians are used.
  magnet F F

                     Kinetic energy integral gradient
                     --------------------------------

                         C #1 z    -1.4457972442
                         O #2 z     1.4457972442


 C #1       0.0000000000            0.0000000000           -1.4457972442
 O #2       0.0000000000            0.0000000000            1.4457972442



                   Nuclear attraction integral gradient
                   ------------------------------------

                         C #1 z    23.1470164775
                         O #2 z   -23.1470164775


 C #1       0.0000000000            0.0000000000           23.1470164775
 O #2       0.0000000000            0.0000000000          -23.1470164775



                      Reorthonormalization gradient
                      -----------------------------

                         C #1 z     0.0000000000
                         O #2 z     0.0000000000


 C #1       0.0000000000            0.0000000000            0.0000000000
 O #2       0.0000000000            0.0000000000            0.0000000000



                     Kinetic energy integral Hessian
                     -------------------------------


           Symmetry 1

           C #1 z      O #2 z

 C #1 z    1.097864
 O #2 z   -1.097864    1.097864


           Symmetry 2

           C #1 x      O #2 x

 C #1 x   -1.867648
 O #2 x    1.867648   -1.867648


           Symmetry 3

           C #1 y      O #2 y

 C #1 y   -1.867648
 O #2 y    1.867648   -1.867648




           C #1 x      C #1 y      C #1 z      O #2 x      O #2 y      O #2 z

 C #1 x   -1.867648
 C #1 y    0.000000   -1.867648
 C #1 z    0.000000    0.000000    1.097864

 O #2 x    1.867648    0.000000    0.000000   -1.867648
 O #2 y    0.000000    1.867648    0.000000    0.000000   -1.867648
 O #2 z    0.000000    0.000000   -1.097864    0.000000    0.000000    1.097864




                   Nuclear attraction integral Hessian
                   -----------------------------------


           Symmetry 1

           C #1 z      O #2 z

 C #1 z  -13.225093
 O #2 z   13.225093  -13.225093


           Symmetry 2

           C #1 x      O #2 x

 C #1 x   20.205050
 O #2 x  -20.205050   20.205050


           Symmetry 3

           C #1 y      O #2 y

 C #1 y   20.205050
 O #2 y  -20.205050   20.205050




           C #1 x      C #1 y      C #1 z      O #2 x      O #2 y      O #2 z

 C #1 x   20.205050
 C #1 y    0.000000   20.205050
 C #1 z    0.000000    0.000000  -13.225093

 O #2 x  -20.205050    0.000000    0.000000   20.205050
 O #2 y    0.000000  -20.205050    0.000000    0.000000   20.205050
 O #2 z    0.000000    0.000000   13.225093    0.000000    0.000000  -13.225093




                Highest order reorthonormalization Hessian
                ------------------------------------------


           Symmetry 1

           C #1 z      O #2 z

 C #1 z    0.000000
 O #2 z    0.000000    0.000000


           Symmetry 2

           C #1 x      O #2 x

 C #1 x    0.000000
 O #2 x    0.000000    0.000000


           Symmetry 3

           C #1 y      O #2 y

 C #1 y    0.000000
 O #2 y    0.000000    0.000000




           C #1 x      C #1 y      C #1 z      O #2 x      O #2 y      O #2 z




                Electronic contributions to dipole moment
                -----------------------------------------

                               au             Debye

                    z     -0.01914279     -0.04865612

  Conversion factor used: 1 a.u. =   2.54174691 Debye 



   Electronic contributions to static part of dipole moment derivatives
   --------------------------------------------------------------------


                     Total dipole moment derivatives
                     -------------------------------


           Symmetry 1
                              Ez

               C #1 z    -5.72589328
               O #2 z    -8.27410672

           Symmetry 2
                              Ex

               C #1 x    -5.78514302
               O #2 x    -8.21485698

           Symmetry 3
                              Ey

               C #1 y    -5.78514302
               O #2 y    -8.21485698



                       Ex          Ey          Ez

      C #1    x   -5.785143    0.000000    0.000000
      C #1    y    0.000000   -5.785143    0.000000
      C #1    z    0.000000    0.000000   -5.725893

      O #2    x   -8.214857    0.000000    0.000000
      O #2    y    0.000000   -8.214857    0.000000
      O #2    z    0.000000    0.000000   -8.274107

 Evaluation of 1e integral derivatives required    1.72 seconds.
                    8815  records have been written to the Sort file.
  Total length of Sort file :             180513570  words.
 Evaluation of 2el integral derivatives

                      Two-electron integral gradient
                      ------------------------------

                         C #1 z   -11.0087765749
                         O #2 z    11.0087765749


 C #1       0.0000000000            0.0000000000          -11.0087765749
 O #2       0.0000000000            0.0000000000           11.0087765749


 Evaluation of 2e integral derivatives required  665.15 seconds.

                            Molecular gradient
                            ------------------

                         C #1 z     0.4982966395
                         O #2 z    -0.4982966395


 C #1       0.0000000000            0.0000000000            0.4982966395
 O #2       0.0000000000            0.0000000000           -0.4982966395


  Molecular gradient norm 0.705E+00

                            Molecular hessian
                            -----------------


           Symmetry 1

           C #1 z      O #2 z

 C #1 z   62.470293
 O #2 z  -62.470293   62.470293


           Symmetry 2

           C #1 x      O #2 x

 C #1 x    1.868356
 O #2 x   -1.868356    1.868356


           Symmetry 3

           C #1 y      O #2 y

 C #1 y    1.868356
 O #2 y   -1.868356    1.868356




           C #1 x      C #1 y      C #1 z      O #2 x      O #2 y      O #2 z

 C #1 x    1.868356
 C #1 y    0.000000    1.868356
 C #1 z    0.000000    0.000000   62.470293

 O #2 x   -1.868356    0.000000    0.000000    1.868356
 O #2 y    0.000000   -1.868356    0.000000    0.000000    1.868356
 O #2 z    0.000000    0.000000  -62.470293    0.000000    0.000000   62.470293




                           Total dipole moment
                           -------------------

                               au             Debye

                    z     -0.02150784     -0.05466748

  Conversion factor used: 1 a.u. =   2.54174691 Debye 



                     Total dipole moment derivatives
                     -------------------------------


           Symmetry 1
                              Ez

               C #1 z     0.71771359
               O #2 z    -0.71771359

           Symmetry 2
                              Ex

               C #1 x    -0.01282450
               O #2 x     0.01282450

           Symmetry 3
                              Ey

               C #1 y    -0.01282450
               O #2 y     0.01282450



                       Ex          Ey          Ez

      C #1    x   -0.012824    0.000000    0.000000
      C #1    y    0.000000   -0.012824    0.000000
      C #1    z    0.000000    0.000000    0.717714

      O #2    x    0.012824    0.000000    0.000000
      O #2    y    0.000000    0.012824    0.000000
      O #2    z    0.000000    0.000000   -0.717714

 @CHECKOUT-I, Total execution time (CPU/WALL):      666.86/     111.31 seconds.
--executable xvdint finished with status     0 in      111.33 seconds (walltime).
 --invoking executable--
/nfs/workspaces/public/cfour_mpi/bin/xjoda
  @GTFLGS-I, Hessian will be transformed to curvilinear coordinates.
  @GTFLGS-I, Hessian will be transformed to curvilinear coordinates.
  igrd and ihes are                      0                     1
  gradient from JOBARC 
   0.000000000000000   0.000000000000000   0.498296639453353
   0.000000000000000   0.000000000000000  -0.498296639453353
 
  @PROJFCM-I, Projecting force constant matrix onto totally symmetric subspace.
  Largest difference between matrix elements of symmetrized
  and unsymmetrized FCM :     0.2269540111E-10.
  read isotopes from ZMAT file 
 
  Summary of diagonal Born-Oppenheimer correction at the correlated level
  The total diagonal Born-Oppenheimer correction (DBOC) is:      0.0041420682 a.u.
  The total diagonal Born-Oppenheimer correction (DBOC) is:        909.078888 cm-1
  The total diagonal Born-Oppenheimer correction (DBOC) is:            10.875 kJ/mole
  hellooooooo 
  readis is  F
 
 @CHECKOUT-I, Total execution time (CPU/WALL):        0.01/       0.05 seconds.
--executable xjoda finished with status     0 in        0.07 seconds (walltime).
  The final electronic energy is      -113.280209364673595 a.u. 
  This computation required                         2514.94 seconds (walltime).
