 --invoking executable--
/nfs/workspaces/public/cfour_mpi/bin/xjoda


   *************************************************************************
         <<<     CCCCCC     CCCCCC   |||     CCCCCC     CCCCCC   >>>
       <<<      CCC        CCC       |||    CCC        CCC         >>>
      <<<      CCC        CCC        |||   CCC        CCC            >>>
    <<<        CCC        CCC        |||   CCC        CCC              >>>
      <<<      CCC        CCC        |||   CCC        CCC            >>>
       <<<      CCC        CCC       |||    CCC        CCC         >>>
         <<<     CCCCCC     CCCCCC   |||     CCCCCC     CCCCCC   >>>
   *************************************************************************

     ****************************************************************
     * CFOUR Coupled-Cluster techniques for Computational Chemistry *
     ****************************************************************
 

   Department of Chemistry                Institut fuer Physikalische Chemie
   University of Florida                  Universitaet Mainz
   Gainesville, FL 32611, USA             D-55099 Mainz, Germany

   Department of Chemistry                Fakultaet fuer Chemie und Biowiss.
   Johns Hopkins University               Karlsruher Institut fuer Technologie
   Baltimore, MD 21218, USA               D-76131 Karlsruhe, Germany

   Department of Chemistry                Department of Physical Chemistry
   Southern Methodist University          Eotvos Lorand University
   Dallas, TX 75275, USA                  H-1053 Budapest, Hungary

 
                       Version 2.1
 
                     vincent.theory.phys.ucl.ac.uk                     
                     Tue 25 Feb 10:55:53 GMT 2025                      
                     integer*8 version is running
 
********************************************************************************
*                          Input from ZMAT file                                *
********************************************************************************
Carbon Monoxide DBOC calculation                                                
C                                                                               
O 1 r                                                                           
                                                                                
r=1.3655172413793104                                                            
                                                                                
                                                                                
*CFOUR(CALC=CCSD,BASIS=AUG-PCVQZ,SCF_CONV=10                                    
CC_CONV=14,DBOC=ON,MEMORY=500000000                                             
ZFIELD=200)                                                                     
                                                                                
%isotopes                                                                       
12                                                                              
16                                                                              
********************************************************************************
  @GTFLGS-I, Hessian will be transformed to curvilinear coordinates.
    -------------------------------------------------------------------
                    CFOUR Control Parameters 
    -------------------------------------------------------------------
        External           Internal           Value            Units
          Name               Name
    -------------------------------------------------------------------
       ABCDTYPE             IABCDT         STANDARD    [  0]    ***   
       ANHARMONIC           IANHAR         OFF         [  0]    ***   
       ANH_ALGORIT          IANALG         STANDARD    [  0]    ***   
       ANH_DERIVAT          IANDER         SECOND      [  1]    ***   
       ANH_MODE             ANHMOD         VIBRATION   [  0]    ***   
       ANH_STEPSIZ          ICUBST             50000          x 10-6  
       ANH_SYMMETR          IANHSM         ABELIAN     [  0]    ***   
       AO_LADDERS           IAOLAD         SINGLEPASS  [  1]    ***   
       AV_SCF               IAVSCF         OFF         [  0]    ***   
       BASIS                IBASIS         AUG-PCVQZ   [ 52]    ***   
       BOTHVECTORS          BOTHVC         OFF         [  0]    ***   
       BOX_POTENT           IPIAB          OFF         [  0]    ***   
       BREIT                IBREIT         OFF         [  0]    ***   
       BRUCK_CONV           IBRTOL          10D-  4             ***   
       BRUECKNER            IBRKNR         OFF         [  0]    ***   
       BUFFERSIZE           IBUFFS              4096            ***   
       CACHE_RECS           ICHREC             10               ***   
       CALCLEVEL            ICLLVL         CCSD        [ 10]    ***   
       CCORBOPT             ICCORB         OFF         [  0]  x 0.01  
       CC_CONV              ICCCNV          10D- 14             ***   
       CC_EXPORDER          ICCEOR              5               ***   
       CC_EXTRAPOL          ICCEXT         DIIS        [  1]    ***   
       CC_GUESS             ICCGES         MP2         [  0]    ***   
       CC_MAXCYC            ICCCYC            100              cycles 
       CC_PROGRAM           ICCPRO         VCC         [  0]    ***   
       CHARGE               ICHRGE              0               ***   
       CHOLESKY             ICHOLE         OFF         [  0]    ***   
       CIS_CONV             ICISTL              5               ***   
       COMM_SIZE            IPSIZE            ***               ***   
       CONSTANT             ICONST         OLD         [  1]    ***   
       CONTINUUM            ICONTU         NONE        [  0]    ***   
       CONTRACTION          ICNTYP         GENERAL     [  1]    ***   
       COORDINATES          ICOORD         INTERNAL    [  0]    ***   
       CPHF_CONVER          ICPHFT          10D- 16             ***   
       CPHF_MAXCYC          ICPHFC             64              cycles 
       CUBIC                ICUBIC         OFF         [  0]    ***   
       CURVILINEAR          ICURVY         ON          [  1]    ***   
       DBOC                 IDBOC          ON          [  1]    ***   
       DCT                  IDCT           OFF         [  0]    ***   
       DERIV_LEV            IDRLVL         SECOND      [  2]    ***   
       DEVMEM_SIZE          IDVMEM          50000000           MByte  
       DIAG_MRCC            IEOMST          10D-  0             ***   
       DIFF_TYPE            IDIFTY         RELAXED     [  0]    ***   
       DIRECT               IDIRCT         OFF         [  0]    ***   
       DROPMO               IDRPMO      NONE         
       ECP                  IECP           OFF         [  0]    ***   
       EIGENVECTOR          IVEC                1               ***   
       EL_ANHARM            IELANH         OFF         [  0]    ***   
       EOMFOLLOW            IEOMSR         ENERGY      [  0]    ***   
       EOMIP                IEOMIP         OFF         [  0]    ***   
       EOMLEVEL             HBARFM         SAME        [  0]    ***   
       EOM_MRCC             IMRCCE         NEW         [  1]    ***   
       EOM_NONIT            EOMNON         OFF         [  0]    ***   
       EOM_NSING            IEOMSI          10D-  0             ***   
       EOM_NSTATES          IMRCCD         DAVIDSON    [  0]    ***   
       EOM_NTRIP            IEOMTR          10D-  0             ***   
       EOM_ORDER            IEXORD         ENERGY      [  0]    ***   
       EOM_PROPSTA          IEOMST              0               ***   
       ESTATE_CONV          IEXTOL          10D-  5             ***   
       ESTATE_DIAG          IEXDIG         ITERATIVE   [  0]    ***   
       ESTATE_LOCK          IESLOC         ON          [  1]    ***   
       ESTATE_MAXC          IEXMXC             40               ***   
       ESTATE_PROP          IEXPRP         OFF         [  0]    ***   
       EVAL_HESS            IRECAL              0            # of cyc.
       EXCITATION           IEXCIT              0               ***   
       EXCITE               IEXCIT         NONE        [  0]    ***   
       EXTERN_POT           IEXPOT         OFF         [  0]    ***   
       FCGRADNEW            IFCGNW         OFF         [  0]    ***   
       FC_FIELD             IFINFC              0             x 10-6  
       FD_CALTYPE           IFDCAL         GRADONLY    [  0]    ***   
       FD_PROJECT           IFDPRJ         OFF         [  1]    ***   
       FD_STEPSIZE          IDISFD              0            10-4 bohr
       FD_USEGROUP          IFDGRP         FULL        [  0]    ***   
       FILE_RECSIZ          IFLREC              4096           words  
       FINITE_PERT          IFIPER              0             x 10-6  
       FIXGEOM              IFIXGM         OFF         [  0]    ***   
       FOCK                 IFOCK          AO          [  1]    ***   
       FREQ_ALGORI          IVIALG         STANDARD    [  0]    ***   
       FROZEN_CORE          IFROCO         OFF         [  0]    ***   
       GAMMA_ABCD           IGABCD         STORE       [  0]    ***   
       GAMMA_ABCI           IGABCI         STORE       [  0]    ***   
       GENBAS_1             IGNBS1              0               ***   
       GENBAS_2             IGNBS2              0               ***   
       GENBAS_3             IGNBS3              0               ***   
       GENBAS_4             IGNBS4              0               ***   
       GEO_CONV             ICONTL              5              H/bohr 
       GEO_MAXCYC           IOPTCY             50               ***   
       GEO_MAXSTEP          IMXSTP            300            millibohr
       GEO_METHOD           INR            SINGLE_POINT[  5]    ***   
       GIAO                 IGIAO          OFF         [  1]    ***   
       GIMIC                IGIMIC         OFF         [  0]    ***   
       GRID                 IGRID          OFF         [  0]    ***   
       GRID_ALGO            IGALGO         SERIAL      [  0]    ***   
       GUESS                IGUESS         MOREAD      [  0]    ***   
       HBAR                 IHBAR          OFF         [  0]    ***   
       HESS_TYPE            IHESTP         SCF         [  0]    ***   
       HF2_FILE             IHF2Fl         USE         [  1]    ***   
       HFSTABILITY          ISTABL         OFF         [  0]    ***   
       INCORE               INCORE         OFF         [  0]    ***   
       INPUT_MRCC           IMRCC          ON          [  1]    ***   
       INTEGRALS            INTTYP         VMOL        [  1]    ***   
       JODA_PRINT           IJPRNT              0               ***   
       KEYWORD_OUT          IDMPKW         NO          [  0]    ***   
       LINDEP_TOL           ILINDP              8               ***   
       LINEQ_CONV           IZTACN          10D-  7           cycles  
       LINEQ_EXPOR          ILMAXD              5               ***   
       LINEQ_MAXCY          ILMAXC            100               ***   
       LINEQ_TYPE           ILTYPE         DIIS        [  1]    ***   
       LOCK_ORBOCC          ILOCOC         OFF         [  0]    ***   
       MEMORY_SIZE          IMEMSZ         500000000           words  
       MEM_UNIT             IMEMU          INTEGERWORDS[  0]    ***   
       MRCC                 IMRCCC         OFF         [  0]    ***   
       MULTIPLICTY          IMULTP              1               ***   
       NACOUPLING           IVCOUP         OFF         [  0]    ***   
       NEGEVAL              IDIE           ABORT       [  0]    ***   
       NEWNORM              INEWNO         OFF         [  0]    ***   
       NON-HF               INONHF         OFF         [  0]    ***   
       NTOP_TAMP            ITOPT2             15               ***   
       NUC_MODEL            INUCMO         POINT       [  0]    ***   
       OCCUPATION           IOCCU   ESTIMATED BY SCF 
       OPEN-SHELL           IOPEN          SPIN-ORBITAL[  0]    ***   
       OPTVIB               IOPTVB         OFF         [  0]    ***   
       ORBITALS             IORBTP         STANDARD    [  0]    ***   
       PARALLEL             IPARAL         ON          [  1]    ***   
       PARA_INT             IPINTS         ON          [  1]    ***   
       PARA_PRINT           IPPRIN              0               ***   
       PERT_ORB             IPTORB         STANDARD    [  0]    ***   
       POINTS               IGRDFD              0               ***   
       PRINT                IPRNT               0               ***   
       PROPS                IPROPS         OFF         [  0]    ***   
       PROP_INTEGR          IINTYP         INTERNAL    [  0]    ***   
       PSI                  IPSI           OFF         [  0]    ***   
       QC_ALG               IQCALG         FLM         [  0]    ***   
       QC_LINALG            IQCLIN         TRIDIAG     [  2]    ***   
       QC_MAXCYC            IQCMAX          10D-100           cycles  
       QC_MAXSCFCY          IQCMSC          10D- 15           cycles  
       QC_RTRUST            IQCRTR          10D-  0           x 10-3  
       QC_SKIPSCF           IQCSKI         OFF         [  0]    ***   
       QC_START             IQCSTA          10D-  1             ***   
       QRHFGUESS            IQGUES         OFF         [  0]    ***   
       QUARTIC              IQUART         OFF         [  0]    ***   
       RAMAN_INT            IRAMIN         OFF         [  0]    ***   
       RAMAN_ORB            IRAMRE         UNRELAXED   [  0]    ***   
       RDO                  IRDOFM         ON          [  1]    ***   
       REDUCE_REPR          REDREP         Ir          [  0]    ***   
       REFERENCE            IREFNC         RHF         [  0]    ***   
       RELATIVIST           IRELAT         OFF         [  0]    ***   
       RELAX_DENS           IRDENS         ON          [  1]    ***   
       RESET_FLAGS          IRESET         OFF         [  0]    ***   
       RESTART_CC           ICCRES         OFF         [  0]    ***   
       ROT_EVEC             ROTVEC              0               ***   
       SAVE_INTS            ISVINT         OFF         [  0]    ***   
       SCALE_ON             ISTCRT              0               ***   
       SCF_CONV             ISCFCV          10D- 10             ***   
       SCF_DAMPING          IDAMP               0             x 10-3  
       SCF_EXPORDE          IRPPOR              6               ***   
       SCF_EXPSTAR          IRPPLS              8               ***   
       SCF_EXTRAPO          IRPP           ON          [  1]    ***   
       SCF_MAXCYC           ISCFCY            150              cycles 
       SCF_NOSTOP           ISCFST         OFF         [  0]    ***   
       SCF_PRINT            ISCFPR              0               ***   
       SCF_PROG             ISCFPR         SCF         [  0]    ***   
       SD_FIELD             IFINSD              0             x 10-6  
       SOPERT               IPERSO         OFF         [  0]    ***   
       SPHERICAL            IDFGHI         ON          [  1]    ***   
       SPINORBIT            ISOCAL         OFF         [  0]    ***   
       SPINROTATIO          ISRCON         OFF         [  0]    ***   
       SPIN_FLIP            ISPFLP         OFF         [  0]    ***   
       SPIN_ORBIT           ISPORB         OFF         [  0]    ***   
       SPIN_SCAL            ISCSMP         OFF         [  0]    ***   
       STEEPSCALE           ISTPSC              1000          x 10-3  
       SUBGROUP             ISUBGP         DEFAULT     [  0]    ***   
       SUBGRPAXIS           ISBXYZ         X           [  0]    ***   
       SYMMETRY             ISYM           ON          [  0]    ***   
       SYM_CHECK            ISYMCK         OVERRIDE    [  1]    ***   
       T3_EXTRAPOL          IT3EXT         OFF         [  0]    ***   
       T4_EXTRAPOL          IT4EXP         OFF         [  0]    ***   
       TAMP_SUM             IEVERY              5               ***   
       TESTSUITE            ITESTS         OFF         [  0]    ***   
       THERMOCH             ITHERM         OFF         [  0]    ***   
       TOL_CHOLESK          ITOLCH          10D-  4             ***   
       TRANGRAD             IRESRM         OFF         [  0]    ***   
       TRANS_INV            ITRAIN         IGNORE      [  1]    ***   
       TREAT_PERT           ITREAT         SIMULTANEOUS[  0]    ***   
       TRIP_ALGORI          ITRALG         NORMAL      [  0]    ***   
       UIJ_THRESHO          IUIJTH              1               ***   
       UNITS                IUNITS         ANGSTROM    [  0]    ***   
       UNOS                 IUNOS          OFF         [  0]    ***   
       UPDATE_HESS          IHUPDT         ON          [  1]    ***   
       VIBPHASE             ISETPH         STANDARD    [  0]    ***   
       VIBRATION            IVIB           ANALYTIC    [  1]    ***   
       VIB_ALGORIT          IGEALG         STANDARD    [  0]    ***   
       VNATORB              IVNORB         OFF         [  0]    ***   
       VTRAN                IVTRAN         FULL/PARTIAL[  0]    ***   
       XFIELD               IXEFLD              0             x 10-6  
       XFORM_TOL            IXFTOL          10D- 11             ***   
       YFIELD               IYEFLD              0             x 10-6  
       ZFIELD               IZEFLD            200             x 10-6  
       ZSCALE_EXP           IZEXPS         OFF         [  0]    ***   
    -------------------------------------------------------------------
   2 entries found in Z-matrix 
   Job Title : Carbon Monoxide DBOC calculation                                                
   There are  1 unique internal coordinates.
   Of these,  0 will be optimized.
   User supplied Z-matrix: 
--------------------------------------------------------------------------------
       SYMBOL    BOND      LENGTH    ANGLE     ANGLE     DIHED     ANGLE
                  TO      (ANGST)    WRT      (DEG)      WRT      (DEG)
--------------------------------------------------------------------------------
        C    
        O          1         r    
                  *Initial values for internal coordinates* 
                      Name             Value
                        r               1.3655172414
--------------------------------------------------------------------------------
  read isotopes from ZMAT file 
   Rotational constants (in cm-1): 
          1.3186154320             1.3186154320
   Rotational constants (in MHz): 
      39531.1016897482         39531.1016897482
********************************************************************************
   The full molecular point group is CXv .
   The largest Abelian subgroup of the full molecular point group is C2v .
   The computational point group is C2v .
********************************************************************************
--------------------------------------------------------------------------------
   Analysis of internal coordinates specified by Z-matrix 
--------------------------------------------------------------------------------
   *The nuclear repulsion energy is   18.601376848484847 a.u.
   *There is   1 degree of freedom within the tot. symm. molecular subspace.
   *Z-matrix requests optimization of   0 coordinates.
   *The optimization is constrained.
   *The following   1 parameters can have non-zero 
    derivatives within the totally symmetric subspace:
             r    [ 1]
   *The following   0 parameters are to be optimized:

   *The following coordinates must be varied in an  unconstrained optimization.
             r    [ 1]
--------------------------------------------------------------------------------


 ----------------------------------------------------------------
         Coordinates used in calculation (QCOMP) 
 ----------------------------------------------------------------
 Z-matrix   Atomic            Coordinates (in bohr)
  Symbol    Number           X              Y              Z
 ----------------------------------------------------------------
     C         6        -0.00000000     0.00000000     1.47434433
     O         8         0.00000000     0.00000000    -1.10610981
 ----------------------------------------------------------------
 
   Interatomic distance matrix (Angstroms) 
 
                 C             O    
                [ 1]        [ 2]
  C    [ 1]     0.00000
  O    [ 2]     1.36552     0.00000
 rotcon2
   Rotational constants (in cm-1): 
          1.3186154320             0.0000000000
   Rotational constants (in MHz): 
      39531.1016897482             0.0000000000
  ECPDATA file not present.   Using default ECPDATA. 
  @GTFLGS-I, Hessian will be transformed to curvilinear coordinates.
  There are  218 basis functions.
 @CHECKOUT-I, Total execution time (CPU/WALL):        0.09/       0.12 seconds.
--executable xjoda finished with status     0 in        0.14 seconds (walltime).
 --invoking executable--
/nfs/workspaces/public/cfour_mpi/bin/xvmol
 SERIAL VERSION OF MOLECULE STARTED
********************************************************************************
                    INPUT FROM MOL FILE
********************************************************************************
INTGRL        1    0    1    0    0    0    0    0    0                         
         *** CFOUR Program System (Release V0.1) ***                            
Carbon Monoxide DBOC calculation                                                
    2    2 X  Y       0.10E-08              0    0                              
   9999.00      3.00                                                            
          6.00000000    1    5    1    1    1    1    1                         
C #1  -0.000000000000000   0.000000000000000   1.474344333920085                
   16    9                                                                      
   33980.0000000000       9.100000000000000E-005 -1.900000000000000E-005        
  0.000000000000000E+000  0.000000000000000E+000  0.000000000000000E+000        
  0.000000000000000E+000  0.000000000000000E+000  0.000000000000000E+000        
  0.000000000000000E+000                                                        
   5089.00000000000       7.040000000000000E-004 -1.510000000000000E-004        
  0.000000000000000E+000  0.000000000000000E+000  0.000000000000000E+000        
  0.000000000000000E+000  0.000000000000000E+000  0.000000000000000E+000        
  0.000000000000000E+000                                                        
   1157.00000000000       3.693000000000000E-003 -7.850000000000000E-004        
  0.000000000000000E+000  0.000000000000000E+000  0.000000000000000E+000        
  0.000000000000000E+000  0.000000000000000E+000  0.000000000000000E+000        
  0.000000000000000E+000                                                        
   326.600000000000       1.536000000000000E-002 -3.324000000000000E-003        
  0.000000000000000E+000  0.000000000000000E+000  0.000000000000000E+000        
  0.000000000000000E+000  0.000000000000000E+000  0.000000000000000E+000        
  0.000000000000000E+000                                                        
   106.100000000000       5.292900000000000E-002 -1.151200000000000E-002        
  0.000000000000000E+000  0.000000000000000E+000  0.000000000000000E+000        
  0.000000000000000E+000  0.000000000000000E+000  0.000000000000000E+000        
  0.000000000000000E+000                                                        
   38.1100000000000       0.147043000000000      -3.416000000000000E-002        
  0.000000000000000E+000  0.000000000000000E+000  0.000000000000000E+000        
  0.000000000000000E+000  0.000000000000000E+000  0.000000000000000E+000        
  0.000000000000000E+000                                                        
   14.7500000000000       0.305631000000000      -7.717300000000001E-002        
  0.000000000000000E+000  0.000000000000000E+000  0.000000000000000E+000        
  0.000000000000000E+000  0.000000000000000E+000  0.000000000000000E+000        
  0.000000000000000E+000                                                        
   6.03500000000000       0.399345000000000      -0.141493000000000             
  0.000000000000000E+000  0.000000000000000E+000  0.000000000000000E+000        
  0.000000000000000E+000  0.000000000000000E+000  0.000000000000000E+000        
  0.000000000000000E+000                                                        
   2.53000000000000       0.217051000000000      -0.118019000000000             
  0.000000000000000E+000  0.000000000000000E+000  0.000000000000000E+000        
  0.000000000000000E+000  0.000000000000000E+000  0.000000000000000E+000        
  0.000000000000000E+000                                                        
  0.735500000000000       1.589400000000000E-002  0.273806000000000             
   1.00000000000000       0.000000000000000E+000  0.000000000000000E+000        
  0.000000000000000E+000  0.000000000000000E+000  0.000000000000000E+000        
  0.000000000000000E+000                                                        
  0.290500000000000      -3.084000000000000E-003  0.586510000000000             
  0.000000000000000E+000   1.00000000000000       0.000000000000000E+000        
  0.000000000000000E+000  0.000000000000000E+000  0.000000000000000E+000        
  0.000000000000000E+000                                                        
  0.111100000000000       9.779999999999999E-004  0.285430000000000             
  0.000000000000000E+000  0.000000000000000E+000   1.00000000000000             
  0.000000000000000E+000  0.000000000000000E+000  0.000000000000000E+000        
  0.000000000000000E+000                                                        
   7.21600000000000       0.000000000000000E+000  0.000000000000000E+000        
  0.000000000000000E+000  0.000000000000000E+000  0.000000000000000E+000        
   1.00000000000000       0.000000000000000E+000  0.000000000000000E+000        
  0.000000000000000E+000                                                        
   19.5700000000000       0.000000000000000E+000  0.000000000000000E+000        
  0.000000000000000E+000  0.000000000000000E+000  0.000000000000000E+000        
  0.000000000000000E+000   1.00000000000000       0.000000000000000E+000        
  0.000000000000000E+000                                                        
   53.0730000000000       0.000000000000000E+000  0.000000000000000E+000        
  0.000000000000000E+000  0.000000000000000E+000  0.000000000000000E+000        
  0.000000000000000E+000  0.000000000000000E+000   1.00000000000000             
  0.000000000000000E+000                                                        
  4.145000000000000E-002  0.000000000000000E+000  0.000000000000000E+000        
  0.000000000000000E+000  0.000000000000000E+000  0.000000000000000E+000        
  0.000000000000000E+000  0.000000000000000E+000  0.000000000000000E+000        
   1.00000000000000                                                             
   10    8                                                                      
   34.5100000000000       5.378000000000000E-003  0.000000000000000E+000        
  0.000000000000000E+000  0.000000000000000E+000  0.000000000000000E+000        
  0.000000000000000E+000  0.000000000000000E+000  0.000000000000000E+000        
   7.91500000000000       3.613200000000000E-002  0.000000000000000E+000        
  0.000000000000000E+000  0.000000000000000E+000  0.000000000000000E+000        
  0.000000000000000E+000  0.000000000000000E+000  0.000000000000000E+000        
   2.36800000000000       0.142493000000000       0.000000000000000E+000        
  0.000000000000000E+000  0.000000000000000E+000  0.000000000000000E+000        
  0.000000000000000E+000  0.000000000000000E+000  0.000000000000000E+000        
  0.813200000000000       0.342150000000000        1.00000000000000             
  0.000000000000000E+000  0.000000000000000E+000  0.000000000000000E+000        
  0.000000000000000E+000  0.000000000000000E+000  0.000000000000000E+000        
  0.289000000000000       0.463864000000000       0.000000000000000E+000        
   1.00000000000000       0.000000000000000E+000  0.000000000000000E+000        
  0.000000000000000E+000  0.000000000000000E+000  0.000000000000000E+000        
  0.100700000000000       0.250028000000000       0.000000000000000E+000        
  0.000000000000000E+000   1.00000000000000       0.000000000000000E+000        
  0.000000000000000E+000  0.000000000000000E+000  0.000000000000000E+000        
   8.18200000000000       0.000000000000000E+000  0.000000000000000E+000        
  0.000000000000000E+000  0.000000000000000E+000   1.00000000000000             
  0.000000000000000E+000  0.000000000000000E+000  0.000000000000000E+000        
   24.1860000000000       0.000000000000000E+000  0.000000000000000E+000        
  0.000000000000000E+000  0.000000000000000E+000  0.000000000000000E+000        
   1.00000000000000       0.000000000000000E+000  0.000000000000000E+000        
   71.4940000000000       0.000000000000000E+000  0.000000000000000E+000        
  0.000000000000000E+000  0.000000000000000E+000  0.000000000000000E+000        
  0.000000000000000E+000   1.00000000000000       0.000000000000000E+000        
  3.218000000000000E-002  0.000000000000000E+000  0.000000000000000E+000        
  0.000000000000000E+000  0.000000000000000E+000  0.000000000000000E+000        
  0.000000000000000E+000  0.000000000000000E+000   1.00000000000000             
    6    6                                                                      
   1.84800000000000        1.00000000000000       0.000000000000000E+000        
  0.000000000000000E+000  0.000000000000000E+000  0.000000000000000E+000        
  0.000000000000000E+000                                                        
  0.649000000000000       0.000000000000000E+000   1.00000000000000             
  0.000000000000000E+000  0.000000000000000E+000  0.000000000000000E+000        
  0.000000000000000E+000                                                        
  0.228000000000000       0.000000000000000E+000  0.000000000000000E+000        
   1.00000000000000       0.000000000000000E+000  0.000000000000000E+000        
  0.000000000000000E+000                                                        
   8.65600000000000       0.000000000000000E+000  0.000000000000000E+000        
  0.000000000000000E+000   1.00000000000000       0.000000000000000E+000        
  0.000000000000000E+000                                                        
   33.2130000000000       0.000000000000000E+000  0.000000000000000E+000        
  0.000000000000000E+000  0.000000000000000E+000   1.00000000000000             
  0.000000000000000E+000                                                        
  7.660000000000000E-002  0.000000000000000E+000  0.000000000000000E+000        
  0.000000000000000E+000  0.000000000000000E+000  0.000000000000000E+000        
   1.00000000000000                                                             
    4    4                                                                      
   1.41900000000000        1.00000000000000       0.000000000000000E+000        
  0.000000000000000E+000  0.000000000000000E+000                                
  0.485000000000000       0.000000000000000E+000   1.00000000000000             
  0.000000000000000E+000  0.000000000000000E+000                                
   24.6940000000000       0.000000000000000E+000  0.000000000000000E+000        
   1.00000000000000       0.000000000000000E+000                                
  0.187000000000000       0.000000000000000E+000  0.000000000000000E+000        
  0.000000000000000E+000   1.00000000000000                                     
    2    2                                                                      
   1.01100000000000        1.00000000000000       0.000000000000000E+000        
  0.424000000000000       0.000000000000000E+000   1.00000000000000             
          8.00000000    1    5    1    1    1    1    1                         
O #2   0.000000000000000   0.000000000000000  -1.106109811543334                
   16    9                                                                      
   61420.0000000000       9.000000000000001E-005 -2.000000000000000E-005        
  0.000000000000000E+000  0.000000000000000E+000  0.000000000000000E+000        
  0.000000000000000E+000  0.000000000000000E+000  0.000000000000000E+000        
  0.000000000000000E+000                                                        
   9199.00000000000       6.980000000000001E-004 -1.590000000000000E-004        
  0.000000000000000E+000  0.000000000000000E+000  0.000000000000000E+000        
  0.000000000000000E+000  0.000000000000000E+000  0.000000000000000E+000        
  0.000000000000000E+000                                                        
   2091.00000000000       3.664000000000000E-003 -8.290000000000000E-004        
  0.000000000000000E+000  0.000000000000000E+000  0.000000000000000E+000        
  0.000000000000000E+000  0.000000000000000E+000  0.000000000000000E+000        
  0.000000000000000E+000                                                        
   590.900000000000       1.521800000000000E-002 -3.508000000000000E-003        
  0.000000000000000E+000  0.000000000000000E+000  0.000000000000000E+000        
  0.000000000000000E+000  0.000000000000000E+000  0.000000000000000E+000        
  0.000000000000000E+000                                                        
   192.300000000000       5.242300000000000E-002 -1.215600000000000E-002        
  0.000000000000000E+000  0.000000000000000E+000  0.000000000000000E+000        
  0.000000000000000E+000  0.000000000000000E+000  0.000000000000000E+000        
  0.000000000000000E+000                                                        
   69.3200000000000       0.145921000000000      -3.626100000000000E-002        
  0.000000000000000E+000  0.000000000000000E+000  0.000000000000000E+000        
  0.000000000000000E+000  0.000000000000000E+000  0.000000000000000E+000        
  0.000000000000000E+000                                                        
   26.9700000000000       0.305258000000000      -8.299200000000000E-002        
  0.000000000000000E+000  0.000000000000000E+000  0.000000000000000E+000        
  0.000000000000000E+000  0.000000000000000E+000  0.000000000000000E+000        
  0.000000000000000E+000                                                        
   11.1000000000000       0.398508000000000      -0.152090000000000             
  0.000000000000000E+000  0.000000000000000E+000  0.000000000000000E+000        
  0.000000000000000E+000  0.000000000000000E+000  0.000000000000000E+000        
  0.000000000000000E+000                                                        
   4.68200000000000       0.216980000000000      -0.115331000000000             
  0.000000000000000E+000  0.000000000000000E+000  0.000000000000000E+000        
  0.000000000000000E+000  0.000000000000000E+000  0.000000000000000E+000        
  0.000000000000000E+000                                                        
   1.42800000000000       1.759400000000000E-002  0.288979000000000             
   1.00000000000000       0.000000000000000E+000  0.000000000000000E+000        
  0.000000000000000E+000  0.000000000000000E+000  0.000000000000000E+000        
  0.000000000000000E+000                                                        
  0.554700000000000      -2.502000000000000E-003  0.586128000000000             
  0.000000000000000E+000   1.00000000000000       0.000000000000000E+000        
  0.000000000000000E+000  0.000000000000000E+000  0.000000000000000E+000        
  0.000000000000000E+000                                                        
  0.206700000000000       9.540000000000000E-004  0.277624000000000             
  0.000000000000000E+000  0.000000000000000E+000   1.00000000000000             
  0.000000000000000E+000  0.000000000000000E+000  0.000000000000000E+000        
  0.000000000000000E+000                                                        
   12.9740000000000       0.000000000000000E+000  0.000000000000000E+000        
  0.000000000000000E+000  0.000000000000000E+000  0.000000000000000E+000        
   1.00000000000000       0.000000000000000E+000  0.000000000000000E+000        
  0.000000000000000E+000                                                        
   34.9000000000000       0.000000000000000E+000  0.000000000000000E+000        
  0.000000000000000E+000  0.000000000000000E+000  0.000000000000000E+000        
  0.000000000000000E+000   1.00000000000000       0.000000000000000E+000        
  0.000000000000000E+000                                                        
   93.8810000000000       0.000000000000000E+000  0.000000000000000E+000        
  0.000000000000000E+000  0.000000000000000E+000  0.000000000000000E+000        
  0.000000000000000E+000  0.000000000000000E+000   1.00000000000000             
  0.000000000000000E+000                                                        
  6.959000000000000E-002  0.000000000000000E+000  0.000000000000000E+000        
  0.000000000000000E+000  0.000000000000000E+000  0.000000000000000E+000        
  0.000000000000000E+000  0.000000000000000E+000  0.000000000000000E+000        
   1.00000000000000                                                             
   10    8                                                                      
   63.4200000000000       6.044000000000000E-003  0.000000000000000E+000        
  0.000000000000000E+000  0.000000000000000E+000  0.000000000000000E+000        
  0.000000000000000E+000  0.000000000000000E+000  0.000000000000000E+000        
   14.6600000000000       4.179900000000000E-002  0.000000000000000E+000        
  0.000000000000000E+000  0.000000000000000E+000  0.000000000000000E+000        
  0.000000000000000E+000  0.000000000000000E+000  0.000000000000000E+000        
   4.45900000000000       0.161143000000000       0.000000000000000E+000        
  0.000000000000000E+000  0.000000000000000E+000  0.000000000000000E+000        
  0.000000000000000E+000  0.000000000000000E+000  0.000000000000000E+000        
   1.53100000000000       0.356731000000000        1.00000000000000             
  0.000000000000000E+000  0.000000000000000E+000  0.000000000000000E+000        
  0.000000000000000E+000  0.000000000000000E+000  0.000000000000000E+000        
  0.530200000000000       0.448309000000000       0.000000000000000E+000        
   1.00000000000000       0.000000000000000E+000  0.000000000000000E+000        
  0.000000000000000E+000  0.000000000000000E+000  0.000000000000000E+000        
  0.175000000000000       0.244940000000000       0.000000000000000E+000        
  0.000000000000000E+000   1.00000000000000       0.000000000000000E+000        
  0.000000000000000E+000  0.000000000000000E+000  0.000000000000000E+000        
   14.4750000000000       0.000000000000000E+000  0.000000000000000E+000        
  0.000000000000000E+000  0.000000000000000E+000   1.00000000000000             
  0.000000000000000E+000  0.000000000000000E+000  0.000000000000000E+000        
   42.7300000000000       0.000000000000000E+000  0.000000000000000E+000        
  0.000000000000000E+000  0.000000000000000E+000  0.000000000000000E+000        
   1.00000000000000       0.000000000000000E+000  0.000000000000000E+000        
   126.140000000000       0.000000000000000E+000  0.000000000000000E+000        
  0.000000000000000E+000  0.000000000000000E+000  0.000000000000000E+000        
  0.000000000000000E+000   1.00000000000000       0.000000000000000E+000        
  5.348000000000000E-002  0.000000000000000E+000  0.000000000000000E+000        
  0.000000000000000E+000  0.000000000000000E+000  0.000000000000000E+000        
  0.000000000000000E+000  0.000000000000000E+000   1.00000000000000             
    6    6                                                                      
   3.77500000000000        1.00000000000000       0.000000000000000E+000        
  0.000000000000000E+000  0.000000000000000E+000  0.000000000000000E+000        
  0.000000000000000E+000                                                        
   1.30000000000000       0.000000000000000E+000   1.00000000000000             
  0.000000000000000E+000  0.000000000000000E+000  0.000000000000000E+000        
  0.000000000000000E+000                                                        
  0.444000000000000       0.000000000000000E+000  0.000000000000000E+000        
   1.00000000000000       0.000000000000000E+000  0.000000000000000E+000        
  0.000000000000000E+000                                                        
   14.9270000000000       0.000000000000000E+000  0.000000000000000E+000        
  0.000000000000000E+000   1.00000000000000       0.000000000000000E+000        
  0.000000000000000E+000                                                        
   57.5440000000000       0.000000000000000E+000  0.000000000000000E+000        
  0.000000000000000E+000  0.000000000000000E+000   1.00000000000000             
  0.000000000000000E+000                                                        
  0.154000000000000       0.000000000000000E+000  0.000000000000000E+000        
  0.000000000000000E+000  0.000000000000000E+000  0.000000000000000E+000        
   1.00000000000000                                                             
    4    4                                                                      
   2.66600000000000        1.00000000000000       0.000000000000000E+000        
  0.000000000000000E+000  0.000000000000000E+000                                
  0.859000000000000       0.000000000000000E+000   1.00000000000000             
  0.000000000000000E+000  0.000000000000000E+000                                
   26.4830000000000       0.000000000000000E+000  0.000000000000000E+000        
   1.00000000000000       0.000000000000000E+000                                
  0.324000000000000       0.000000000000000E+000  0.000000000000000E+000        
  0.000000000000000E+000   1.00000000000000                                     
    2    2                                                                      
   1.84600000000000        1.00000000000000       0.000000000000000E+000        
  0.714000000000000       0.000000000000000E+000   1.00000000000000             
FINISH                                                                          
 
********************************************************************************
 ONE- AND TWO-ELECTRON INTEGRALS OVER SYMMETRY-ADAPTED AOS ARE CALCULATED.

  SPHERICAL HARMONICS ARE USED.
  
  INTEGRALS LESS THAN  0.10E-13 ARE NEGLECTED.

  NUCLEAR REPULSION ENERGY :   18.6013768485 A.U.
  @MOLECU-I, ONE ELECTRON INTEGRALS (CPU/WALL):        0.05/       0.07 SECONDS.
  @TWOEL-I,    4506257 INTEGRALS OF SYMMETRY TYPE  I I I I
  @TWOEL-I,   19416544 INTEGRALS OF SYMMETRY TYPE  I J I J
  @TWOEL-I,   10224598 INTEGRALS OF SYMMETRY TYPE  I I J J
  @TWOEL-I,   14375169 INTEGRALS OF SYMMETRY TYPE  I J K L
  @TWOEL-I, TOTAL NUMBER OF 2-E INTEGRALS   48522568.
  @MOLECU-I, TWO ELECTRON INTEGRALS (CPU/WALL):      186.68/      25.72 SECONDS.
 @CHECKOUT-I, Total execution time (CPU/WALL):      186.74/      25.80 seconds.

Running with 14 threads/proc

--executable xvmol finished with status     0 in       25.82 seconds (walltime).
 --invoking executable--
/nfs/workspaces/public/cfour_mpi/bin/xvmol2ja
 @GETMEM-I,  Allocated    3814 MB of main memory.
 @CHECKOUT-I, Total execution time (CPU/WALL):        0.25/       0.09 seconds.
--executable xvmol2ja finished with status     0 in        0.10 seconds (walltime).
 --invoking executable--
/nfs/workspaces/public/cfour_mpi/bin/xvprop
 @GETMEM-I,  Allocated    3814 MB of main memory.
   Property integrals will be calculated.
    --------------------------------------------------------------
                                   Property evaluated at 
    Property type                X             Y             Z
    --------------------------------------------------------------
    Dipole moment               ----          ----          ----  
    Quadrupole moment           ----          ----          ----  
    Octopole moment             ----          ----          ----  
    Relativisitic corr.         ----          ----          ----  
    Second moment            0.0000000     0.0000000     0.0000000
    Electron density         0.0000000     0.0000000     1.4743443
    Electron density         0.0000000     0.0000000    -1.1061098
    Field gradient           0.0000000     0.0000000     1.4743443
    Field gradient           0.0000000     0.0000000    -1.1061098
    Potential                0.0000000     0.0000000     1.4743443
    Potential                0.0000000     0.0000000    -1.1061098
    --------------------------------------------------------------
 @CHECKOUT-I, Total execution time (CPU/WALL):        1.44/       1.47 seconds.
--executable xvprop finished with status     0 in        1.49 seconds (walltime).
 --invoking executable--
/nfs/workspaces/public/cfour_mpi/bin/xvscf
  There are  218 functions in the AO basis.

  There are 4 irreducible representations.

       Irrep        # of functions
         1                 86
         2                 52
         3                 52
         4                 28


  Parameters for SCF calculation: 
        SCF reference function:  RHF  
  Maximum number of iterations:  150
     Full symmetry point group: CXv 
     Computational point group: C2v 
        Initial density matrix: MOREAD                 
     SCF convergence tolerance: 10**(-10)
  DIIS convergence acceleration:  ON
          Latest start for DIIS:   8
                     DIIS order:   6

  Memory information:    2523578 words required.
  Fock matrices are constructed from AO integral file.
 @GETMEM-I,  Allocated      19 MB of main memory.
  Initialization and symmetry analysis required      0.001 seconds.

  Adding electric field perturbation to one-electron Hamiltonian.
  Field direction     : Z
  Field strength      :  0.0002000 a.u.

  @INITGES-I, Occupancies from core Hamiltonian:

          Alpha population by irrep:   5    1    1    0
           Beta population by irrep:   5    1    1    0


 total no. of electrons in initial guess :  0.000000000000000E+000
  --------------------------------------------------------------------
  Iteration         Total Energy            Largest Density Difference
  --------------------------------------------------------------------
       0            18.601377410982614              0.0000000000D+00
   current occupation vector 
     5  1  1  0
     5  1  1  0
       1           -93.058414293113884              0.1771708475D+02
   current occupation vector 
     5  1  1  0
     5  1  1  0
       2           -98.378412717332765              0.1771405859D+02
   current occupation vector 
     5  1  1  0
     5  1  1  0
       3          -103.409580234826876              0.6838986344D+01
   current occupation vector 
     5  1  1  0
     5  1  1  0
       4           -98.859578735575013              0.6831437009D+01
   current occupation vector 
     5  1  1  0
     5  1  1  0
       5          -101.478745419207939              0.6345416058D+01
   current occupation vector 
     5  1  1  0
     5  1  1  0
       6           -97.377521335899786              0.6328442694D+01
   current occupation vector 
     5  1  1  0
     5  1  1  0
       7          -101.471533708244607              0.6478913891D+01
   current occupation vector 
     5  1  1  0
     5  1  1  0
       8           -97.288095935748032              0.6478592641D+01
   current occupation vector 
     5  1  1  0
     5  1  1  0
       9          -108.460388921473566              0.4927587852D+01
   current occupation vector 
     5  1  1  0
     5  1  1  0
      10          -110.452344426675182              0.1059028404D+01
   current occupation vector 
     5  1  1  0
     5  1  1  0
      11          -112.463516670416936              0.1205425904D+01
   current occupation vector 
     5  1  1  0
     5  1  1  0
      12          -112.679145111551435              0.4796371054D+00
   current occupation vector 
     5  1  1  0
     5  1  1  0
      13          -112.681149397831774              0.6831013337D-01
   current occupation vector 
     5  1  1  0
     5  1  1  0
      14          -112.681502995178448              0.2628301574D-01
   current occupation vector 
     5  1  1  0
     5  1  1  0
      15          -112.681530397526018              0.8969536169D-02
   current occupation vector 
     5  1  1  0
     5  1  1  0
      16          -112.681530858806440              0.9279280443D-03
   current occupation vector 
     5  1  1  0
     5  1  1  0
      17          -112.681530866438976              0.1369566896D-03
   current occupation vector 
     5  1  1  0
     5  1  1  0
      18          -112.681530866953210              0.3653613241D-04
   current occupation vector 
     5  1  1  0
     5  1  1  0
      19          -112.681530867024918              0.1436307635D-04
   current occupation vector 
     5  1  1  0
     5  1  1  0
      20          -112.681530867038987              0.8322311189D-05
   current occupation vector 
     5  1  1  0
     5  1  1  0
      21          -112.681530867038617              0.4143771251D-06
   current occupation vector 
     5  1  1  0
     5  1  1  0
      22          -112.681530867038845              0.1198528772D-06
   current occupation vector 
     5  1  1  0
     5  1  1  0
      23          -112.681530867037964              0.1529268445D-07
   current occupation vector 
     5  1  1  0
     5  1  1  0
      24          -112.681530867038873              0.5462944319D-08
   current occupation vector 
     5  1  1  0
     5  1  1  0
      25          -112.681530867039356              0.3887368205D-09
   current occupation vector 
     5  1  1  0
     5  1  1  0
      26          -112.681530867038020              0.2853408620D-09
   current occupation vector 
     5  1  1  0
     5  1  1  0
      27          -112.681530867038305              0.1877513700D-09
   current occupation vector 
     5  1  1  0
     5  1  1  0

  SCF has converged.

 Density matrix saved to file den.dat
 total electron number:   14.0000000000001     
     E(SCF)=      -112.681530867038504              0.3011080274D-10

  Eigenvector printing suppressed.

 @PUTMOS-I, Writing converged MOs to NEWMOS. 
 @PUTMOS-I, Symmetry   1 Full Blocks 21 Partial Blocksize   2
 @PUTMOS-I, Symmetry   2 Full Blocks 13 Partial Blocksize   0
 @PUTMOS-I, Symmetry   3 Full Blocks 13 Partial Blocksize   0
 @PUTMOS-I, Symmetry   4 Full Blocks  7 Partial Blocksize   0
 @PUTFOCK-I, Writing converged Fock matrix to NEWFOCK. 
 @PUTFOCK-I, Symmetry   1 Full Blocks 21 Partial Blocksize   2
 @PUTFOCK-I, Symmetry   2 Full Blocks 13 Partial Blocksize   0
 @PUTFOCK-I, Symmetry   3 Full Blocks 13 Partial Blocksize   0
 @PUTFOCK-I, Symmetry   4 Full Blocks  7 Partial Blocksize   0


 
  ORBITAL EIGENVALUES (ALPHA)  (1H = 27.2113834 eV)

       MO #        E(hartree)               E(eV)           FULLSYM    COMPSYM
       ----   --------------------   --------------------   -------   ---------
    1     1         -20.6628731809        -562.2653642706     SG+        A1 (1)
    2     2         -11.4570938650        -311.7633738112     SG+        A1 (1)
    3     3          -1.3770392216         -37.4711422148     SG+        A1 (1)
    4     4          -0.7929170113         -21.5763687980     SG+        A1 (1)
    5     5          -0.5638355799         -15.3427461393     SG+        A1 (1)
    6    87          -0.5539360933         -15.0733674146      PI        B1 (2)
    7   139          -0.5539360933         -15.0733674146      PI        B2 (3)
  +++++++++++++++++++++++++++++++++++++++++++++++++++++++++++++++++++++++++++++
    8   140           0.0396135456           1.0779393771      PI        B2 (3)
    9    88           0.0396135456           1.0779393771      PI        B1 (2)
   10     6           0.0634108721           1.7254975527     SG+        A1 (1)
   11     7           0.0702506632           1.9116177318     SG+        A1 (1)
   12   141           0.0933642088           2.5405692819      PI        B2 (3)
   13    89           0.0933642088           2.5405692819      PI        B1 (2)
   14     8           0.1564879304           4.2582530727     SG+        A1 (1)
   15   142           0.1709085357           4.6506576915      PI        B2 (3)
   16    90           0.1709085357           4.6506576915      PI        B1 (2)
   17     9           0.2261728982           6.1544774475      DE        A1 (1)
   18   191           0.2261728982           6.1544774475      DE        A2 (4)
   19    10           0.2263702798           6.1598484732     SG+        A1 (1)
   20    11           0.2995176303           8.1502890743     SG+        A1 (1)
   21   143           0.3002232146           8.1694889974      PI        B2 (3)
   22    91           0.3002232146           8.1694889974      PI        B1 (2)
   23    12           0.3744241004          10.1885977492     SG+        A1 (1)
   24   144           0.3980226961          10.8307481844      PI        B2 (3)
   25    92           0.3980226961          10.8307481844      PI        B1 (2)
   26    13           0.5075672826          13.8116079287     SG+        A1 (1)
   27    14           0.5175164783          14.0823393062     SG+        A1 (1)
   28   192           0.5455887062          14.8462234629      DE        A2 (4)
   29    15           0.5455887062          14.8462234629      DE        A1 (1)
   30    93           0.6250673820          17.0089481815      PI        B1 (2)
   31   145           0.6250673820          17.0089481815      PI        B2 (3)
   32   146           0.7418974248          20.1880552698      PH        B2 (3)
   33    94           0.7418974248          20.1880552698      PH        B1 (2)
   34    16           0.7432534073          20.2249534289     SG+        A1 (1)
   35    17           0.7550668642          20.5464139338      DE        A1 (1)
   36   193           0.7550668642          20.5464139338      DE        A2 (4)
   37   147           0.7967120436          21.6796368771      PI        B2 (3)
   38    95           0.7967120436          21.6796368771      PI        B1 (2)
   39    18           0.8252894212          22.4572668551     SG+        A1 (1)
   40    19           0.8677362798          23.6123046010     SG+        A1 (1)
   41   194           0.8768971229          23.8615838145      DE        A2 (4)
   42    20           0.8768971229          23.8615838145      DE        A1 (1)
   43    96           0.8971994515          24.4140382609      PI        B1 (2)
   44   148           0.8971994515          24.4140382609      PI        B2 (3)
   45    97           1.0369460887          28.2167375834      PI        B1 (2)
   46   149           1.0369460887          28.2167375834      PI        B2 (3)
   47    21           1.1234887347          30.5716827059     SG+        A1 (1)
   48    22           1.4081278750          38.3171074841     SG+        A1 (1)
   49    98           1.4309479837          38.9380742100      PH        B1 (2)
   50   150           1.4309479837          38.9380742100      PH        B2 (3)
   51   195           1.5572315318          42.3744242534      DE        A2 (4)
   52    23           1.5572315318          42.3744242534      DE        A1 (1)
   53    99           1.5634067494          42.5424604677      PI        B1 (2)
   54   151           1.5634067494          42.5424604677      PI        B2 (3)
   55    24           1.6404648352          44.6393175836     SG+        A1 (1)
   56   100           1.6579792541          45.1159091515      PI        B1 (2)
   57   152           1.6579792541          45.1159091515      PI        B2 (3)
   58    25           1.7252710422          46.9470117974      DE        A1 (1)
   59   196           1.7252710422          46.9470117975      DE        A2 (4)
   60    26           1.8655546554          50.7643229828     SG+        A1 (1)
   61    27           2.0210326027          54.9950930164     SG+        A1 (1)
   62   101           2.0747980182          56.4581243519      PI        B1 (2)
   63   153           2.0747980182          56.4581243519      PI        B2 (3)
   64    28           2.0877209308          56.8097746806      PI        A1 (1)
   65   197           2.0877209308          56.8097746806      PI        A2 (4)
   66   198           2.1553207992          58.6492606172      DE        A2 (4)
   67    29           2.1553207992          58.6492606172      DE        A1 (1)
   68   154           2.2297366779          60.6742196228      PH        B2 (3)
   69   102           2.2297366779          60.6742196228      PH        B1 (2)
   70   155           2.2729016880          61.8487992626      PI        B2 (3)
   71   103           2.2729016880          61.8487992626      PI        B1 (2)
   72   156           2.2796873699          62.0334470550      PH        B2 (3)
   73   104           2.2796873699          62.0334470550      PH        B1 (2)
   74    30           2.2814709715          62.0819813217     SG+        A1 (1)
   75    31           2.3230718662          63.2139992171      DE        A1 (1)
   76   199           2.3230718662          63.2139992171      DE        A2 (4)
   77    32           2.5005217115          68.0426549915     SG+        A1 (1)
   78   105           2.5323625174          68.9090873681      PI        B1 (2)
   79   157           2.5323625174          68.9090873681      PI        B2 (3)
   80    33           2.6397047880          71.8300190503     SG+        A1 (1)
   81   106           2.6652423174          72.5249305520      PI        B1 (2)
   82   158           2.6652423174          72.5249305520      PI        B2 (3)
   83    34           2.8085339256          76.4240934405      DE        A1 (1)
   84   200           2.8085339256          76.4240934406      DE        A2 (4)
   85    35           3.3056329215          89.9508448073     SG+        A1 (1)
   86   107           3.6012411887          97.9947547016      PI        B1 (2)
   87   159           3.6012411887          97.9947547016      PI        B2 (3)
   88   201           3.7013906727         100.7199607088      PI        A2 (4)
   89    36           3.7013906727         100.7199607088      PI        A1 (1)
   90    37           3.8992908072         106.1050971428     SG+        A1 (1)
   91   160           4.0423293725         109.9973743846      PH        B2 (3)
   92   108           4.0423293725         109.9973743846      PH        B1 (2)
   93   161           4.1267288880         112.2940019582      PH        B2 (3)
   94   109           4.1267288880         112.2940019582      PH        B1 (2)
   95   110           4.1732064498         113.5587207120      PI        B1 (2)
   96   162           4.1732064498         113.5587207120      PI        B2 (3)
   97    38           4.2131108718         114.6445752403     SG+        A1 (1)
   98    39           4.2170381565         114.7514420900      DE        A1 (1)
   99   202           4.2170381565         114.7514420900      DE        A2 (4)
  100   203           4.2872792794         116.6628002160      DE        A2 (4)
  101    40           4.2872792794         116.6628002160      DE        A1 (1)
  102    41           4.3892968962         119.4388406997     SG+        A1 (1)
  103   111           4.7640497444         129.6363841303      PI        B1 (2)
  104   163           4.7640497444         129.6363841303      PI        B2 (3)
  105    42           4.9227148189         133.9538803059      DE        A1 (1)
  106   204           4.9227148189         133.9538803059      DE        A2 (4)
  107    43           5.0096146906         136.3185460324     SG+        A1 (1)
  108   164           5.0327774451         136.9488366258      PI        B2 (3)
  109   112           5.0327774451         136.9488366258      PI        B1 (2)
  110    44           5.3686973765         146.0896826712     SG+        A1 (1)
  111   113           5.5234261693         150.3000671749      PI        B1 (2)
  112   165           5.5234261693         150.3000671750      PI        B2 (3)
  113   205           5.8638447524         159.5633277555      PI        A2 (4)
  114    45           5.8638447524         159.5633277555      PI        A1 (1)
  115   114           5.9683598885         162.4073291943      PH        B1 (2)
  116   166           5.9683598885         162.4073291943      PH        B2 (3)
  117    46           6.1903122561         168.4469601677     SG+        A1 (1)
  118   206           6.2070584668         168.9026477266      DE        A2 (4)
  119    47           6.2070584668         168.9026477266      DE        A1 (1)
  120   167           6.2351803028         169.6678817873      PI        B2 (3)
  121   115           6.2351803028         169.6678817873      PI        B1 (2)
  122    48           6.3882475270         173.8330527106     SG+        A1 (1)
  123   116           6.3988286031         174.1209784289      PH        B1 (2)
  124   168           6.3988286031         174.1209784289      PH        B2 (3)
  125    49           6.5301880817         177.6954515659      DE        A1 (1)
  126   207           6.5301880817         177.6954515659      DE        A2 (4)
  127   208           6.6370887669         180.6043670953      DE        A2 (4)
  128    50           6.6370887669         180.6043670953      DE        A1 (1)
  129   169           7.0342601617         191.4119501944      PI        B2 (3)
  130   117           7.0342601617         191.4119501945      PI        B1 (2)
  131    51           7.3409569682         199.7575945855     SG+        A1 (1)
  132   170           7.7849203737         211.8384530266      PI        B2 (3)
  133   118           7.7849203737         211.8384530266      PI        B1 (2)
  134    52           8.2953060458         225.7267532338     SG+        A1 (1)
  135    53           9.8518231659         268.0817373556     SG+        A1 (1)
  136   171          10.0103546715         272.3955989374      PI        B2 (3)
  137   119          10.0103546715         272.3955989374      PI        B1 (2)
  138   209          10.6228810583         289.0632892890      PI        A2 (4)
  139    54          10.6228810583         289.0632892890      PI        A1 (1)
  140   172          10.7769454290         293.2555939490      PH        B2 (3)
  141   120          10.7769454290         293.2555939490      PH        B1 (2)
  142    55          10.8016498207         293.9278346227     SG+        A1 (1)
  143    56          11.0108743098         299.6211224143      DE        A1 (1)
  144   210          11.0108743098         299.6211224143      DE        A2 (4)
  145   173          11.1085410529         302.2787696054      PI        B2 (3)
  146   121          11.1085410529         302.2787696054      PI        B1 (2)
  147    57          11.4234962411         310.8491359853     SG+        A1 (1)
  148   174          11.8659527094         322.8889885826      PH        B2 (3)
  149   122          11.8659527094         322.8889885826      PH        B1 (2)
  150    58          12.0851923158         328.8548015676      DE        A1 (1)
  151   211          12.0851923158         328.8548015679      DE        A2 (4)
  152   175          12.6066623758         343.0447233033      PI        B2 (3)
  153   123          12.6066623758         343.0447233033      PI        B1 (2)
  154    59          12.7701808084         347.4942860657      DE        A1 (1)
  155   212          12.7701808084         347.4942860657      DE        A2 (4)
  156    60          12.9343531871         351.9616436064     SG+        A1 (1)
  157   176          13.1836216816         358.7445841789      PI        B2 (3)
  158   124          13.1836216816         358.7445841789      PI        B1 (2)
  159    61          14.1199300627         384.2228305160     SG+        A1 (1)
  160    62          17.5757214570         478.2596950969     SG+        A1 (1)
  161   125          18.9476693956         515.5922964593      PI        B1 (2)
  162   177          18.9476693956         515.5922964596      PI        B2 (3)
  163    63          20.3923159299         554.9031271829     SG+        A1 (1)
  164   213          26.3517581295         717.0677937257      DE        A2 (4)
  165    64          26.3517581295         717.0677937257      DE        A1 (1)
  166   178          26.7731913013         728.5355733414      PI        B2 (3)
  167   126          26.7731913013         728.5355733414      PI        B1 (2)
  168    65          27.3286158428         743.6494434889     SG+        A1 (1)
  169   179          33.6592339663         915.9143204077      PI        B2 (3)
  170   127          33.6592339663         915.9143204081      PI        B1 (2)
  171    66          34.4195175272         936.6026878743     SG+        A1 (1)
  172    67          36.1011250560         982.3615550692     SG+        A1 (1)
  173    68          47.0821089197        1281.1693170937      DE        A1 (1)
  174   214          47.0821089197        1281.1693170938      DE        A2 (4)
  175   180          47.2909158928        1286.8512436975      PI        B2 (3)
  176   128          47.2909158928        1286.8512436975      PI        B1 (2)
  177    69          47.8780697023        1302.8285111219     SG+        A1 (1)
  178    70          63.9406973455        1739.9148303325     SG+        A1 (1)
  179   129          66.4844301343        1809.1333185155      PI        B1 (2)
  180   181          66.4844301343        1809.1333185157      PI        B2 (3)
  181    71          67.5253143582        1837.4572182073     SG+        A1 (1)
  182   130          98.5745885933        2682.3509237089      PH        B1 (2)
  183   182          98.5745885933        2682.3509237089      PH        B2 (3)
  184    72          98.5884642664        2682.7284999703      DE        A1 (1)
  185   215          98.5884642664        2682.7284999704      DE        A2 (4)
  186   131          98.6125349683        2683.3834970682      PI        B1 (2)
  187   183          98.6125349683        2683.3834970682      PI        B2 (3)
  188    73          98.6338953057        2683.9647413997     SG+        A1 (1)
  189   184         103.2883714930        2810.6194774574      PH        B2 (3)
  190   132         103.2883714930        2810.6194774575      PH        B1 (2)
  191   216         103.3081246443        2811.1569880303      DE        A2 (4)
  192    74         103.3081246443        2811.1569880304      DE        A1 (1)
  193   185         103.3523033153        2812.3591507852      PI        B2 (3)
  194   133         103.3523033153        2812.3591507852      PI        B1 (2)
  195    75         103.3579203664        2812.5119985166     SG+        A1 (1)
  196   217         115.0409004080        3130.4220476830      DE        A2 (4)
  197    76         115.0409004080        3130.4220476831      DE        A1 (1)
  198   186         115.2434936280        3135.9348894668      PI        B2 (3)
  199   134         115.2434936280        3135.9348894668      PI        B1 (2)
  200    77         115.5365878782        3143.9103894816     SG+        A1 (1)
  201   187         116.9285848330        3181.7885523105      PI        B2 (3)
  202   135         116.9285848330        3181.7885523110      PI        B1 (2)
  203    78         117.5507075614        3198.7173723935     SG+        A1 (1)
  204    79         122.2855515210        3327.5590267184     SG+        A1 (1)
  205   218         198.5536684867        5402.9199986694      DE        A2 (4)
  206    80         198.5536684868        5402.9199986695      DE        A1 (1)
  207   136         198.6656007859        5405.9658313753      PI        B1 (2)
  208   188         198.6656007859        5405.9658313754      PI        B2 (3)
  209    81         198.9737304107        5414.3504647327     SG+        A1 (1)
  210    82         216.4681791466        5890.3986166584     SG+        A1 (1)
  211   137         224.9411857582        6120.9608481165      PI        B1 (2)
  212   189         224.9411857582        6120.9608481166      PI        B2 (3)
  213    83         225.7548115391        6143.1007311862     SG+        A1 (1)
  214   190         395.4016672274       10759.4263639233      PI        B2 (3)
  215   138         395.4016672274       10759.4263639239      PI        B1 (2)
  216    84         395.9296697743       10773.7940436649     SG+        A1 (1)
  217    85         508.9086131311       13848.1073874723     SG+        A1 (1)
  218    86         895.3020418545       24362.4071197063     SG+        A1 (1)


  VSCF finished.

 @CHECKOUT-I, Total execution time (CPU/WALL):       50.38/      10.70 seconds.
--executable xvscf finished with status     0 in       10.72 seconds (walltime).
 --invoking executable--
/nfs/workspaces/public/cfour_mpi/bin/xvtran
 @GETMEM-I,  Allocated    3814 MB of main memory.
  Full RHF integral transformation
  Transformation of IIII integrals :
  1 pass through the AO integral file was required.
     4506257 AO integrals were read.
     8744665 MO integrals were written to HF2.
  Transformation of IIJJ integrals :
  1 pass through the AO integral file was required.
    10224598 AO integrals were read.
    14517489 MO integrals were written to HF2.
  Transformation of IJIJ integrals :
  1 pass through the AO integral file was required.
    19416544 AO integrals were read.
    27130109 MO integrals were written to HF2.
  Transformation of IJKL integrals :
  1 pass through the AO integral file was required.
    14375169 AO integrals were read.
    18312450 MO integrals were written to HF2.
  Summary of active molecular orbitals: 
------------------------------------------------------------------------
 
  Index      Eigenvalue    Symmetry    Index      Eigenvalue    Symmetry
------------------------------------------------------------------------
     1       -20.6628732        1       110         4.1267289        2
     2       -11.4570939        1       111         4.1732064        2
     3        -1.3770392        1       112         4.7640497        2
     4        -0.7929170        1       113         5.0327774        2
     5        -0.5638356        1       114         5.5234262        2
     6        -0.5539361        2       115         5.9683599        2
     7        -0.5539361        3       116         6.2351803        2
     8         0.0634109        1       117         6.3988286        2
     9         0.0702507        1       118         7.0342602        2
    10         0.1564879        1       119         7.7849204        2
    11         0.2261729        1       120        10.0103547        2
    12         0.2263703        1       121        10.7769454        2
    13         0.2995176        1       122        11.1085411        2
    14         0.3744241        1       123        11.8659527        2
    15         0.5075673        1       124        12.6066624        2
    16         0.5175165        1       125        13.1836217        2
    17         0.5455887        1       126        18.9476694        2
    18         0.7432534        1       127        26.7731913        2
    19         0.7550669        1       128        33.6592340        2
    20         0.8252894        1       129        47.2909159        2
    21         0.8677363        1       130        66.4844301        2
    22         0.8768971        1       131        98.5745886        2
    23         1.1234887        1       132        98.6125350        2
    24         1.4081279        1       133       103.2883715        2
    25         1.5572315        1       134       103.3523033        2
    26         1.6404648        1       135       115.2434936        2
    27         1.7252710        1       136       116.9285848        2
    28         1.8655547        1       137       198.6656008        2
    29         2.0210326        1       138       224.9411858        2
    30         2.0877209        1       139       395.4016672        2
    31         2.1553208        1       140         0.0396135        3
    32         2.2814710        1       141         0.0933642        3
    33         2.3230719        1       142         0.1709085        3
    34         2.5005217        1       143         0.3002232        3
    35         2.6397048        1       144         0.3980227        3
    36         2.8085339        1       145         0.6250674        3
    37         3.3056329        1       146         0.7418974        3
    38         3.7013907        1       147         0.7967120        3
    39         3.8992908        1       148         0.8971995        3
    40         4.2131109        1       149         1.0369461        3
    41         4.2170382        1       150         1.4309480        3
    42         4.2872793        1       151         1.5634067        3
    43         4.3892969        1       152         1.6579793        3
    44         4.9227148        1       153         2.0747980        3
    45         5.0096147        1       154         2.2297367        3
    46         5.3686974        1       155         2.2729017        3
    47         5.8638448        1       156         2.2796874        3
    48         6.1903123        1       157         2.5323625        3
    49         6.2070585        1       158         2.6652423        3
    50         6.3882475        1       159         3.6012412        3
    51         6.5301881        1       160         4.0423294        3
    52         6.6370888        1       161         4.1267289        3
    53         7.3409570        1       162         4.1732064        3
    54         8.2953060        1       163         4.7640497        3
    55         9.8518232        1       164         5.0327774        3
    56        10.6228811        1       165         5.5234262        3
    57        10.8016498        1       166         5.9683599        3
    58        11.0108743        1       167         6.2351803        3
    59        11.4234962        1       168         6.3988286        3
    60        12.0851923        1       169         7.0342602        3
    61        12.7701808        1       170         7.7849204        3
    62        12.9343532        1       171        10.0103547        3
    63        14.1199301        1       172        10.7769454        3
    64        17.5757215        1       173        11.1085411        3
    65        20.3923159        1       174        11.8659527        3
    66        26.3517581        1       175        12.6066624        3
    67        27.3286158        1       176        13.1836217        3
    68        34.4195175        1       177        18.9476694        3
    69        36.1011251        1       178        26.7731913        3
    70        47.0821089        1       179        33.6592340        3
    71        47.8780697        1       180        47.2909159        3
    72        63.9406973        1       181        66.4844301        3
    73        67.5253144        1       182        98.5745886        3
    74        98.5884643        1       183        98.6125350        3
    75        98.6338953        1       184       103.2883715        3
    76       103.3081246        1       185       103.3523033        3
    77       103.3579204        1       186       115.2434936        3
    78       115.0409004        1       187       116.9285848        3
    79       115.5365879        1       188       198.6656008        3
    80       117.5507076        1       189       224.9411858        3
    81       122.2855515        1       190       395.4016672        3
    82       198.5536685        1       191         0.2261729        4
    83       198.9737304        1       192         0.5455887        4
    84       216.4681791        1       193         0.7550669        4
    85       225.7548115        1       194         0.8768971        4
    86       395.9296698        1       195         1.5572315        4
    87       508.9086131        1       196         1.7252710        4
    88       895.3020419        1       197         2.0877209        4
    89         0.0396135        2       198         2.1553208        4
    90         0.0933642        2       199         2.3230719        4
    91         0.1709085        2       200         2.8085339        4
    92         0.3002232        2       201         3.7013907        4
    93         0.3980227        2       202         4.2170382        4
    94         0.6250674        2       203         4.2872793        4
    95         0.7418974        2       204         4.9227148        4
    96         0.7967120        2       205         5.8638448        4
    97         0.8971995        2       206         6.2070585        4
    98         1.0369461        2       207         6.5301881        4
    99         1.4309480        2       208         6.6370888        4
   100         1.5634067        2       209        10.6228811        4
   101         1.6579793        2       210        11.0108743        4
   102         2.0747980        2       211        12.0851923        4
   103         2.2297367        2       212        12.7701808        4
   104         2.2729017        2       213        26.3517581        4
   105         2.2796874        2       214        47.0821089        4
   106         2.5323625        2       215        98.5884643        4
   107         2.6652423        2       216       103.3081246        4
   108         3.6012412        2       217       115.0409004        4
   109         4.0423294        2       218       198.5536685        4
------------------------------------------------------------------------
  -20.6628731808818       -11.4570938650344       -1.37703922156339     
 -0.792917011267544      -0.563835579903920      -0.553936093326374     
 -0.553936093326355       6.341087210924477E-002  7.025066324820334E-002
  0.156487930440529       0.226172898195857       0.226370279771778     
  0.299517630343663       0.374424100363880       0.507567282619532     
  0.517516478277921       0.545588706190481       0.743253407280832     
  0.755066864177897       0.825289421157861       0.867736279847798     
  0.876897122934336        1.12348873471493        1.40812787504679     
   1.55723153176246        1.64046483515417        1.72527104217145     
   1.86555465543892        2.02103260271598        2.08772093081337     
   2.15532079920740        2.28147097150931        2.32307186620735     
   2.50052171149521        2.63970478804328        2.80853392556814     
   3.30563292152698        3.70139067272872        3.89929080720097     
   4.21311087183776        4.21703815653887        4.28727927944939     
   4.38929689622686        4.92271481889719        5.00961469060706     
   5.36869737652531        5.86384475239521        6.19031225614645     
   6.20705846681104        6.38824752697398        6.53018808172392     
   6.63708876687492        7.34095696823489        8.29530604584286     
   9.85182316587332        10.6228810582622        10.8016498206672     
   11.0108743098399        11.4234962411088        12.0851923157864     
   12.7701808084354        12.9343531871448        14.1199300626517     
[...]
 Convergence information after    12 iterations: 
 Largest element of residual vector : -0.27588989E-05.
 Largest element of DIIS residual   : -0.16078185E-05.
 Convergence information after    13 iterations: 
 Largest element of residual vector : -0.12937938E-05.
 Largest element of DIIS residual   : -0.61223247E-06.
 Convergence information after    14 iterations: 
 Largest element of residual vector : -0.73708042E-06.
 Largest element of DIIS residual   : -0.39563555E-06.
 Convergence information after    15 iterations: 
 Largest element of residual vector : -0.27420116E-06.
 Largest element of DIIS residual   : -0.16821870E-06.
 Convergence information after    16 iterations: 
 Largest element of residual vector : -0.16354258E-06.
 Largest element of DIIS residual   : -0.70868742E-07.
 Perturbed amplitude equations converged in    16 iterations.
  Dominant contributions to perturbed wavefunction:
    7    7  140   28  -0.2426935081 ABAB
    7    7   28  140  -0.2426935081 ABAB
    7    7  140   39  -0.2109378181 ABAB
    7    7   39  140  -0.2109378181 ABAB
    7    7  140   54  -0.1673499610 ABAB
    7    7   54  140  -0.1673499610 ABAB
    7    7  141   28  -0.1554158423 ABAB
    7    7   28  141  -0.1554158423 ABAB
    7    6   28   89  -0.1552889122 ABAB
    6    7   89   28  -0.1552889122 ABAB
    7    7  140   20  -0.1466112384 ABAB
    7    7   20  140  -0.1466112384 ABAB
    7    7  141   39  -0.1399208667 ABAB
    7    7   39  141  -0.1399208667 ABAB
    7    7  140   45   0.1360546070 ABAB
    7    7   45  140   0.1360546070 ABAB
    7    6   39   89  -0.1354720341 ABAB
    6    7   89   39  -0.1354720341 ABAB
    7    7  140   21  -0.1277864304 ABAB
    7    7   21  140  -0.1277864304 ABAB
  norm of converged amps    1.95643388200576     
 Starting iterative solution of the perturbed Lambda equations.
 The DIIS procedure is used to accelerate convergence.
 Convergence criterion is 10**(-7).
 Maximum number of iterations is 100.
 Convergence information after     1 iterations: 
 Largest element of residual vector :  0.62237939E-01.
 Largest element of DIIS residual   :  0.62237939E-01.
 Convergence information after     2 iterations: 
 Largest element of residual vector : -0.12958798E-01.
 Largest element of DIIS residual   :  0.81296698E-02.
 Convergence information after     3 iterations: 
 Largest element of residual vector :  0.53131512E-02.
 Largest element of DIIS residual   :  0.47997778E-02.
 Convergence information after     4 iterations: 
 Largest element of residual vector :  0.33853742E-02.
 Largest element of DIIS residual   :  0.29442440E-02.
 Convergence information after     5 iterations: 
 Largest element of residual vector :  0.24030315E-02.
 Largest element of DIIS residual   :  0.14091643E-02.
 Convergence information after     6 iterations: 
 Largest element of residual vector :  0.96421196E-03.
 Largest element of DIIS residual   :  0.38953043E-03.
 Convergence information after     7 iterations: 
 Largest element of residual vector :  0.37165359E-03.
 Largest element of DIIS residual   : -0.13081224E-03.
 Convergence information after     8 iterations: 
 Largest element of residual vector :  0.85295285E-04.
 Largest element of DIIS residual   :  0.57370418E-04.
 Convergence information after     9 iterations: 
 Largest element of residual vector :  0.35260750E-04.
 Largest element of DIIS residual   :  0.11235439E-04.
 Convergence information after    10 iterations: 
 Largest element of residual vector :  0.86504820E-05.
 Largest element of DIIS residual   : -0.57792766E-05.
 Convergence information after    11 iterations: 
 Largest element of residual vector : -0.33022998E-05.
 Largest element of DIIS residual   : -0.19735659E-05.
 Convergence information after    12 iterations: 
 Largest element of residual vector : -0.20267149E-05.
 Largest element of DIIS residual   : -0.15949537E-05.
 Convergence information after    13 iterations: 
 Largest element of residual vector : -0.11705503E-05.
 Largest element of DIIS residual   : -0.84197826E-06.
 Convergence information after    14 iterations: 
 Largest element of residual vector : -0.82752144E-06.
 Largest element of DIIS residual   : -0.58948389E-06.
 Convergence information after    15 iterations: 
 Largest element of residual vector : -0.40700541E-06.
 Largest element of DIIS residual   : -0.25173581E-06.
 Convergence information after    16 iterations: 
 Largest element of residual vector : -0.22896641E-06.
 Largest element of DIIS residual   : -0.96888287E-07.
 Perturbed Lambda equations converged in    16 iterations.
  Dominant contributions to perturbed wavefunction:
    7    7  140   28  -0.2205352878 ABAB
    7    7   28  140  -0.2205352878 ABAB
    7    7  140   39  -0.1895082440 ABAB
    7    7   39  140  -0.1895082440 ABAB
    7    7  140   54  -0.1534888005 ABAB
    7    7   54  140  -0.1534888005 ABAB
    7    7  141   28  -0.1398912685 ABAB
    7    7   28  141  -0.1398912685 ABAB
    7    6   28   89  -0.1386193673 ABAB
    6    7   89   28  -0.1386193673 ABAB
    7    7  140   20  -0.1306402695 ABAB
    7    7   20  140  -0.1306402695 ABAB
    7    7  141   39  -0.1245449805 ABAB
    7    7   39  141  -0.1245449805 ABAB
    7    7  140   45   0.1217471647 ABAB
    7    7   45  140   0.1217471647 ABAB
    7    6   39   89  -0.1196004949 ABAB
    6    7   89   39  -0.1196004949 ABAB
    7    7  140   21  -0.1156967340 ABAB
    7    7   21  140  -0.1156967340 ABAB
        The DBOC first-order density matrix is being calculated 
             (Symmetry block 3, perturbation   2)
 term   4.28613537816726     
 final tnorm  0.852398029876328     
  norm contr. I: |<0|L dT/dx|0>|^2   0.000000000000000E+000
  norm contr. II: <0|[nabla(1+L)e-T][nabla e^T]|0>   4.28613537816726     
  total norm contribution   4.28613537816726     
 oo  8.201065885578066E-003
 vv  -32.1281919071431     
 vo  7.070098454973031E-002
  Correlated perturbed 1-el contribution to DBOC  -32.0492898567078       cm**-1
  SUM_I |dc_I/dx|^2 contribution to DBOC   16.1360550368633       cm**-1
 
 
  The total diagonal Born-Oppenheimer correction (DBOC) is:      0.0041390670 a.u.
  The total diagonal Born-Oppenheimer correction (DBOC) is:        908.420195 cm-1
 
 Total CC energy including DBOC  -113.200004844701     
 First-order density matrix is being calculated  (Symmetry block 3, perturbation   2)
 Calculation of the contributions of <pq||rs> to dI(i,j)/dx required   1.9 seconds.
 Calculation of the contributions of <pq||rs> to dI(a,b)/dx required  15.8 seconds.
 Calculation of the contributions of <pq||rs> to dI(i,a)/dx required   9.9 seconds.
 First-order Z-vector equations are solved for 1 perturbation.
 Convergence reached after  19 iterations.
        U*G(pq,rs) contribution is being calculated
             (Symmetry block 3, perturbation   2)

 CCSD contribution to force constants 

        0.0000000000        0.0000000000        0.0000000000
        0.0000000000        0.0000000000        0.0000000000
        0.0000000000        0.0000000000        0.0000000000
        0.0000000000        0.0000000000        0.0000000000
        0.0000000000        0.0000000000        0.0000000000
        0.0000000000        0.0000000000        0.0000000000
        0.0000000000        0.0000000000        0.0000000000
        0.0000000000        0.0000000000        0.0000000000
        0.0000000000        0.0000000000        0.0000000000
        0.0000000000        0.0000000000        0.0000000000
        0.0000000000        0.0000000000        0.0000000000
        0.0000000000        0.7696503049       -0.7696503049

 CCSD contribution to dipole derivatives 

        0.0000000000        0.0000000000        0.0000000000
        0.0000000000        0.0000000000        0.0000000000
        0.0000000000        0.0000000000        0.0000000000
        0.0000000000        0.0000000000       -0.0534465082
        0.0000000000        0.0000000000        0.0000000000
        0.0000000000        0.0000000000        0.0000000000
 @CHECKOUT-I, Total execution time (CPU/WALL):     1053.59/     263.81 seconds.
--executable xsdcc finished with status     0 in      263.84 seconds (walltime).
 --invoking executable--
/nfs/workspaces/public/cfour_mpi/bin/xanti
 @GETMEM-I,  Allocated    3814 MB of main memory.
 CCSD MO derivative gammas will be sorted to Mulliken order.
 @CHECKOUT-I, Total execution time (CPU/WALL):       10.05/      13.47 seconds.
--executable xanti finished with status     0 in       13.49 seconds (walltime).
 --invoking executable--
/nfs/workspaces/public/cfour_mpi/bin/xbcktrn
 @GETMEM-I,  Allocated    3814 MB of main memory.
 CCSD MO derivative gammas will be transformed to the AO basis.
 @CHECKOUT-I, Total execution time (CPU/WALL):       22.19/       6.01 seconds.
--executable xbcktrn finished with status     0 in        6.03 seconds (walltime).
 --invoking executable--
/nfs/workspaces/public/cfour_mpi/bin/xvdint
 @GETMEM-I,  Allocated    3814 MB of main memory.
 One- and two-electron integral derivatives are calculated
 for RHF-CC/MBPT hessians and dipole derivatives.
 Spherical gaussians are used.
  magnet F F
                    8722  records have been written to the Sort file.
  Total length of Sort file :             178609116  words.
 Evaluation of 2el integral derivatives

                      Two-electron integral gradient
                      ------------------------------

                         C #1 z     0.0000000000
                         O #2 z     0.0000000000


 C #1       0.0000000000           -0.1017612097            0.0000000000
 O #2       0.0000000000            0.1017612097            0.0000000000


 Evaluation of 2e integral derivatives required  350.64 seconds.
  contribution to Hessian
        0.0000000000        0.0000000000        0.0000000000
        0.0000000000       -0.1017612097        0.1017612097
 @CHECKOUT-I, Total execution time (CPU/WALL):      350.64/      69.41 seconds.
--executable xvdint finished with status     0 in       69.43 seconds (walltime).
 --invoking executable--
/nfs/workspaces/public/cfour_mpi/bin/xanti
 @GETMEM-I,  Allocated    3814 MB of main memory.
 CCSD MO gammas will be sorted to Mulliken order.
 @CHECKOUT-I, Total execution time (CPU/WALL):       11.23/       9.87 seconds.
--executable xanti finished with status     0 in        9.90 seconds (walltime).
 --invoking executable--
/nfs/workspaces/public/cfour_mpi/bin/xbcktrn
 @GETMEM-I,  Allocated    3814 MB of main memory.
 CCSD MO gammas will be transformed to the AO basis.
 @CHECKOUT-I, Total execution time (CPU/WALL):       27.13/       4.06 seconds.
--executable xbcktrn finished with status     0 in        4.08 seconds (walltime).
 --invoking executable--
/nfs/workspaces/public/cfour_mpi/bin/xvdint
 @GETMEM-I,  Allocated    3814 MB of main memory.
 One- and two-electron integral derivatives are calculated
 for RHF-CC/MBPT hessians and dipole derivatives.
 Spherical gaussians are used.
  magnet F F

                     Kinetic energy integral gradient
                     --------------------------------

                         C #1 z    -0.8876210204
                         O #2 z     0.8876210204


 C #1       0.0000000000            0.0000000000           -0.8876210204
 O #2       0.0000000000            0.0000000000            0.8876210204



                   Nuclear attraction integral gradient
                   ------------------------------------

                         C #1 z    17.8350216905
                         O #2 z   -17.8350216905


 C #1       0.0000000000            0.0000000000           17.8350216905
 O #2       0.0000000000            0.0000000000          -17.8350216905



                      Reorthonormalization gradient
                      -----------------------------

                         C #1 z     0.0000000000
                         O #2 z     0.0000000000


 C #1       0.0000000000            0.0000000000            0.0000000000
 O #2       0.0000000000            0.0000000000            0.0000000000



                     Kinetic energy integral Hessian
                     -------------------------------


           Symmetry 1

           C #1 z      O #2 z

 C #1 z    0.871983
 O #2 z   -0.871983    0.871983


           Symmetry 2

           C #1 x      O #2 x

 C #1 x   -0.862707
 O #2 x    0.862707   -0.862707


           Symmetry 3

           C #1 y      O #2 y

 C #1 y   -0.862707
 O #2 y    0.862707   -0.862707




           C #1 x      C #1 y      C #1 z      O #2 x      O #2 y      O #2 z

 C #1 x   -0.862707
 C #1 y    0.000000   -0.862707
 C #1 z    0.000000    0.000000    0.871983

 O #2 x    0.862707    0.000000    0.000000   -0.862707
 O #2 y    0.000000    0.862707    0.000000    0.000000   -0.862707
 O #2 z    0.000000    0.000000   -0.871983    0.000000    0.000000    0.871983




                   Nuclear attraction integral Hessian
                   -----------------------------------


           Symmetry 1

           C #1 z      O #2 z

 C #1 z  -11.029642
 O #2 z   11.029642  -11.029642


           Symmetry 2

           C #1 x      O #2 x

 C #1 x   11.983636
 O #2 x  -11.983636   11.983636


           Symmetry 3

           C #1 y      O #2 y

 C #1 y   11.983636
 O #2 y  -11.983636   11.983636




           C #1 x      C #1 y      C #1 z      O #2 x      O #2 y      O #2 z

 C #1 x   11.983636
 C #1 y    0.000000   11.983636
 C #1 z    0.000000    0.000000  -11.029642

 O #2 x  -11.983636    0.000000    0.000000   11.983636
 O #2 y    0.000000  -11.983636    0.000000    0.000000   11.983636
 O #2 z    0.000000    0.000000   11.029642    0.000000    0.000000  -11.029642




                Highest order reorthonormalization Hessian
                ------------------------------------------


           Symmetry 1

           C #1 z      O #2 z

 C #1 z    0.000000
 O #2 z    0.000000    0.000000


           Symmetry 2

           C #1 x      O #2 x

 C #1 x    0.000000
 O #2 x    0.000000    0.000000


           Symmetry 3

           C #1 y      O #2 y

 C #1 y    0.000000
 O #2 y    0.000000    0.000000




           C #1 x      C #1 y      C #1 z      O #2 x      O #2 y      O #2 z




                Electronic contributions to dipole moment
                -----------------------------------------

                               au             Debye

                    z      0.24955782      0.63431282

  Conversion factor used: 1 a.u. =   2.54174691 Debye 



   Electronic contributions to static part of dipole moment derivatives
   --------------------------------------------------------------------


                     Total dipole moment derivatives
                     -------------------------------


           Symmetry 1
                              Ez

               C #1 z    -5.65145124
               O #2 z    -8.34854876

           Symmetry 2
                              Ex

               C #1 x    -5.68627287
               O #2 x    -8.31372713

           Symmetry 3
                              Ey

               C #1 y    -5.68627287
               O #2 y    -8.31372713



                       Ex          Ey          Ez

      C #1    x   -5.686273    0.000000    0.000000
      C #1    y    0.000000   -5.686273    0.000000
      C #1    z    0.000000    0.000000   -5.651451

      O #2    x   -8.313727    0.000000    0.000000
      O #2    y    0.000000   -8.313727    0.000000
      O #2    z    0.000000    0.000000   -8.348549

 Evaluation of 1e integral derivatives required    1.62 seconds.
                    8815  records have been written to the Sort file.
  Total length of Sort file :             180513570  words.
 Evaluation of 2el integral derivatives

                      Two-electron integral gradient
                      ------------------------------

                         C #1 z    -9.0637451573
                         O #2 z     9.0637451573


 C #1       0.0000000000            0.0000000000           -9.0637451573
 O #2       0.0000000000            0.0000000000            9.0637451573


 Evaluation of 2e integral derivatives required  702.91 seconds.

                            Molecular gradient
                            ------------------

                         C #1 z     0.6750884157
                         O #2 z    -0.6750884157


 C #1       0.0000000000            0.0000000000            0.6750884157
 O #2       0.0000000000            0.0000000000           -0.6750884157


  Molecular gradient norm 0.955E+00

                            Molecular hessian
                            -----------------


           Symmetry 1

           C #1 z      O #2 z

 C #1 z   34.095682
 O #2 z  -34.095682   34.095682


           Symmetry 2

           C #1 x      O #2 x

 C #1 x   -0.378801
 O #2 x    0.378801   -0.378801


           Symmetry 3

           C #1 y      O #2 y

 C #1 y   -0.378801
 O #2 y    0.378801   -0.378801




           C #1 x      C #1 y      C #1 z      O #2 x      O #2 y      O #2 z

 C #1 x   -0.378801
 C #1 y    0.000000   -0.378801
 C #1 z    0.000000    0.000000   34.095682

 O #2 x    0.378801    0.000000    0.000000   -0.378801
 O #2 y    0.000000    0.378801    0.000000    0.000000   -0.378801
 O #2 z    0.000000    0.000000  -34.095682    0.000000    0.000000   34.095682




                           Total dipole moment
                           -------------------

                               au             Debye

                    z      0.24674533      0.62716419

  Conversion factor used: 1 a.u. =   2.54174691 Debye 



                     Total dipole moment derivatives
                     -------------------------------


           Symmetry 1
                              Ez

               C #1 z     0.68452541
               O #2 z    -0.68452541

           Symmetry 2
                              Ex

               C #1 x     0.09618549
               O #2 x    -0.09618549

           Symmetry 3
                              Ey

               C #1 y     0.09618549
               O #2 y    -0.09618549



                       Ex          Ey          Ez

      C #1    x    0.096185    0.000000    0.000000
      C #1    y    0.000000    0.096185    0.000000
      C #1    z    0.000000    0.000000    0.684525

      O #2    x   -0.096185    0.000000    0.000000
      O #2    y    0.000000   -0.096185    0.000000
      O #2    z    0.000000    0.000000   -0.684525

 @CHECKOUT-I, Total execution time (CPU/WALL):      704.52/     116.87 seconds.
--executable xvdint finished with status     0 in      116.89 seconds (walltime).
 --invoking executable--
/nfs/workspaces/public/cfour_mpi/bin/xjoda
  @GTFLGS-I, Hessian will be transformed to curvilinear coordinates.
  @GTFLGS-I, Hessian will be transformed to curvilinear coordinates.
  igrd and ihes are                      0                     1
  gradient from JOBARC 
   0.000000000000000   0.000000000000000   0.675088415748816
   0.000000000000000   0.000000000000000  -0.675088415748816
 
  @PROJFCM-I, Projecting force constant matrix onto totally symmetric subspace.
  Largest difference between matrix elements of symmetrized
  and unsymmetrized FCM :    -0.1990352327E-11.
  read isotopes from ZMAT file 
 
  Summary of diagonal Born-Oppenheimer correction at the correlated level
  The total diagonal Born-Oppenheimer correction (DBOC) is:      0.0041390670 a.u.
  The total diagonal Born-Oppenheimer correction (DBOC) is:        908.420195 cm-1
  The total diagonal Born-Oppenheimer correction (DBOC) is:            10.867 kJ/mole
  hellooooooo 
  readis is  F
 
 @CHECKOUT-I, Total execution time (CPU/WALL):        0.01/       0.05 seconds.
--executable xjoda finished with status     0 in        0.08 seconds (walltime).
  The final electronic energy is      -113.200004844701098 a.u. 
  This computation required                         2551.96 seconds (walltime).
