 --invoking executable--
/nfs/workspaces/public/cfour_mpi/bin/xjoda


   *************************************************************************
         <<<     CCCCCC     CCCCCC   |||     CCCCCC     CCCCCC   >>>
       <<<      CCC        CCC       |||    CCC        CCC         >>>
      <<<      CCC        CCC        |||   CCC        CCC            >>>
    <<<        CCC        CCC        |||   CCC        CCC              >>>
      <<<      CCC        CCC        |||   CCC        CCC            >>>
       <<<      CCC        CCC       |||    CCC        CCC         >>>
         <<<     CCCCCC     CCCCCC   |||     CCCCCC     CCCCCC   >>>
   *************************************************************************

     ****************************************************************
     * CFOUR Coupled-Cluster techniques for Computational Chemistry *
     ****************************************************************
 

   Department of Chemistry                Institut fuer Physikalische Chemie
   University of Florida                  Universitaet Mainz
   Gainesville, FL 32611, USA             D-55099 Mainz, Germany

   Department of Chemistry                Fakultaet fuer Chemie und Biowiss.
   Johns Hopkins University               Karlsruher Institut fuer Technologie
   Baltimore, MD 21218, USA               D-76131 Karlsruhe, Germany

   Department of Chemistry                Department of Physical Chemistry
   Southern Methodist University          Eotvos Lorand University
   Dallas, TX 75275, USA                  H-1053 Budapest, Hungary

 
                       Version 2.1
 
                     vincent.theory.phys.ucl.ac.uk                     
                     Tue 25 Feb 11:38:25 GMT 2025                      
                     integer*8 version is running
 
********************************************************************************
*                          Input from ZMAT file                                *
********************************************************************************
Carbon Monoxide DBOC calculation                                                
C                                                                               
O 1 r                                                                           
                                                                                
r=1.3655172413793104                                                            
                                                                                
                                                                                
*CFOUR(CALC=CCSD,BASIS=AUG-PCVQZ,SCF_CONV=10                                    
CC_CONV=14,DBOC=ON,MEMORY=500000000                                             
ZFIELD=-200)                                                                    
                                                                                
%isotopes                                                                       
12                                                                              
16                                                                              
********************************************************************************
  @GTFLGS-I, Hessian will be transformed to curvilinear coordinates.
    -------------------------------------------------------------------
                    CFOUR Control Parameters 
    -------------------------------------------------------------------
        External           Internal           Value            Units
          Name               Name
    -------------------------------------------------------------------
       ABCDTYPE             IABCDT         STANDARD    [  0]    ***   
       ANHARMONIC           IANHAR         OFF         [  0]    ***   
       ANH_ALGORIT          IANALG         STANDARD    [  0]    ***   
       ANH_DERIVAT          IANDER         SECOND      [  1]    ***   
       ANH_MODE             ANHMOD         VIBRATION   [  0]    ***   
       ANH_STEPSIZ          ICUBST             50000          x 10-6  
       ANH_SYMMETR          IANHSM         ABELIAN     [  0]    ***   
       AO_LADDERS           IAOLAD         SINGLEPASS  [  1]    ***   
       AV_SCF               IAVSCF         OFF         [  0]    ***   
       BASIS                IBASIS         AUG-PCVQZ   [ 52]    ***   
       BOTHVECTORS          BOTHVC         OFF         [  0]    ***   
       BOX_POTENT           IPIAB          OFF         [  0]    ***   
       BREIT                IBREIT         OFF         [  0]    ***   
       BRUCK_CONV           IBRTOL          10D-  4             ***   
       BRUECKNER            IBRKNR         OFF         [  0]    ***   
       BUFFERSIZE           IBUFFS              4096            ***   
       CACHE_RECS           ICHREC             10               ***   
       CALCLEVEL            ICLLVL         CCSD        [ 10]    ***   
       CCORBOPT             ICCORB         OFF         [  0]  x 0.01  
       CC_CONV              ICCCNV          10D- 14             ***   
       CC_EXPORDER          ICCEOR              5               ***   
       CC_EXTRAPOL          ICCEXT         DIIS        [  1]    ***   
       CC_GUESS             ICCGES         MP2         [  0]    ***   
       CC_MAXCYC            ICCCYC            100              cycles 
       CC_PROGRAM           ICCPRO         VCC         [  0]    ***   
       CHARGE               ICHRGE              0               ***   
       CHOLESKY             ICHOLE         OFF         [  0]    ***   
       CIS_CONV             ICISTL              5               ***   
       COMM_SIZE            IPSIZE            ***               ***   
       CONSTANT             ICONST         OLD         [  1]    ***   
       CONTINUUM            ICONTU         NONE        [  0]    ***   
       CONTRACTION          ICNTYP         GENERAL     [  1]    ***   
       COORDINATES          ICOORD         INTERNAL    [  0]    ***   
       CPHF_CONVER          ICPHFT          10D- 16             ***   
       CPHF_MAXCYC          ICPHFC             64              cycles 
       CUBIC                ICUBIC         OFF         [  0]    ***   
       CURVILINEAR          ICURVY         ON          [  1]    ***   
       DBOC                 IDBOC          ON          [  1]    ***   
       DCT                  IDCT           OFF         [  0]    ***   
       DERIV_LEV            IDRLVL         SECOND      [  2]    ***   
       DEVMEM_SIZE          IDVMEM          50000000           MByte  
       DIAG_MRCC            IEOMST          10D-  0             ***   
       DIFF_TYPE            IDIFTY         RELAXED     [  0]    ***   
       DIRECT               IDIRCT         OFF         [  0]    ***   
       DROPMO               IDRPMO      NONE         
       ECP                  IECP           OFF         [  0]    ***   
       EIGENVECTOR          IVEC                1               ***   
       EL_ANHARM            IELANH         OFF         [  0]    ***   
       EOMFOLLOW            IEOMSR         ENERGY      [  0]    ***   
       EOMIP                IEOMIP         OFF         [  0]    ***   
       EOMLEVEL             HBARFM         SAME        [  0]    ***   
       EOM_MRCC             IMRCCE         NEW         [  1]    ***   
       EOM_NONIT            EOMNON         OFF         [  0]    ***   
       EOM_NSING            IEOMSI          10D-  0             ***   
       EOM_NSTATES          IMRCCD         DAVIDSON    [  0]    ***   
       EOM_NTRIP            IEOMTR          10D-  0             ***   
       EOM_ORDER            IEXORD         ENERGY      [  0]    ***   
       EOM_PROPSTA          IEOMST              0               ***   
       ESTATE_CONV          IEXTOL          10D-  5             ***   
       ESTATE_DIAG          IEXDIG         ITERATIVE   [  0]    ***   
       ESTATE_LOCK          IESLOC         ON          [  1]    ***   
       ESTATE_MAXC          IEXMXC             40               ***   
       ESTATE_PROP          IEXPRP         OFF         [  0]    ***   
       EVAL_HESS            IRECAL              0            # of cyc.
       EXCITATION           IEXCIT              0               ***   
       EXCITE               IEXCIT         NONE        [  0]    ***   
       EXTERN_POT           IEXPOT         OFF         [  0]    ***   
       FCGRADNEW            IFCGNW         OFF         [  0]    ***   
       FC_FIELD             IFINFC              0             x 10-6  
       FD_CALTYPE           IFDCAL         GRADONLY    [  0]    ***   
       FD_PROJECT           IFDPRJ         OFF         [  1]    ***   
       FD_STEPSIZE          IDISFD              0            10-4 bohr
       FD_USEGROUP          IFDGRP         FULL        [  0]    ***   
       FILE_RECSIZ          IFLREC              4096           words  
       FINITE_PERT          IFIPER              0             x 10-6  
       FIXGEOM              IFIXGM         OFF         [  0]    ***   
       FOCK                 IFOCK          AO          [  1]    ***   
       FREQ_ALGORI          IVIALG         STANDARD    [  0]    ***   
       FROZEN_CORE          IFROCO         OFF         [  0]    ***   
       GAMMA_ABCD           IGABCD         STORE       [  0]    ***   
       GAMMA_ABCI           IGABCI         STORE       [  0]    ***   
       GENBAS_1             IGNBS1              0               ***   
       GENBAS_2             IGNBS2              0               ***   
       GENBAS_3             IGNBS3              0               ***   
       GENBAS_4             IGNBS4              0               ***   
       GEO_CONV             ICONTL              5              H/bohr 
       GEO_MAXCYC           IOPTCY             50               ***   
       GEO_MAXSTEP          IMXSTP            300            millibohr
       GEO_METHOD           INR            SINGLE_POINT[  5]    ***   
       GIAO                 IGIAO          OFF         [  1]    ***   
       GIMIC                IGIMIC         OFF         [  0]    ***   
       GRID                 IGRID          OFF         [  0]    ***   
       GRID_ALGO            IGALGO         SERIAL      [  0]    ***   
       GUESS                IGUESS         MOREAD      [  0]    ***   
       HBAR                 IHBAR          OFF         [  0]    ***   
       HESS_TYPE            IHESTP         SCF         [  0]    ***   
       HF2_FILE             IHF2Fl         USE         [  1]    ***   
       HFSTABILITY          ISTABL         OFF         [  0]    ***   
       INCORE               INCORE         OFF         [  0]    ***   
       INPUT_MRCC           IMRCC          ON          [  1]    ***   
       INTEGRALS            INTTYP         VMOL        [  1]    ***   
       JODA_PRINT           IJPRNT              0               ***   
       KEYWORD_OUT          IDMPKW         NO          [  0]    ***   
       LINDEP_TOL           ILINDP              8               ***   
       LINEQ_CONV           IZTACN          10D-  7           cycles  
       LINEQ_EXPOR          ILMAXD              5               ***   
       LINEQ_MAXCY          ILMAXC            100               ***   
       LINEQ_TYPE           ILTYPE         DIIS        [  1]    ***   
       LOCK_ORBOCC          ILOCOC         OFF         [  0]    ***   
       MEMORY_SIZE          IMEMSZ         500000000           words  
       MEM_UNIT             IMEMU          INTEGERWORDS[  0]    ***   
       MRCC                 IMRCCC         OFF         [  0]    ***   
       MULTIPLICTY          IMULTP              1               ***   
       NACOUPLING           IVCOUP         OFF         [  0]    ***   
       NEGEVAL              IDIE           ABORT       [  0]    ***   
       NEWNORM              INEWNO         OFF         [  0]    ***   
       NON-HF               INONHF         OFF         [  0]    ***   
       NTOP_TAMP            ITOPT2             15               ***   
       NUC_MODEL            INUCMO         POINT       [  0]    ***   
       OCCUPATION           IOCCU   ESTIMATED BY SCF 
       OPEN-SHELL           IOPEN          SPIN-ORBITAL[  0]    ***   
       OPTVIB               IOPTVB         OFF         [  0]    ***   
       ORBITALS             IORBTP         STANDARD    [  0]    ***   
       PARALLEL             IPARAL         ON          [  1]    ***   
       PARA_INT             IPINTS         ON          [  1]    ***   
       PARA_PRINT           IPPRIN              0               ***   
       PERT_ORB             IPTORB         STANDARD    [  0]    ***   
       POINTS               IGRDFD              0               ***   
       PRINT                IPRNT               0               ***   
       PROPS                IPROPS         OFF         [  0]    ***   
       PROP_INTEGR          IINTYP         INTERNAL    [  0]    ***   
       PSI                  IPSI           OFF         [  0]    ***   
       QC_ALG               IQCALG         FLM         [  0]    ***   
       QC_LINALG            IQCLIN         TRIDIAG     [  2]    ***   
       QC_MAXCYC            IQCMAX          10D-100           cycles  
       QC_MAXSCFCY          IQCMSC          10D- 15           cycles  
       QC_RTRUST            IQCRTR          10D-  0           x 10-3  
       QC_SKIPSCF           IQCSKI         OFF         [  0]    ***   
       QC_START             IQCSTA          10D-  1             ***   
       QRHFGUESS            IQGUES         OFF         [  0]    ***   
       QUARTIC              IQUART         OFF         [  0]    ***   
       RAMAN_INT            IRAMIN         OFF         [  0]    ***   
       RAMAN_ORB            IRAMRE         UNRELAXED   [  0]    ***   
       RDO                  IRDOFM         ON          [  1]    ***   
       REDUCE_REPR          REDREP         Ir          [  0]    ***   
       REFERENCE            IREFNC         RHF         [  0]    ***   
       RELATIVIST           IRELAT         OFF         [  0]    ***   
       RELAX_DENS           IRDENS         ON          [  1]    ***   
       RESET_FLAGS          IRESET         OFF         [  0]    ***   
       RESTART_CC           ICCRES         OFF         [  0]    ***   
       ROT_EVEC             ROTVEC              0               ***   
       SAVE_INTS            ISVINT         OFF         [  0]    ***   
       SCALE_ON             ISTCRT              0               ***   
       SCF_CONV             ISCFCV          10D- 10             ***   
       SCF_DAMPING          IDAMP               0             x 10-3  
       SCF_EXPORDE          IRPPOR              6               ***   
       SCF_EXPSTAR          IRPPLS              8               ***   
       SCF_EXTRAPO          IRPP           ON          [  1]    ***   
       SCF_MAXCYC           ISCFCY            150              cycles 
       SCF_NOSTOP           ISCFST         OFF         [  0]    ***   
       SCF_PRINT            ISCFPR              0               ***   
       SCF_PROG             ISCFPR         SCF         [  0]    ***   
       SD_FIELD             IFINSD              0             x 10-6  
       SOPERT               IPERSO         OFF         [  0]    ***   
       SPHERICAL            IDFGHI         ON          [  1]    ***   
       SPINORBIT            ISOCAL         OFF         [  0]    ***   
       SPINROTATIO          ISRCON         OFF         [  0]    ***   
       SPIN_FLIP            ISPFLP         OFF         [  0]    ***   
       SPIN_ORBIT           ISPORB         OFF         [  0]    ***   
       SPIN_SCAL            ISCSMP         OFF         [  0]    ***   
       STEEPSCALE           ISTPSC              1000          x 10-3  
       SUBGROUP             ISUBGP         DEFAULT     [  0]    ***   
       SUBGRPAXIS           ISBXYZ         X           [  0]    ***   
       SYMMETRY             ISYM           ON          [  0]    ***   
       SYM_CHECK            ISYMCK         OVERRIDE    [  1]    ***   
       T3_EXTRAPOL          IT3EXT         OFF         [  0]    ***   
       T4_EXTRAPOL          IT4EXP         OFF         [  0]    ***   
       TAMP_SUM             IEVERY              5               ***   
       TESTSUITE            ITESTS         OFF         [  0]    ***   
       THERMOCH             ITHERM         OFF         [  0]    ***   
       TOL_CHOLESK          ITOLCH          10D-  4             ***   
       TRANGRAD             IRESRM         OFF         [  0]    ***   
       TRANS_INV            ITRAIN         IGNORE      [  1]    ***   
       TREAT_PERT           ITREAT         SIMULTANEOUS[  0]    ***   
       TRIP_ALGORI          ITRALG         NORMAL      [  0]    ***   
       UIJ_THRESHO          IUIJTH              1               ***   
       UNITS                IUNITS         ANGSTROM    [  0]    ***   
       UNOS                 IUNOS          OFF         [  0]    ***   
       UPDATE_HESS          IHUPDT         ON          [  1]    ***   
       VIBPHASE             ISETPH         STANDARD    [  0]    ***   
       VIBRATION            IVIB           ANALYTIC    [  1]    ***   
       VIB_ALGORIT          IGEALG         STANDARD    [  0]    ***   
       VNATORB              IVNORB         OFF         [  0]    ***   
       VTRAN                IVTRAN         FULL/PARTIAL[  0]    ***   
       XFIELD               IXEFLD              0             x 10-6  
       XFORM_TOL            IXFTOL          10D- 11             ***   
       YFIELD               IYEFLD              0             x 10-6  
       ZFIELD               IZEFLD            ***             x 10-6  
       ZSCALE_EXP           IZEXPS         OFF         [  0]    ***   
    -------------------------------------------------------------------
   2 entries found in Z-matrix 
   Job Title : Carbon Monoxide DBOC calculation                                                
   There are  1 unique internal coordinates.
   Of these,  0 will be optimized.
   User supplied Z-matrix: 
--------------------------------------------------------------------------------
       SYMBOL    BOND      LENGTH    ANGLE     ANGLE     DIHED     ANGLE
                  TO      (ANGST)    WRT      (DEG)      WRT      (DEG)
--------------------------------------------------------------------------------
        C    
        O          1         r    
                  *Initial values for internal coordinates* 
                      Name             Value
                        r               1.3655172414
--------------------------------------------------------------------------------
  read isotopes from ZMAT file 
   Rotational constants (in cm-1): 
          1.3186154320             1.3186154320
   Rotational constants (in MHz): 
      39531.1016897482         39531.1016897482
********************************************************************************
   The full molecular point group is CXv .
   The largest Abelian subgroup of the full molecular point group is C2v .
   The computational point group is C2v .
********************************************************************************
--------------------------------------------------------------------------------
   Analysis of internal coordinates specified by Z-matrix 
--------------------------------------------------------------------------------
   *The nuclear repulsion energy is   18.601376848484847 a.u.
   *There is   1 degree of freedom within the tot. symm. molecular subspace.
   *Z-matrix requests optimization of   0 coordinates.
   *The optimization is constrained.
   *The following   1 parameters can have non-zero 
    derivatives within the totally symmetric subspace:
             r    [ 1]
   *The following   0 parameters are to be optimized:

   *The following coordinates must be varied in an  unconstrained optimization.
             r    [ 1]
--------------------------------------------------------------------------------


 ----------------------------------------------------------------
         Coordinates used in calculation (QCOMP) 
 ----------------------------------------------------------------
 Z-matrix   Atomic            Coordinates (in bohr)
  Symbol    Number           X              Y              Z
 ----------------------------------------------------------------
     C         6        -0.00000000     0.00000000     1.47434433
     O         8         0.00000000     0.00000000    -1.10610981
 ----------------------------------------------------------------
 
   Interatomic distance matrix (Angstroms) 
 
                 C             O    
                [ 1]        [ 2]
  C    [ 1]     0.00000
  O    [ 2]     1.36552     0.00000
 rotcon2
   Rotational constants (in cm-1): 
          1.3186154320             0.0000000000
   Rotational constants (in MHz): 
      39531.1016897482             0.0000000000
  ECPDATA file not present.   Using default ECPDATA. 
  @GTFLGS-I, Hessian will be transformed to curvilinear coordinates.
  There are  218 basis functions.
 @CHECKOUT-I, Total execution time (CPU/WALL):        0.10/       0.15 seconds.
--executable xjoda finished with status     0 in        0.17 seconds (walltime).
 --invoking executable--
/nfs/workspaces/public/cfour_mpi/bin/xvmol
 SERIAL VERSION OF MOLECULE STARTED
********************************************************************************
                    INPUT FROM MOL FILE
********************************************************************************
INTGRL        1    0    1    0    0    0    0    0    0                         
         *** CFOUR Program System (Release V0.1) ***                            
Carbon Monoxide DBOC calculation                                                
    2    2 X  Y       0.10E-08              0    0                              
   9999.00      3.00                                                            
          6.00000000    1    5    1    1    1    1    1                         
C #1  -0.000000000000000   0.000000000000000   1.474344333920085                
   16    9                                                                      
   33980.0000000000       9.100000000000000E-005 -1.900000000000000E-005        
  0.000000000000000E+000  0.000000000000000E+000  0.000000000000000E+000        
  0.000000000000000E+000  0.000000000000000E+000  0.000000000000000E+000        
  0.000000000000000E+000                                                        
   5089.00000000000       7.040000000000000E-004 -1.510000000000000E-004        
  0.000000000000000E+000  0.000000000000000E+000  0.000000000000000E+000        
  0.000000000000000E+000  0.000000000000000E+000  0.000000000000000E+000        
  0.000000000000000E+000                                                        
   1157.00000000000       3.693000000000000E-003 -7.850000000000000E-004        
  0.000000000000000E+000  0.000000000000000E+000  0.000000000000000E+000        
  0.000000000000000E+000  0.000000000000000E+000  0.000000000000000E+000        
  0.000000000000000E+000                                                        
   326.600000000000       1.536000000000000E-002 -3.324000000000000E-003        
  0.000000000000000E+000  0.000000000000000E+000  0.000000000000000E+000        
  0.000000000000000E+000  0.000000000000000E+000  0.000000000000000E+000        
  0.000000000000000E+000                                                        
   106.100000000000       5.292900000000000E-002 -1.151200000000000E-002        
  0.000000000000000E+000  0.000000000000000E+000  0.000000000000000E+000        
  0.000000000000000E+000  0.000000000000000E+000  0.000000000000000E+000        
  0.000000000000000E+000                                                        
   38.1100000000000       0.147043000000000      -3.416000000000000E-002        
  0.000000000000000E+000  0.000000000000000E+000  0.000000000000000E+000        
  0.000000000000000E+000  0.000000000000000E+000  0.000000000000000E+000        
  0.000000000000000E+000                                                        
   14.7500000000000       0.305631000000000      -7.717300000000001E-002        
  0.000000000000000E+000  0.000000000000000E+000  0.000000000000000E+000        
  0.000000000000000E+000  0.000000000000000E+000  0.000000000000000E+000        
  0.000000000000000E+000                                                        
   6.03500000000000       0.399345000000000      -0.141493000000000             
  0.000000000000000E+000  0.000000000000000E+000  0.000000000000000E+000        
  0.000000000000000E+000  0.000000000000000E+000  0.000000000000000E+000        
  0.000000000000000E+000                                                        
   2.53000000000000       0.217051000000000      -0.118019000000000             
  0.000000000000000E+000  0.000000000000000E+000  0.000000000000000E+000        
  0.000000000000000E+000  0.000000000000000E+000  0.000000000000000E+000        
  0.000000000000000E+000                                                        
  0.735500000000000       1.589400000000000E-002  0.273806000000000             
   1.00000000000000       0.000000000000000E+000  0.000000000000000E+000        
  0.000000000000000E+000  0.000000000000000E+000  0.000000000000000E+000        
  0.000000000000000E+000                                                        
  0.290500000000000      -3.084000000000000E-003  0.586510000000000             
  0.000000000000000E+000   1.00000000000000       0.000000000000000E+000        
  0.000000000000000E+000  0.000000000000000E+000  0.000000000000000E+000        
  0.000000000000000E+000                                                        
  0.111100000000000       9.779999999999999E-004  0.285430000000000             
  0.000000000000000E+000  0.000000000000000E+000   1.00000000000000             
  0.000000000000000E+000  0.000000000000000E+000  0.000000000000000E+000        
  0.000000000000000E+000                                                        
   7.21600000000000       0.000000000000000E+000  0.000000000000000E+000        
  0.000000000000000E+000  0.000000000000000E+000  0.000000000000000E+000        
   1.00000000000000       0.000000000000000E+000  0.000000000000000E+000        
  0.000000000000000E+000                                                        
   19.5700000000000       0.000000000000000E+000  0.000000000000000E+000        
  0.000000000000000E+000  0.000000000000000E+000  0.000000000000000E+000        
  0.000000000000000E+000   1.00000000000000       0.000000000000000E+000        
  0.000000000000000E+000                                                        
   53.0730000000000       0.000000000000000E+000  0.000000000000000E+000        
  0.000000000000000E+000  0.000000000000000E+000  0.000000000000000E+000        
  0.000000000000000E+000  0.000000000000000E+000   1.00000000000000             
  0.000000000000000E+000                                                        
  4.145000000000000E-002  0.000000000000000E+000  0.000000000000000E+000        
  0.000000000000000E+000  0.000000000000000E+000  0.000000000000000E+000        
  0.000000000000000E+000  0.000000000000000E+000  0.000000000000000E+000        
   1.00000000000000                                                             
   10    8                                                                      
   34.5100000000000       5.378000000000000E-003  0.000000000000000E+000        
  0.000000000000000E+000  0.000000000000000E+000  0.000000000000000E+000        
  0.000000000000000E+000  0.000000000000000E+000  0.000000000000000E+000        
   7.91500000000000       3.613200000000000E-002  0.000000000000000E+000        
  0.000000000000000E+000  0.000000000000000E+000  0.000000000000000E+000        
  0.000000000000000E+000  0.000000000000000E+000  0.000000000000000E+000        
   2.36800000000000       0.142493000000000       0.000000000000000E+000        
  0.000000000000000E+000  0.000000000000000E+000  0.000000000000000E+000        
  0.000000000000000E+000  0.000000000000000E+000  0.000000000000000E+000        
  0.813200000000000       0.342150000000000        1.00000000000000             
  0.000000000000000E+000  0.000000000000000E+000  0.000000000000000E+000        
  0.000000000000000E+000  0.000000000000000E+000  0.000000000000000E+000        
  0.289000000000000       0.463864000000000       0.000000000000000E+000        
   1.00000000000000       0.000000000000000E+000  0.000000000000000E+000        
  0.000000000000000E+000  0.000000000000000E+000  0.000000000000000E+000        
  0.100700000000000       0.250028000000000       0.000000000000000E+000        
  0.000000000000000E+000   1.00000000000000       0.000000000000000E+000        
  0.000000000000000E+000  0.000000000000000E+000  0.000000000000000E+000        
   8.18200000000000       0.000000000000000E+000  0.000000000000000E+000        
  0.000000000000000E+000  0.000000000000000E+000   1.00000000000000             
  0.000000000000000E+000  0.000000000000000E+000  0.000000000000000E+000        
   24.1860000000000       0.000000000000000E+000  0.000000000000000E+000        
  0.000000000000000E+000  0.000000000000000E+000  0.000000000000000E+000        
   1.00000000000000       0.000000000000000E+000  0.000000000000000E+000        
   71.4940000000000       0.000000000000000E+000  0.000000000000000E+000        
  0.000000000000000E+000  0.000000000000000E+000  0.000000000000000E+000        
  0.000000000000000E+000   1.00000000000000       0.000000000000000E+000        
  3.218000000000000E-002  0.000000000000000E+000  0.000000000000000E+000        
  0.000000000000000E+000  0.000000000000000E+000  0.000000000000000E+000        
  0.000000000000000E+000  0.000000000000000E+000   1.00000000000000             
    6    6                                                                      
   1.84800000000000        1.00000000000000       0.000000000000000E+000        
  0.000000000000000E+000  0.000000000000000E+000  0.000000000000000E+000        
  0.000000000000000E+000                                                        
  0.649000000000000       0.000000000000000E+000   1.00000000000000             
  0.000000000000000E+000  0.000000000000000E+000  0.000000000000000E+000        
  0.000000000000000E+000                                                        
  0.228000000000000       0.000000000000000E+000  0.000000000000000E+000        
   1.00000000000000       0.000000000000000E+000  0.000000000000000E+000        
  0.000000000000000E+000                                                        
   8.65600000000000       0.000000000000000E+000  0.000000000000000E+000        
  0.000000000000000E+000   1.00000000000000       0.000000000000000E+000        
  0.000000000000000E+000                                                        
   33.2130000000000       0.000000000000000E+000  0.000000000000000E+000        
  0.000000000000000E+000  0.000000000000000E+000   1.00000000000000             
  0.000000000000000E+000                                                        
  7.660000000000000E-002  0.000000000000000E+000  0.000000000000000E+000        
  0.000000000000000E+000  0.000000000000000E+000  0.000000000000000E+000        
   1.00000000000000                                                             
    4    4                                                                      
   1.41900000000000        1.00000000000000       0.000000000000000E+000        
  0.000000000000000E+000  0.000000000000000E+000                                
  0.485000000000000       0.000000000000000E+000   1.00000000000000             
  0.000000000000000E+000  0.000000000000000E+000                                
   24.6940000000000       0.000000000000000E+000  0.000000000000000E+000        
   1.00000000000000       0.000000000000000E+000                                
  0.187000000000000       0.000000000000000E+000  0.000000000000000E+000        
  0.000000000000000E+000   1.00000000000000                                     
    2    2                                                                      
   1.01100000000000        1.00000000000000       0.000000000000000E+000        
  0.424000000000000       0.000000000000000E+000   1.00000000000000             
          8.00000000    1    5    1    1    1    1    1                         
O #2   0.000000000000000   0.000000000000000  -1.106109811543334                
   16    9                                                                      
   61420.0000000000       9.000000000000001E-005 -2.000000000000000E-005        
  0.000000000000000E+000  0.000000000000000E+000  0.000000000000000E+000        
  0.000000000000000E+000  0.000000000000000E+000  0.000000000000000E+000        
  0.000000000000000E+000                                                        
   9199.00000000000       6.980000000000001E-004 -1.590000000000000E-004        
  0.000000000000000E+000  0.000000000000000E+000  0.000000000000000E+000        
  0.000000000000000E+000  0.000000000000000E+000  0.000000000000000E+000        
  0.000000000000000E+000                                                        
   2091.00000000000       3.664000000000000E-003 -8.290000000000000E-004        
  0.000000000000000E+000  0.000000000000000E+000  0.000000000000000E+000        
  0.000000000000000E+000  0.000000000000000E+000  0.000000000000000E+000        
  0.000000000000000E+000                                                        
   590.900000000000       1.521800000000000E-002 -3.508000000000000E-003        
  0.000000000000000E+000  0.000000000000000E+000  0.000000000000000E+000        
  0.000000000000000E+000  0.000000000000000E+000  0.000000000000000E+000        
  0.000000000000000E+000                                                        
   192.300000000000       5.242300000000000E-002 -1.215600000000000E-002        
  0.000000000000000E+000  0.000000000000000E+000  0.000000000000000E+000        
  0.000000000000000E+000  0.000000000000000E+000  0.000000000000000E+000        
  0.000000000000000E+000                                                        
   69.3200000000000       0.145921000000000      -3.626100000000000E-002        
  0.000000000000000E+000  0.000000000000000E+000  0.000000000000000E+000        
  0.000000000000000E+000  0.000000000000000E+000  0.000000000000000E+000        
  0.000000000000000E+000                                                        
   26.9700000000000       0.305258000000000      -8.299200000000000E-002        
  0.000000000000000E+000  0.000000000000000E+000  0.000000000000000E+000        
  0.000000000000000E+000  0.000000000000000E+000  0.000000000000000E+000        
  0.000000000000000E+000                                                        
   11.1000000000000       0.398508000000000      -0.152090000000000             
  0.000000000000000E+000  0.000000000000000E+000  0.000000000000000E+000        
  0.000000000000000E+000  0.000000000000000E+000  0.000000000000000E+000        
  0.000000000000000E+000                                                        
   4.68200000000000       0.216980000000000      -0.115331000000000             
  0.000000000000000E+000  0.000000000000000E+000  0.000000000000000E+000        
  0.000000000000000E+000  0.000000000000000E+000  0.000000000000000E+000        
  0.000000000000000E+000                                                        
   1.42800000000000       1.759400000000000E-002  0.288979000000000             
   1.00000000000000       0.000000000000000E+000  0.000000000000000E+000        
  0.000000000000000E+000  0.000000000000000E+000  0.000000000000000E+000        
  0.000000000000000E+000                                                        
  0.554700000000000      -2.502000000000000E-003  0.586128000000000             
  0.000000000000000E+000   1.00000000000000       0.000000000000000E+000        
  0.000000000000000E+000  0.000000000000000E+000  0.000000000000000E+000        
  0.000000000000000E+000                                                        
  0.206700000000000       9.540000000000000E-004  0.277624000000000             
  0.000000000000000E+000  0.000000000000000E+000   1.00000000000000             
  0.000000000000000E+000  0.000000000000000E+000  0.000000000000000E+000        
  0.000000000000000E+000                                                        
   12.9740000000000       0.000000000000000E+000  0.000000000000000E+000        
  0.000000000000000E+000  0.000000000000000E+000  0.000000000000000E+000        
   1.00000000000000       0.000000000000000E+000  0.000000000000000E+000        
  0.000000000000000E+000                                                        
   34.9000000000000       0.000000000000000E+000  0.000000000000000E+000        
  0.000000000000000E+000  0.000000000000000E+000  0.000000000000000E+000        
  0.000000000000000E+000   1.00000000000000       0.000000000000000E+000        
  0.000000000000000E+000                                                        
   93.8810000000000       0.000000000000000E+000  0.000000000000000E+000        
  0.000000000000000E+000  0.000000000000000E+000  0.000000000000000E+000        
  0.000000000000000E+000  0.000000000000000E+000   1.00000000000000             
  0.000000000000000E+000                                                        
  6.959000000000000E-002  0.000000000000000E+000  0.000000000000000E+000        
  0.000000000000000E+000  0.000000000000000E+000  0.000000000000000E+000        
  0.000000000000000E+000  0.000000000000000E+000  0.000000000000000E+000        
   1.00000000000000                                                             
   10    8                                                                      
   63.4200000000000       6.044000000000000E-003  0.000000000000000E+000        
  0.000000000000000E+000  0.000000000000000E+000  0.000000000000000E+000        
  0.000000000000000E+000  0.000000000000000E+000  0.000000000000000E+000        
   14.6600000000000       4.179900000000000E-002  0.000000000000000E+000        
  0.000000000000000E+000  0.000000000000000E+000  0.000000000000000E+000        
  0.000000000000000E+000  0.000000000000000E+000  0.000000000000000E+000        
   4.45900000000000       0.161143000000000       0.000000000000000E+000        
  0.000000000000000E+000  0.000000000000000E+000  0.000000000000000E+000        
  0.000000000000000E+000  0.000000000000000E+000  0.000000000000000E+000        
   1.53100000000000       0.356731000000000        1.00000000000000             
  0.000000000000000E+000  0.000000000000000E+000  0.000000000000000E+000        
  0.000000000000000E+000  0.000000000000000E+000  0.000000000000000E+000        
  0.530200000000000       0.448309000000000       0.000000000000000E+000        
   1.00000000000000       0.000000000000000E+000  0.000000000000000E+000        
  0.000000000000000E+000  0.000000000000000E+000  0.000000000000000E+000        
  0.175000000000000       0.244940000000000       0.000000000000000E+000        
  0.000000000000000E+000   1.00000000000000       0.000000000000000E+000        
  0.000000000000000E+000  0.000000000000000E+000  0.000000000000000E+000        
   14.4750000000000       0.000000000000000E+000  0.000000000000000E+000        
  0.000000000000000E+000  0.000000000000000E+000   1.00000000000000             
  0.000000000000000E+000  0.000000000000000E+000  0.000000000000000E+000        
   42.7300000000000       0.000000000000000E+000  0.000000000000000E+000        
  0.000000000000000E+000  0.000000000000000E+000  0.000000000000000E+000        
   1.00000000000000       0.000000000000000E+000  0.000000000000000E+000        
   126.140000000000       0.000000000000000E+000  0.000000000000000E+000        
  0.000000000000000E+000  0.000000000000000E+000  0.000000000000000E+000        
  0.000000000000000E+000   1.00000000000000       0.000000000000000E+000        
  5.348000000000000E-002  0.000000000000000E+000  0.000000000000000E+000        
  0.000000000000000E+000  0.000000000000000E+000  0.000000000000000E+000        
  0.000000000000000E+000  0.000000000000000E+000   1.00000000000000             
    6    6                                                                      
   3.77500000000000        1.00000000000000       0.000000000000000E+000        
  0.000000000000000E+000  0.000000000000000E+000  0.000000000000000E+000        
  0.000000000000000E+000                                                        
   1.30000000000000       0.000000000000000E+000   1.00000000000000             
  0.000000000000000E+000  0.000000000000000E+000  0.000000000000000E+000        
  0.000000000000000E+000                                                        
  0.444000000000000       0.000000000000000E+000  0.000000000000000E+000        
   1.00000000000000       0.000000000000000E+000  0.000000000000000E+000        
  0.000000000000000E+000                                                        
   14.9270000000000       0.000000000000000E+000  0.000000000000000E+000        
  0.000000000000000E+000   1.00000000000000       0.000000000000000E+000        
  0.000000000000000E+000                                                        
   57.5440000000000       0.000000000000000E+000  0.000000000000000E+000        
  0.000000000000000E+000  0.000000000000000E+000   1.00000000000000             
  0.000000000000000E+000                                                        
  0.154000000000000       0.000000000000000E+000  0.000000000000000E+000        
  0.000000000000000E+000  0.000000000000000E+000  0.000000000000000E+000        
   1.00000000000000                                                             
    4    4                                                                      
   2.66600000000000        1.00000000000000       0.000000000000000E+000        
  0.000000000000000E+000  0.000000000000000E+000                                
  0.859000000000000       0.000000000000000E+000   1.00000000000000             
  0.000000000000000E+000  0.000000000000000E+000                                
   26.4830000000000       0.000000000000000E+000  0.000000000000000E+000        
   1.00000000000000       0.000000000000000E+000                                
  0.324000000000000       0.000000000000000E+000  0.000000000000000E+000        
  0.000000000000000E+000   1.00000000000000                                     
    2    2                                                                      
   1.84600000000000        1.00000000000000       0.000000000000000E+000        
  0.714000000000000       0.000000000000000E+000   1.00000000000000             
FINISH                                                                          
 
********************************************************************************
 ONE- AND TWO-ELECTRON INTEGRALS OVER SYMMETRY-ADAPTED AOS ARE CALCULATED.

  SPHERICAL HARMONICS ARE USED.
  
  INTEGRALS LESS THAN  0.10E-13 ARE NEGLECTED.

  NUCLEAR REPULSION ENERGY :   18.6013768485 A.U.
  @MOLECU-I, ONE ELECTRON INTEGRALS (CPU/WALL):        0.05/       0.07 SECONDS.
  @TWOEL-I,    4506257 INTEGRALS OF SYMMETRY TYPE  I I I I
  @TWOEL-I,   19416544 INTEGRALS OF SYMMETRY TYPE  I J I J
  @TWOEL-I,   10224598 INTEGRALS OF SYMMETRY TYPE  I I J J
  @TWOEL-I,   14375169 INTEGRALS OF SYMMETRY TYPE  I J K L
  @TWOEL-I, TOTAL NUMBER OF 2-E INTEGRALS   48522568.
  @MOLECU-I, TWO ELECTRON INTEGRALS (CPU/WALL):      181.86/      24.98 SECONDS.
 @CHECKOUT-I, Total execution time (CPU/WALL):      181.92/      25.06 seconds.

Running with 14 threads/proc

--executable xvmol finished with status     0 in       25.07 seconds (walltime).
 --invoking executable--
/nfs/workspaces/public/cfour_mpi/bin/xvmol2ja
 @GETMEM-I,  Allocated    3814 MB of main memory.
 @CHECKOUT-I, Total execution time (CPU/WALL):        0.13/       0.03 seconds.
--executable xvmol2ja finished with status     0 in        0.05 seconds (walltime).
 --invoking executable--
/nfs/workspaces/public/cfour_mpi/bin/xvprop
 @GETMEM-I,  Allocated    3814 MB of main memory.
   Property integrals will be calculated.
    --------------------------------------------------------------
                                   Property evaluated at 
    Property type                X             Y             Z
    --------------------------------------------------------------
    Dipole moment               ----          ----          ----  
    Quadrupole moment           ----          ----          ----  
    Octopole moment             ----          ----          ----  
    Relativisitic corr.         ----          ----          ----  
    Second moment            0.0000000     0.0000000     0.0000000
    Electron density         0.0000000     0.0000000     1.4743443
    Electron density         0.0000000     0.0000000    -1.1061098
    Field gradient           0.0000000     0.0000000     1.4743443
    Field gradient           0.0000000     0.0000000    -1.1061098
    Potential                0.0000000     0.0000000     1.4743443
    Potential                0.0000000     0.0000000    -1.1061098
    --------------------------------------------------------------
 @CHECKOUT-I, Total execution time (CPU/WALL):        1.29/       1.34 seconds.
--executable xvprop finished with status     0 in        1.35 seconds (walltime).
 --invoking executable--
/nfs/workspaces/public/cfour_mpi/bin/xvscf
  There are  218 functions in the AO basis.

  There are 4 irreducible representations.

       Irrep        # of functions
         1                 86
         2                 52
         3                 52
         4                 28


  Parameters for SCF calculation: 
        SCF reference function:  RHF  
  Maximum number of iterations:  150
     Full symmetry point group: CXv 
     Computational point group: C2v 
        Initial density matrix: MOREAD                 
     SCF convergence tolerance: 10**(-10)
  DIIS convergence acceleration:  ON
          Latest start for DIIS:   8
                     DIIS order:   6

  Memory information:    2523578 words required.
  Fock matrices are constructed from AO integral file.
 @GETMEM-I,  Allocated      19 MB of main memory.
  Initialization and symmetry analysis required      0.001 seconds.

  Adding electric field perturbation to one-electron Hamiltonian.
  Field direction     : Z
  Field strength      : -0.0002000 a.u.

  @INITGES-I, Occupancies from core Hamiltonian:

          Alpha population by irrep:   5    1    1    0
           Beta population by irrep:   5    1    1    0


 total no. of electrons in initial guess :  0.000000000000000E+000
  --------------------------------------------------------------------
  Iteration         Total Energy            Largest Density Difference
  --------------------------------------------------------------------
       0            18.601376285987087              0.0000000000D+00
   current occupation vector 
     5  1  1  0
     5  1  1  0
       1           -93.056219321207621              0.1771669930D+02
   current occupation vector 
     5  1  1  0
     5  1  1  0
       2           -98.383123799451383              0.1771367881D+02
   current occupation vector 
     5  1  1  0
     5  1  1  0
       3          -103.409947239717610              0.6848439624D+01
   current occupation vector 
     5  1  1  0
     5  1  1  0
       4           -98.871037420979391              0.6840945962D+01
   current occupation vector 
     5  1  1  0
     5  1  1  0
       5          -101.474104944477460              0.6342827932D+01
   current occupation vector 
     5  1  1  0
     5  1  1  0
       6           -97.387585260412848              0.6325821365D+01
   current occupation vector 
     5  1  1  0
     5  1  1  0
       7          -101.465115075582645              0.6479073704D+01
   current occupation vector 
     5  1  1  0
     5  1  1  0
       8           -97.296910172054339              0.6478755743D+01
   current occupation vector 
     5  1  1  0
     5  1  1  0
       9          -108.457172821521851              0.4926357743D+01
   current occupation vector 
     5  1  1  0
     5  1  1  0
      10          -110.449023689223694              0.1059485953D+01
   current occupation vector 
     5  1  1  0
     5  1  1  0
      11          -112.462117595725928              0.1205953602D+01
   current occupation vector 
     5  1  1  0
     5  1  1  0
      12          -112.678894880330674              0.4800594749D+00
   current occupation vector 
     5  1  1  0
     5  1  1  0
      13          -112.680911841456165              0.6826747753D-01
   current occupation vector 
     5  1  1  0
     5  1  1  0
      14          -112.681265881101766              0.2616649738D-01
   current occupation vector 
     5  1  1  0
     5  1  1  0
      15          -112.681293724100485              0.9023636244D-02
   current occupation vector 
     5  1  1  0
     5  1  1  0
      16          -112.681294189821031              0.9175940444D-03
   current occupation vector 
     5  1  1  0
     5  1  1  0
      17          -112.681294197672472              0.1293947373D-03
   current occupation vector 
     5  1  1  0
     5  1  1  0
      18          -112.681294198318867              0.4125341670D-04
   current occupation vector 
     5  1  1  0
     5  1  1  0
      19          -112.681294198416325              0.1722280269D-04
   current occupation vector 
     5  1  1  0
     5  1  1  0
      20          -112.681294198431416              0.9085820360D-05
   current occupation vector 
     5  1  1  0
     5  1  1  0
      21          -112.681294198430791              0.3239119406D-06
   current occupation vector 
     5  1  1  0
     5  1  1  0
      22          -112.681294198431729              0.1052601633D-06
   current occupation vector 
     5  1  1  0
     5  1  1  0
      23          -112.681294198432269              0.1484263357D-07
   current occupation vector 
     5  1  1  0
     5  1  1  0
      24          -112.681294198431900              0.5207802634D-08
   current occupation vector 
     5  1  1  0
     5  1  1  0
      25          -112.681294198432383              0.3928344317D-09
   current occupation vector 
     5  1  1  0
     5  1  1  0
      26          -112.681294198431786              0.2601754368D-09
   current occupation vector 
     5  1  1  0
     5  1  1  0
      27          -112.681294198431672              0.2005029476D-09
   current occupation vector 
     5  1  1  0
     5  1  1  0

  SCF has converged.

 Density matrix saved to file den.dat
 total electron number:   14.0000000000001     
     E(SCF)=      -112.681294198431019              0.1951142026D-10

  Eigenvector printing suppressed.

 @PUTMOS-I, Writing converged MOs to NEWMOS. 
 @PUTMOS-I, Symmetry   1 Full Blocks 21 Partial Blocksize   2
 @PUTMOS-I, Symmetry   2 Full Blocks 13 Partial Blocksize   0
 @PUTMOS-I, Symmetry   3 Full Blocks 13 Partial Blocksize   0
 @PUTMOS-I, Symmetry   4 Full Blocks  7 Partial Blocksize   0
 @PUTFOCK-I, Writing converged Fock matrix to NEWFOCK. 
 @PUTFOCK-I, Symmetry   1 Full Blocks 21 Partial Blocksize   2
 @PUTFOCK-I, Symmetry   2 Full Blocks 13 Partial Blocksize   0
 @PUTFOCK-I, Symmetry   3 Full Blocks 13 Partial Blocksize   0
 @PUTFOCK-I, Symmetry   4 Full Blocks  7 Partial Blocksize   0


 
  ORBITAL EIGENVALUES (ALPHA)  (1H = 27.2113834 eV)

       MO #        E(hartree)               E(eV)           FULLSYM    COMPSYM
       ----   --------------------   --------------------   -------   ---------
    1     1         -20.6631608675        -562.2731926213     SG+        A1 (1)
    2     2         -11.4572141071        -311.7666457641     SG+        A1 (1)
    3     3          -1.3771184934         -37.4732993122     SG+        A1 (1)
    4     4          -0.7930365060         -21.5796204156     SG+        A1 (1)
    5     5          -0.5641664935         -15.3517507568     SG+        A1 (1)
    6    87          -0.5539575199         -15.0739504610      PI        B1 (2)
    7   139          -0.5539575199         -15.0739504610      PI        B2 (3)
  +++++++++++++++++++++++++++++++++++++++++++++++++++++++++++++++++++++++++++++
    8    88           0.0389538195           1.0599873180      PI        B1 (2)
    9   140           0.0389538195           1.0599873180      PI        B2 (3)
   10     6           0.0634951780           1.7277916325     SG+        A1 (1)
   11     7           0.0689544342           1.8763455455     SG+        A1 (1)
   12   141           0.0927898644           2.5249405746      PI        B2 (3)
   13    89           0.0927898644           2.5249405746      PI        B1 (2)
   14     8           0.1572544412           4.2791108896     SG+        A1 (1)
   15    90           0.1716160703           4.6699106852      PI        B1 (2)
   16   142           0.1716160703           4.6699106852      PI        B2 (3)
   17   191           0.2255914815           6.1386562955      DE        A2 (4)
   18     9           0.2255914815           6.1386562955      DE        A1 (1)
   19    10           0.2262193477           6.1557414037     SG+        A1 (1)
   20    91           0.2992501221           8.1430098051      PI        B1 (2)
   21   143           0.2992501221           8.1430098051      PI        B2 (3)
   22    11           0.2993514435           8.1457669016     SG+        A1 (1)
   23    12           0.3734657923          10.1625208609     SG+        A1 (1)
   24    92           0.3978307691          10.8255255855      PI        B1 (2)
   25   144           0.3978307691          10.8255255855      PI        B2 (3)
   26    13           0.5080522902          13.8248056564     SG+        A1 (1)
   27    14           0.5172088190          14.0739674714     SG+        A1 (1)
   28   192           0.5458084847          14.8522039407      DE        A2 (4)
   29    15           0.5458084847          14.8522039407      DE        A1 (1)
   30    93           0.6257329194          17.0270583755      PI        B1 (2)
   31   145           0.6257329194          17.0270583755      PI        B2 (3)
   32   146           0.7414154406          20.1749398137      PH        B2 (3)
   33    94           0.7414154406          20.1749398137      PH        B1 (2)
   34    16           0.7434051221          20.2290817979     SG+        A1 (1)
   35    17           0.7545399245          20.5320751749      DE        A1 (1)
   36   193           0.7545399245          20.5320751749      DE        A2 (4)
   37    95           0.7960425615          21.6614193431      PI        B1 (2)
   38   147           0.7960425615          21.6614193431      PI        B2 (3)
   39    18           0.8251229036          22.4527356819     SG+        A1 (1)
   40    19           0.8676316856          23.6094584460     SG+        A1 (1)
   41    20           0.8765183740          23.8512775334      DE        A1 (1)
   42   194           0.8765183740          23.8512775334      DE        A2 (4)
   43    96           0.8970944118          24.4111799857      PI        B1 (2)
   44   148           0.8970944118          24.4111799857      PI        B2 (3)
   45    97           1.0364467313          28.2031493798      PI        B1 (2)
   46   149           1.0364467313          28.2031493798      PI        B2 (3)
   47    21           1.1229302283          30.5564849739     SG+        A1 (1)
   48    22           1.4080416639          38.3147615598     SG+        A1 (1)
   49    98           1.4311260193          38.9429188040      PH        B1 (2)
   50   150           1.4311260193          38.9429188040      PH        B2 (3)
   51   195           1.5574284236          42.3797819521      DE        A2 (4)
   52    23           1.5574284236          42.3797819521      DE        A1 (1)
   53    99           1.5634002516          42.5422836537      PI        B1 (2)
   54   151           1.5634002516          42.5422836537      PI        B2 (3)
   55    24           1.6408232477          44.6490704854     SG+        A1 (1)
   56   100           1.6582463906          45.1231783057      PI        B1 (2)
   57   152           1.6582463906          45.1231783057      PI        B2 (3)
   58    25           1.7253864080          46.9501510608      DE        A1 (1)
   59   196           1.7253864080          46.9501510608      DE        A2 (4)
   60    26           1.8655625051          50.7645365839     SG+        A1 (1)
   61    27           2.0207344217          54.9869790983     SG+        A1 (1)
   62   101           2.0746372785          56.4537504013      PI        B1 (2)
   63   153           2.0746372785          56.4537504013      PI        B2 (3)
   64   197           2.0873367272          56.7993199675      PI        A2 (4)
   65    28           2.0873367272          56.7993199675      PI        A1 (1)
   66   198           2.1550195510          58.6410632360      DE        A2 (4)
   67    29           2.1550195510          58.6410632360      DE        A1 (1)
   68   102           2.2293535450          60.6637940476      PH        B1 (2)
   69   154           2.2293535450          60.6637940476      PH        B2 (3)
   70   103           2.2723517519          61.8338347409      PI        B1 (2)
   71   155           2.2723517519          61.8338347409      PI        B2 (3)
   72   104           2.2793506846          62.0242853818      PH        B1 (2)
   73   156           2.2793506846          62.0242853818      PH        B2 (3)
   74    30           2.2810962310          62.0717841132     SG+        A1 (1)
   75    31           2.3225206656          63.1990002858      DE        A1 (1)
   76   199           2.3225206656          63.1990002858      DE        A2 (4)
   77    32           2.5000798670          68.0306317917     SG+        A1 (1)
   78   105           2.5322621503          68.9063562417      PI        B1 (2)
   79   157           2.5322621503          68.9063562417      PI        B2 (3)
   80    33           2.6396553714          71.8286743558     SG+        A1 (1)
   81   106           2.6649509610          72.5170023425      PI        B1 (2)
   82   158           2.6649509610          72.5170023425      PI        B2 (3)
   83    34           2.8083349972          76.4186803248      DE        A1 (1)
   84   200           2.8083349972          76.4186803248      DE        A2 (4)
   85    35           3.3053642785          89.9435346583     SG+        A1 (1)
   86   107           3.6011254776          97.9916060431      PI        B1 (2)
   87   159           3.6011254776          97.9916060431      PI        B2 (3)
   88   201           3.7014798133         100.7223863465      PI        A2 (4)
   89    36           3.7014798133         100.7223863465      PI        A1 (1)
   90    37           3.8993500082         106.1067080842     SG+        A1 (1)
   91   108           4.0423155981         109.9969995624      PH        B1 (2)
   92   160           4.0423155981         109.9969995625      PH        B2 (3)
   93   109           4.1268392463         112.2970049603      PH        B1 (2)
   94   161           4.1268392463         112.2970049603      PH        B2 (3)
   95   110           4.1733303544         113.5620923286      PI        B1 (2)
   96   162           4.1733303544         113.5620923286      PI        B2 (3)
   97    38           4.2130618413         114.6432410528     SG+        A1 (1)
   98    39           4.2171202725         114.7536765783      DE        A1 (1)
   99   202           4.2171202725         114.7536765783      DE        A2 (4)
  100   203           4.2872822566         116.6628812278      DE        A2 (4)
  101    40           4.2872822566         116.6628812278      DE        A1 (1)
  102    41           4.3894224389         119.4422568883     SG+        A1 (1)
  103   111           4.7639947849         129.6348886070      PI        B1 (2)
  104   163           4.7639947849         129.6348886070      PI        B2 (3)
  105    42           4.9226823123         133.9529957571      DE        A1 (1)
  106   204           4.9226823123         133.9529957572      DE        A2 (4)
  107    43           5.0096367474         136.3191462284     SG+        A1 (1)
  108   112           5.0326875766         136.9463911800      PI        B1 (2)
  109   164           5.0326875766         136.9463911800      PI        B2 (3)
  110    44           5.3685226539         146.0849282265     SG+        A1 (1)
  111   113           5.5232832745         150.2961788080      PI        B1 (2)
  112   165           5.5232832745         150.2961788080      PI        B2 (3)
  113   205           5.8635918528         159.5564460085      PI        A2 (4)
  114    45           5.8635918528         159.5564460085      PI        A1 (1)
  115   114           5.9681038765         162.4003627556      PH        B1 (2)
  116   166           5.9681038765         162.4003627556      PH        B2 (3)
  117    46           6.1900059554         168.4386253014     SG+        A1 (1)
  118   206           6.2067898250         168.8953376108      DE        A2 (4)
  119    47           6.2067898250         168.8953376108      DE        A1 (1)
  120   167           6.2348780783         169.6596578398      PI        B2 (3)
  121   115           6.2348780783         169.6596578398      PI        B1 (2)
  122    48           6.3879821944         173.8258326436     SG+        A1 (1)
  123   168           6.3986107443         174.1150501894      PH        B2 (3)
  124   116           6.3986107443         174.1150501894      PH        B1 (2)
  125    49           6.5299751345         177.6896569762      DE        A1 (1)
  126   207           6.5299751345         177.6896569762      DE        A2 (4)
  127   208           6.6369158309         180.5996612689      DE        A2 (4)
  128    50           6.6369158309         180.5996612689      DE        A1 (1)
  129   117           7.0340914977         191.4073606143      PI        B1 (2)
  130   169           7.0340914977         191.4073606143      PI        B2 (3)
  131    51           7.3407820870         199.7528358247     SG+        A1 (1)
  132   170           7.7847491174         211.8337929053      PI        B2 (3)
  133   118           7.7847491174         211.8337929053      PI        B1 (2)
  134    52           8.2951257244         225.7218464382     SG+        A1 (1)
  135    53           9.8517155421         268.0788087629     SG+        A1 (1)
  136   171          10.0101758506         272.3907329734      PI        B2 (3)
  137   119          10.0101758506         272.3907329734      PI        B1 (2)
  138    54          10.6227798516         289.0605353170      PI        A1 (1)
  139   209          10.6227798516         289.0605353170      PI        A2 (4)
  140   172          10.7768693784         293.2535245079      PH        B2 (3)
  141   120          10.7768693784         293.2535245079      PH        B1 (2)
  142    55          10.8015826780         293.9260075785     SG+        A1 (1)
  143    56          11.0108272682         299.6198423457      DE        A1 (1)
  144   210          11.0108272682         299.6198423458      DE        A2 (4)
  145   173          11.1084711196         302.2768666246      PI        B2 (3)
  146   121          11.1084711196         302.2768666246      PI        B1 (2)
  147    57          11.4233885671         310.8462060262     SG+        A1 (1)
  148   122          11.8657943200         322.8846785884      PH        B1 (2)
  149   174          11.8657943200         322.8846785884      PH        B2 (3)
  150    58          12.0850471917         328.8508525412      DE        A1 (1)
  151   211          12.0850471917         328.8508525415      DE        A2 (4)
  152   175          12.6065609780         343.0419641278      PI        B2 (3)
  153   123          12.6065609780         343.0419641278      PI        B1 (2)
  154    59          12.7699925726         347.4891639082      DE        A1 (1)
  155   212          12.7699925726         347.4891639083      DE        A2 (4)
  156    60          12.9342598182         351.9591029092     SG+        A1 (1)
  157   176          13.1834577683         358.7401238722      PI        B2 (3)
  158   124          13.1834577683         358.7401238722      PI        B1 (2)
  159    61          14.1197847335         384.2188759077     SG+        A1 (1)
  160    62          17.5755012889         478.2537040199     SG+        A1 (1)
  161   125          18.9475446366         515.5889015964      PI        B1 (2)
  162   177          18.9475446367         515.5889015966      PI        B2 (3)
  163    63          20.3921585185         554.8988438006     SG+        A1 (1)
  164   213          26.3516424715         717.0646465120      DE        A2 (4)
  165    64          26.3516424715         717.0646465120      DE        A1 (1)
  166   178          26.7730647836         728.5321306201      PI        B2 (3)
  167   126          26.7730647836         728.5321306201      PI        B1 (2)
  168    65          27.3284796824         743.6457383761     SG+        A1 (1)
  169   179          33.6589655543         915.9070165452      PI        B2 (3)
  170   127          33.6589655543         915.9070165456      PI        B1 (2)
  171    66          34.4192900765         936.5964986279     SG+        A1 (1)
  172    67          36.1010060938         982.3583179433     SG+        A1 (1)
  173    68          47.0818238246        1281.1615592625      DE        A1 (1)
  174   214          47.0818238246        1281.1615592626      DE        A2 (4)
  175   180          47.2906508593        1286.8440317680      PI        B2 (3)
  176   128          47.2906508593        1286.8440317681      PI        B1 (2)
  177    69          47.8778130386        1302.8215269461     SG+        A1 (1)
  178    70          63.9404239702        1739.9073914120     SG+        A1 (1)
  179   129          66.4843084113        1809.1300062633      PI        B1 (2)
  180   181          66.4843084113        1809.1300062635      PI        B2 (3)
  181    71          67.5251778544        1837.4535037479     SG+        A1 (1)
  182   130          98.5744804936        2682.3479821661      PH        B1 (2)
  183   182          98.5744804936        2682.3479821661      PH        B2 (3)
  184   215          98.5883502822        2682.7253983022      DE        A2 (4)
  185    72          98.5883502822        2682.7253983022      DE        A1 (1)
  186   131          98.6124173183        2683.3802956500      PI        B1 (2)
  187   183          98.6124173183        2683.3802956500      PI        B2 (3)
  188    73          98.6337765533        2683.9615099826     SG+        A1 (1)
  189   184         103.2880635716        2810.6110984903      PH        B2 (3)
  190   132         103.2880635716        2810.6110984903      PH        B1 (2)
  191   216         103.3078296103        2811.1489597488      DE        A2 (4)
  192    74         103.3078296103        2811.1489597489      DE        A1 (1)
  193   185         103.3520162126        2812.3513383231      PI        B2 (3)
  194   133         103.3520162126        2812.3513383231      PI        B1 (2)
  195    75         103.3576358979        2812.5042577356     SG+        A1 (1)
  196   217         115.0407767644        3130.4186831696      DE        A2 (4)
  197    76         115.0407767644        3130.4186831696      DE        A1 (1)
  198   186         115.2433611721        3135.9312851580      PI        B2 (3)
  199   134         115.2433611721        3135.9312851580      PI        B1 (2)
  200    77         115.5364545073        3143.9067602755     SG+        A1 (1)
  201   187         116.9282977748        3181.7807410585      PI        B2 (3)
  202   135         116.9282977748        3181.7807410591      PI        B1 (2)
  203    78         117.5504382570        3198.7100442479     SG+        A1 (1)
  204    79         122.2854140565        3327.5552861182     SG+        A1 (1)
  205    80         198.5533745172        5402.9119993502      DE        A1 (1)
  206   218         198.5533745172        5402.9119993503      DE        A2 (4)
  207   136         198.6653165944        5405.9580981326      PI        B1 (2)
  208   188         198.6653165944        5405.9580981327      PI        B2 (3)
  209    81         198.9734498497        5414.3428302806     SG+        A1 (1)
  210    82         216.4679010216        5890.3910484921     SG+        A1 (1)
  211   137         224.9410381066        6120.9568303129      PI        B1 (2)
  212   189         224.9410381066        6120.9568303130      PI        B2 (3)
  213    83         225.7546580599        6143.0965548034     SG+        A1 (1)
  214   190         395.4013908644       10759.4188437039      PI        B2 (3)
  215   138         395.4013908644       10759.4188437044      PI        B1 (2)
  216    84         395.9294022044       10773.7867627162     SG+        A1 (1)
  217    85         508.9084430442       13848.1027591723     SG+        A1 (1)
  218    86         895.3017827960       24362.4000703662     SG+        A1 (1)


  VSCF finished.

 @CHECKOUT-I, Total execution time (CPU/WALL):       49.69/       9.87 seconds.
--executable xvscf finished with status     0 in        9.89 seconds (walltime).
 --invoking executable--
/nfs/workspaces/public/cfour_mpi/bin/xvtran
 @GETMEM-I,  Allocated    3814 MB of main memory.
  Full RHF integral transformation
  Transformation of IIII integrals :
  1 pass through the AO integral file was required.
     4506257 AO integrals were read.
     8720293 MO integrals were written to HF2.
  Transformation of IIJJ integrals :
  1 pass through the AO integral file was required.
    10224598 AO integrals were read.
    14509341 MO integrals were written to HF2.
  Transformation of IJIJ integrals :
  1 pass through the AO integral file was required.
    19416544 AO integrals were read.
    27095678 MO integrals were written to HF2.
  Transformation of IJKL integrals :
  1 pass through the AO integral file was required.
    14375169 AO integrals were read.
    18288204 MO integrals were written to HF2.
  Summary of active molecular orbitals: 
------------------------------------------------------------------------
 
  Index      Eigenvalue    Symmetry    Index      Eigenvalue    Symmetry
------------------------------------------------------------------------
     1       -20.6631609        1       110         4.1268392        2
     2       -11.4572141        1       111         4.1733304        2
     3        -1.3771185        1       112         4.7639948        2
     4        -0.7930365        1       113         5.0326876        2
     5        -0.5641665        1       114         5.5232833        2
     6        -0.5539575        2       115         5.9681039        2
     7        -0.5539575        3       116         6.2348781        2
     8         0.0634952        1       117         6.3986107        2
     9         0.0689544        1       118         7.0340915        2
    10         0.1572544        1       119         7.7847491        2
    11         0.2255915        1       120        10.0101759        2
    12         0.2262193        1       121        10.7768694        2
    13         0.2993514        1       122        11.1084711        2
    14         0.3734658        1       123        11.8657943        2
    15         0.5080523        1       124        12.6065610        2
    16         0.5172088        1       125        13.1834578        2
    17         0.5458085        1       126        18.9475446        2
    18         0.7434051        1       127        26.7730648        2
    19         0.7545399        1       128        33.6589656        2
    20         0.8251229        1       129        47.2906509        2
    21         0.8676317        1       130        66.4843084        2
    22         0.8765184        1       131        98.5744805        2
    23         1.1229302        1       132        98.6124173        2
    24         1.4080417        1       133       103.2880636        2
    25         1.5574284        1       134       103.3520162        2
    26         1.6408232        1       135       115.2433612        2
    27         1.7253864        1       136       116.9282978        2
    28         1.8655625        1       137       198.6653166        2
    29         2.0207344        1       138       224.9410381        2
    30         2.0873367        1       139       395.4013909        2
    31         2.1550196        1       140         0.0389538        3
    32         2.2810962        1       141         0.0927899        3
    33         2.3225207        1       142         0.1716161        3
    34         2.5000799        1       143         0.2992501        3
    35         2.6396554        1       144         0.3978308        3
    36         2.8083350        1       145         0.6257329        3
    37         3.3053643        1       146         0.7414154        3
    38         3.7014798        1       147         0.7960426        3
    39         3.8993500        1       148         0.8970944        3
    40         4.2130618        1       149         1.0364467        3
    41         4.2171203        1       150         1.4311260        3
    42         4.2872823        1       151         1.5634003        3
    43         4.3894224        1       152         1.6582464        3
    44         4.9226823        1       153         2.0746373        3
    45         5.0096367        1       154         2.2293535        3
    46         5.3685227        1       155         2.2723518        3
    47         5.8635919        1       156         2.2793507        3
    48         6.1900060        1       157         2.5322622        3
    49         6.2067898        1       158         2.6649510        3
    50         6.3879822        1       159         3.6011255        3
    51         6.5299751        1       160         4.0423156        3
    52         6.6369158        1       161         4.1268392        3
    53         7.3407821        1       162         4.1733304        3
    54         8.2951257        1       163         4.7639948        3
    55         9.8517155        1       164         5.0326876        3
    56        10.6227799        1       165         5.5232833        3
    57        10.8015827        1       166         5.9681039        3
    58        11.0108273        1       167         6.2348781        3
    59        11.4233886        1       168         6.3986107        3
    60        12.0850472        1       169         7.0340915        3
    61        12.7699926        1       170         7.7847491        3
    62        12.9342598        1       171        10.0101759        3
    63        14.1197847        1       172        10.7768694        3
    64        17.5755013        1       173        11.1084711        3
    65        20.3921585        1       174        11.8657943        3
    66        26.3516425        1       175        12.6065610        3
    67        27.3284797        1       176        13.1834578        3
    68        34.4192901        1       177        18.9475446        3
    69        36.1010061        1       178        26.7730648        3
    70        47.0818238        1       179        33.6589656        3
    71        47.8778130        1       180        47.2906509        3
    72        63.9404240        1       181        66.4843084        3
    73        67.5251779        1       182        98.5744805        3
    74        98.5883503        1       183        98.6124173        3
    75        98.6337766        1       184       103.2880636        3
    76       103.3078296        1       185       103.3520162        3
    77       103.3576359        1       186       115.2433612        3
    78       115.0407768        1       187       116.9282978        3
    79       115.5364545        1       188       198.6653166        3
    80       117.5504383        1       189       224.9410381        3
    81       122.2854141        1       190       395.4013909        3
    82       198.5533745        1       191         0.2255915        4
    83       198.9734498        1       192         0.5458085        4
    84       216.4679010        1       193         0.7545399        4
    85       225.7546581        1       194         0.8765184        4
    86       395.9294022        1       195         1.5574284        4
    87       508.9084430        1       196         1.7253864        4
    88       895.3017828        1       197         2.0873367        4
    89         0.0389538        2       198         2.1550196        4
    90         0.0927899        2       199         2.3225207        4
    91         0.1716161        2       200         2.8083350        4
    92         0.2992501        2       201         3.7014798        4
    93         0.3978308        2       202         4.2171203        4
    94         0.6257329        2       203         4.2872823        4
    95         0.7414154        2       204         4.9226823        4
    96         0.7960426        2       205         5.8635919        4
    97         0.8970944        2       206         6.2067898        4
    98         1.0364467        2       207         6.5299751        4
    99         1.4311260        2       208         6.6369158        4
   100         1.5634003        2       209        10.6227799        4
   101         1.6582464        2       210        11.0108273        4
   102         2.0746373        2       211        12.0850472        4
   103         2.2293535        2       212        12.7699926        4
   104         2.2723518        2       213        26.3516425        4
   105         2.2793507        2       214        47.0818238        4
   106         2.5322622        2       215        98.5883503        4
   107         2.6649510        2       216       103.3078296        4
   108         3.6011255        2       217       115.0407768        4
   109         4.0423156        2       218       198.5533745        4
------------------------------------------------------------------------
  -20.6631608674975       -11.4572141070956       -1.37711849343930     
 -0.793036506022760      -0.564166493526227      -0.553957519888084     
 -0.553957519888055       6.349517799544178E-002  6.895443417706643E-002
  0.157254441154005       0.225591481522859       0.226219347733722     
  0.299351443541691       0.373465792295308       0.508052290217415     
  0.517208818989645       0.545808484719069       0.743405122059337     
  0.754539924452648       0.825122903595846       0.867631685569646     
  0.876518374048983        1.12293022830738        1.40804166391068     
   1.55742842358142        1.64082324772212        1.72538640798257     
   1.86556250513379        2.02073442169407        2.08733672715550     
   2.15501955097052        2.28109623096825        2.32252066559088     
   2.50007986700702        2.63965537142721        2.80833499721202     
   3.30536427847795        3.70147981327883        3.89935000820922     
   4.21306184134650        4.21712027247594        4.28728225657824     
   4.38942243885653        4.92268231232462        5.00963674740692     
   5.36852265388546        5.86359185283109        6.19000595542649     
   6.20678982498173        6.38798219437663        6.52997513445787     
   6.63691583092647        7.34078208697989        8.29512572441182     
   9.85171554206637        10.6227798516491        10.8015826780225     
   11.0108272681842        11.4233885670869        12.0850471917279     
   12.7699925726019        12.9342598182358        14.1197847334627     
[...]
 Convergence information after    12 iterations: 
 Largest element of residual vector : -0.27499136E-05.
 Largest element of DIIS residual   : -0.16251618E-05.
 Convergence information after    13 iterations: 
 Largest element of residual vector : -0.12979280E-05.
 Largest element of DIIS residual   : -0.63370336E-06.
 Convergence information after    14 iterations: 
 Largest element of residual vector : -0.75371694E-06.
 Largest element of DIIS residual   : -0.41461624E-06.
 Convergence information after    15 iterations: 
 Largest element of residual vector : -0.28732412E-06.
 Largest element of DIIS residual   : -0.17633272E-06.
 Convergence information after    16 iterations: 
 Largest element of residual vector : -0.17118600E-06.
 Largest element of DIIS residual   : -0.73614535E-07.
 Perturbed amplitude equations converged in    16 iterations.
  Dominant contributions to perturbed wavefunction:
    7    7  140   28  -0.2414011110 ABAB
    7    7   28  140  -0.2414011110 ABAB
    7    7  140   39  -0.2101071550 ABAB
    7    7   39  140  -0.2101071550 ABAB
    7    7  140   54  -0.1665347157 ABAB
    7    7   54  140  -0.1665347157 ABAB
    7    7  141   28  -0.1571901759 ABAB
    7    7   28  141  -0.1571901759 ABAB
    7    6   28   89  -0.1544174616 ABAB
    6    7   89   28  -0.1544174616 ABAB
    7    7  140   20  -0.1440639074 ABAB
    7    7   20  140  -0.1440639074 ABAB
    7    7  141   39  -0.1416380258 ABAB
    7    7   39  141  -0.1416380258 ABAB
    7    7  140   45   0.1354983455 ABAB
    7    7   45  140   0.1354983455 ABAB
    7    6   39   89  -0.1348896593 ABAB
    6    7   89   39  -0.1348896593 ABAB
    7    7  140   21  -0.1297109962 ABAB
    7    7   21  140  -0.1297109962 ABAB
  norm of converged amps    1.95581752441397     
 Starting iterative solution of the perturbed Lambda equations.
 The DIIS procedure is used to accelerate convergence.
 Convergence criterion is 10**(-7).
 Maximum number of iterations is 100.
 Convergence information after     1 iterations: 
 Largest element of residual vector :  0.62736466E-01.
 Largest element of DIIS residual   :  0.62736466E-01.
 Convergence information after     2 iterations: 
 Largest element of residual vector : -0.12364307E-01.
 Largest element of DIIS residual   :  0.81015037E-02.
 Convergence information after     3 iterations: 
 Largest element of residual vector :  0.52907756E-02.
 Largest element of DIIS residual   :  0.47830273E-02.
 Convergence information after     4 iterations: 
 Largest element of residual vector :  0.33704188E-02.
 Largest element of DIIS residual   :  0.29304371E-02.
 Convergence information after     5 iterations: 
 Largest element of residual vector :  0.23931348E-02.
 Largest element of DIIS residual   :  0.14033188E-02.
 Convergence information after     6 iterations: 
 Largest element of residual vector :  0.95999212E-03.
 Largest element of DIIS residual   :  0.38859065E-03.
 Convergence information after     7 iterations: 
 Largest element of residual vector :  0.37028942E-03.
 Largest element of DIIS residual   : -0.13105622E-03.
 Convergence information after     8 iterations: 
 Largest element of residual vector :  0.84314017E-04.
 Largest element of DIIS residual   : -0.57300191E-04.
 Convergence information after     9 iterations: 
 Largest element of residual vector :  0.34785212E-04.
 Largest element of DIIS residual   : -0.11200006E-04.
 Convergence information after    10 iterations: 
 Largest element of residual vector : -0.86147372E-05.
 Largest element of DIIS residual   : -0.57608635E-05.
 Convergence information after    11 iterations: 
 Largest element of residual vector : -0.32955142E-05.
 Largest element of DIIS residual   : -0.19801785E-05.
 Convergence information after    12 iterations: 
 Largest element of residual vector : -0.20196633E-05.
 Largest element of DIIS residual   : -0.15940340E-05.
 Convergence information after    13 iterations: 
 Largest element of residual vector : -0.11640279E-05.
 Largest element of DIIS residual   : -0.84425361E-06.
 Convergence information after    14 iterations: 
 Largest element of residual vector : -0.82748838E-06.
 Largest element of DIIS residual   : -0.59479334E-06.
 Convergence information after    15 iterations: 
 Largest element of residual vector : -0.41070836E-06.
 Largest element of DIIS residual   : -0.25358592E-06.
 Convergence information after    16 iterations: 
 Largest element of residual vector : -0.23070370E-06.
 Largest element of DIIS residual   : -0.97685311E-07.
 Perturbed Lambda equations converged in    16 iterations.
  Dominant contributions to perturbed wavefunction:
    7    7  140   28  -0.2193941281 ABAB
    7    7   28  140  -0.2193941281 ABAB
    7    7  140   39  -0.1887771266 ABAB
    7    7   39  140  -0.1887771266 ABAB
    7    7  140   54  -0.1527612965 ABAB
    7    7   54  140  -0.1527612965 ABAB
    7    7  141   28  -0.1415587670 ABAB
    7    7   28  141  -0.1415587670 ABAB
    7    6   28   89  -0.1378497660 ABAB
    6    7   89   28  -0.1378497660 ABAB
    7    7  140   20  -0.1283669386 ABAB
    7    7   20  140  -0.1283669386 ABAB
    7    7  141   39  -0.1261222976 ABAB
    7    7   39  141  -0.1261222976 ABAB
    7    7  140   45   0.1212604213 ABAB
    7    7   45  140   0.1212604213 ABAB
    7    6   39   89  -0.1190852173 ABAB
    6    7   89   39  -0.1190852173 ABAB
    7    7  140   21  -0.1174204009 ABAB
    7    7   21  140  -0.1174204009 ABAB
        The DBOC first-order density matrix is being calculated 
             (Symmetry block 3, perturbation   2)
 term   4.28297575522596     
 final tnorm  0.852327986689076     
  norm contr. I: |<0|L dT/dx|0>|^2   0.000000000000000E+000
  norm contr. II: <0|[nabla(1+L)e-T][nabla e^T]|0>   4.28297575522596     
  total norm contribution   4.28297575522596     
 oo  8.235195041026235E-003
 vv  -32.1106496236790     
 vo  6.723329388340764E-002
  Correlated perturbed 1-el contribution to DBOC  -32.0351811347546       cm**-1
  SUM_I |dc_I/dx|^2 contribution to DBOC   16.1241599740204       cm**-1
 
 
  The total diagonal Born-Oppenheimer correction (DBOC) is:      0.0041390273 a.u.
  The total diagonal Born-Oppenheimer correction (DBOC) is:        908.411483 cm-1
 
 Total CC energy including DBOC  -113.199880980330     
 First-order density matrix is being calculated  (Symmetry block 3, perturbation   2)
 Calculation of the contributions of <pq||rs> to dI(i,j)/dx required   1.9 seconds.
 Calculation of the contributions of <pq||rs> to dI(a,b)/dx required  15.4 seconds.
 Calculation of the contributions of <pq||rs> to dI(i,a)/dx required   9.3 seconds.
 First-order Z-vector equations are solved for 1 perturbation.
 Convergence reached after  19 iterations.
        U*G(pq,rs) contribution is being calculated
             (Symmetry block 3, perturbation   2)

 CCSD contribution to force constants 

        0.0000000000        0.0000000000        0.0000000000
        0.0000000000        0.0000000000        0.0000000000
        0.0000000000        0.0000000000        0.0000000000
        0.0000000000        0.0000000000        0.0000000000
        0.0000000000        0.0000000000        0.0000000000
        0.0000000000        0.0000000000        0.0000000000
        0.0000000000        0.0000000000        0.0000000000
        0.0000000000        0.0000000000        0.0000000000
        0.0000000000        0.0000000000        0.0000000000
        0.0000000000        0.0000000000        0.0000000000
        0.0000000000        0.0000000000        0.0000000000
        0.0000000000        0.8792230256       -0.8792230256

 CCSD contribution to dipole derivatives 

        0.0000000000        0.0000000000        0.0000000000
        0.0000000000        0.0000000000        0.0000000000
        0.0000000000        0.0000000000        0.0000000000
        0.0000000000        0.0000000000       -0.0533824005
        0.0000000000        0.0000000000        0.0000000000
        0.0000000000        0.0000000000        0.0000000000
 @CHECKOUT-I, Total execution time (CPU/WALL):     1056.81/     259.32 seconds.
--executable xsdcc finished with status     0 in      259.35 seconds (walltime).
 --invoking executable--
/nfs/workspaces/public/cfour_mpi/bin/xanti
 @GETMEM-I,  Allocated    3814 MB of main memory.
 CCSD MO derivative gammas will be sorted to Mulliken order.
 @CHECKOUT-I, Total execution time (CPU/WALL):        9.63/      24.22 seconds.
--executable xanti finished with status     0 in       24.23 seconds (walltime).
 --invoking executable--
/nfs/workspaces/public/cfour_mpi/bin/xbcktrn
 @GETMEM-I,  Allocated    3814 MB of main memory.
 CCSD MO derivative gammas will be transformed to the AO basis.
 @CHECKOUT-I, Total execution time (CPU/WALL):       21.16/       5.85 seconds.
--executable xbcktrn finished with status     0 in        5.86 seconds (walltime).
 --invoking executable--
/nfs/workspaces/public/cfour_mpi/bin/xvdint
 @GETMEM-I,  Allocated    3814 MB of main memory.
 One- and two-electron integral derivatives are calculated
 for RHF-CC/MBPT hessians and dipole derivatives.
 Spherical gaussians are used.
  magnet F F
                    8722  records have been written to the Sort file.
  Total length of Sort file :             178609116  words.
 Evaluation of 2el integral derivatives

                      Two-electron integral gradient
                      ------------------------------

                         C #1 z     0.0000000000
                         O #2 z     0.0000000000


 C #1       0.0000000000           -0.1017165838            0.0000000000
 O #2       0.0000000000            0.1017165838            0.0000000000


 Evaluation of 2e integral derivatives required  341.31 seconds.
  contribution to Hessian
        0.0000000000        0.0000000000        0.0000000000
        0.0000000000       -0.1017165838        0.1017165838
 @CHECKOUT-I, Total execution time (CPU/WALL):      341.30/      70.48 seconds.
--executable xvdint finished with status     0 in       70.50 seconds (walltime).
 --invoking executable--
/nfs/workspaces/public/cfour_mpi/bin/xanti
 @GETMEM-I,  Allocated    3814 MB of main memory.
 CCSD MO gammas will be sorted to Mulliken order.
 @CHECKOUT-I, Total execution time (CPU/WALL):       11.00/       9.66 seconds.
--executable xanti finished with status     0 in        9.69 seconds (walltime).
 --invoking executable--
/nfs/workspaces/public/cfour_mpi/bin/xbcktrn
 @GETMEM-I,  Allocated    3814 MB of main memory.
 CCSD MO gammas will be transformed to the AO basis.
 @CHECKOUT-I, Total execution time (CPU/WALL):       27.67/       6.61 seconds.
--executable xbcktrn finished with status     0 in        6.63 seconds (walltime).
 --invoking executable--
/nfs/workspaces/public/cfour_mpi/bin/xvdint
 @GETMEM-I,  Allocated    3814 MB of main memory.
 One- and two-electron integral derivatives are calculated
 for RHF-CC/MBPT hessians and dipole derivatives.
 Spherical gaussians are used.
  magnet F F

                     Kinetic energy integral gradient
                     --------------------------------

                         C #1 z    -0.8878556634
                         O #2 z     0.8878556634


 C #1       0.0000000000            0.0000000000           -0.8878556634
 O #2       0.0000000000            0.0000000000            0.8878556634



                   Nuclear attraction integral gradient
                   ------------------------------------

                         C #1 z    17.8387860806
                         O #2 z   -17.8387860806


 C #1       0.0000000000            0.0000000000           17.8387860806
 O #2       0.0000000000            0.0000000000          -17.8387860806



                      Reorthonormalization gradient
                      -----------------------------

                         C #1 z     0.0000000000
                         O #2 z     0.0000000000


 C #1       0.0000000000            0.0000000000            0.0000000000
 O #2       0.0000000000            0.0000000000            0.0000000000



                     Kinetic energy integral Hessian
                     -------------------------------


           Symmetry 1

           C #1 z      O #2 z

 C #1 z    0.872349
 O #2 z   -0.872349    0.872349


           Symmetry 2

           C #1 x      O #2 x

 C #1 x   -0.862811
 O #2 x    0.862811   -0.862811


           Symmetry 3

           C #1 y      O #2 y

 C #1 y   -0.862811
 O #2 y    0.862811   -0.862811




           C #1 x      C #1 y      C #1 z      O #2 x      O #2 y      O #2 z

 C #1 x   -0.862811
 C #1 y    0.000000   -0.862811
 C #1 z    0.000000    0.000000    0.872349

 O #2 x    0.862811    0.000000    0.000000   -0.862811
 O #2 y    0.000000    0.862811    0.000000    0.000000   -0.862811
 O #2 z    0.000000    0.000000   -0.872349    0.000000    0.000000    0.872349




                   Nuclear attraction integral Hessian
                   -----------------------------------


           Symmetry 1

           C #1 z      O #2 z

 C #1 z  -11.032819
 O #2 z   11.032819  -11.032819


           Symmetry 2

           C #1 x      O #2 x

 C #1 x   11.985644
 O #2 x  -11.985644   11.985644


           Symmetry 3

           C #1 y      O #2 y

 C #1 y   11.985644
 O #2 y  -11.985644   11.985644




           C #1 x      C #1 y      C #1 z      O #2 x      O #2 y      O #2 z

 C #1 x   11.985644
 C #1 y    0.000000   11.985644
 C #1 z    0.000000    0.000000  -11.032819

 O #2 x  -11.985644    0.000000    0.000000   11.985644
 O #2 y    0.000000  -11.985644    0.000000    0.000000   11.985644
 O #2 z    0.000000    0.000000   11.032819    0.000000    0.000000  -11.032819




                Highest order reorthonormalization Hessian
                ------------------------------------------


           Symmetry 1

           C #1 z      O #2 z

 C #1 z    0.000000
 O #2 z    0.000000    0.000000


           Symmetry 2

           C #1 x      O #2 x

 C #1 x    0.000000
 O #2 x    0.000000    0.000000


           Symmetry 3

           C #1 y      O #2 y

 C #1 y    0.000000
 O #2 y    0.000000    0.000000




           C #1 x      C #1 y      C #1 z      O #2 x      O #2 y      O #2 z




                Electronic contributions to dipole moment
                -----------------------------------------

                               au             Debye

                    z      0.24108803      0.61278476

  Conversion factor used: 1 a.u. =   2.54174691 Debye 



   Electronic contributions to static part of dipole moment derivatives
   --------------------------------------------------------------------


                     Total dipole moment derivatives
                     -------------------------------


           Symmetry 1
                              Ez

               C #1 z    -5.65326346
               O #2 z    -8.34673654

           Symmetry 2
                              Ex

               C #1 x    -5.68810561
               O #2 x    -8.31189439

           Symmetry 3
                              Ey

               C #1 y    -5.68810561
               O #2 y    -8.31189439



                       Ex          Ey          Ez

      C #1    x   -5.688106    0.000000    0.000000
      C #1    y    0.000000   -5.688106    0.000000
      C #1    z    0.000000    0.000000   -5.653263

      O #2    x   -8.311894    0.000000    0.000000
      O #2    y    0.000000   -8.311894    0.000000
      O #2    z    0.000000    0.000000   -8.346737

 Evaluation of 1e integral derivatives required    1.74 seconds.
                    8815  records have been written to the Sort file.
  Total length of Sort file :             180513570  words.
 Evaluation of 2el integral derivatives

                      Two-electron integral gradient
                      ------------------------------

                         C #1 z    -9.0669026624
                         O #2 z     9.0669026624


 C #1       0.0000000000            0.0000000000           -9.0669026624
 O #2       0.0000000000            0.0000000000            9.0669026624


 Evaluation of 2e integral derivatives required  680.33 seconds.

                            Molecular gradient
                            ------------------

                         C #1 z     0.6754606577
                         O #2 z    -0.6754606577


 C #1       0.0000000000            0.0000000000            0.6754606577
 O #2       0.0000000000            0.0000000000           -0.6754606577


  Molecular gradient norm 0.955E+00

                            Molecular hessian
                            -----------------


           Symmetry 1

           C #1 z      O #2 z

 C #1 z   34.162620
 O #2 z  -34.162620   34.162620


           Symmetry 2

           C #1 x      O #2 x

 C #1 x   -0.488204
 O #2 x    0.488204   -0.488204


           Symmetry 3

           C #1 y      O #2 y

 C #1 y   -0.488204
 O #2 y    0.488204   -0.488204




           C #1 x      C #1 y      C #1 z      O #2 x      O #2 y      O #2 z

 C #1 x   -0.488204
 C #1 y    0.000000   -0.488204
 C #1 z    0.000000    0.000000   34.162620

 O #2 x    0.488204    0.000000    0.000000   -0.488204
 O #2 y    0.000000    0.488204    0.000000    0.000000   -0.488204
 O #2 z    0.000000    0.000000  -34.162620    0.000000    0.000000   34.162620




                           Total dipole moment
                           -------------------

                               au             Debye

                    z      0.23827554      0.60563613

  Conversion factor used: 1 a.u. =   2.54174691 Debye 



                     Total dipole moment derivatives
                     -------------------------------


           Symmetry 1
                              Ez

               C #1 z     0.68047947
               O #2 z    -0.68047947

           Symmetry 2
                              Ex

               C #1 x     0.09497926
               O #2 x    -0.09497926

           Symmetry 3
                              Ey

               C #1 y     0.09497926
               O #2 y    -0.09497926



                       Ex          Ey          Ez

      C #1    x    0.094979    0.000000    0.000000
      C #1    y    0.000000    0.094979    0.000000
      C #1    z    0.000000    0.000000    0.680479

      O #2    x   -0.094979    0.000000    0.000000
      O #2    y    0.000000   -0.094979    0.000000
      O #2    z    0.000000    0.000000   -0.680479

 @CHECKOUT-I, Total execution time (CPU/WALL):      682.06/     115.61 seconds.
--executable xvdint finished with status     0 in      115.64 seconds (walltime).
 --invoking executable--
/nfs/workspaces/public/cfour_mpi/bin/xjoda
  @GTFLGS-I, Hessian will be transformed to curvilinear coordinates.
  @GTFLGS-I, Hessian will be transformed to curvilinear coordinates.
  igrd and ihes are                      0                     1
  gradient from JOBARC 
   0.000000000000000   0.000000000000000   0.675460657723335
   0.000000000000000   0.000000000000000  -0.675460657723335
 
  @PROJFCM-I, Projecting force constant matrix onto totally symmetric subspace.
  Largest difference between matrix elements of symmetrized
  and unsymmetrized FCM :     0.9477307827E-11.
  read isotopes from ZMAT file 
 
  Summary of diagonal Born-Oppenheimer correction at the correlated level
  The total diagonal Born-Oppenheimer correction (DBOC) is:      0.0041390273 a.u.
  The total diagonal Born-Oppenheimer correction (DBOC) is:        908.411483 cm-1
  The total diagonal Born-Oppenheimer correction (DBOC) is:            10.867 kJ/mole
  hellooooooo 
  readis is  F
 
 @CHECKOUT-I, Total execution time (CPU/WALL):        0.01/       0.04 seconds.
--executable xjoda finished with status     0 in        0.06 seconds (walltime).
  The final electronic energy is      -113.199880980330207 a.u. 
  This computation required                         2659.65 seconds (walltime).
