 --invoking executable--
/nfs/workspaces/public/cfour_mpi/bin/xjoda


   *************************************************************************
         <<<     CCCCCC     CCCCCC   |||     CCCCCC     CCCCCC   >>>
       <<<      CCC        CCC       |||    CCC        CCC         >>>
      <<<      CCC        CCC        |||   CCC        CCC            >>>
    <<<        CCC        CCC        |||   CCC        CCC              >>>
      <<<      CCC        CCC        |||   CCC        CCC            >>>
       <<<      CCC        CCC       |||    CCC        CCC         >>>
         <<<     CCCCCC     CCCCCC   |||     CCCCCC     CCCCCC   >>>
   *************************************************************************

     ****************************************************************
     * CFOUR Coupled-Cluster techniques for Computational Chemistry *
     ****************************************************************
 

   Department of Chemistry                Institut fuer Physikalische Chemie
   University of Florida                  Universitaet Mainz
   Gainesville, FL 32611, USA             D-55099 Mainz, Germany

   Department of Chemistry                Fakultaet fuer Chemie und Biowiss.
   Johns Hopkins University               Karlsruher Institut fuer Technologie
   Baltimore, MD 21218, USA               D-76131 Karlsruhe, Germany

   Department of Chemistry                Department of Physical Chemistry
   Southern Methodist University          Eotvos Lorand University
   Dallas, TX 75275, USA                  H-1053 Budapest, Hungary

 
                       Version 2.1
 
                     vincent.theory.phys.ucl.ac.uk                     
                     Mon 24 Feb 22:04:43 GMT 2025                      
                     integer*8 version is running
 
********************************************************************************
*                          Input from ZMAT file                                *
********************************************************************************
Carbon Monoxide DBOC calculation                                                
C                                                                               
O 1 r                                                                           
                                                                                
r=1.1172413793103448                                                            
                                                                                
                                                                                
*CFOUR(CALC=CCSD,BASIS=AUG-PCVQZ,SCF_CONV=10                                    
CC_CONV=14,DBOC=ON,MEMORY=500000000                                             
ZFIELD=200)                                                                     
                                                                                
%isotopes                                                                       
12                                                                              
16                                                                              
********************************************************************************
  @GTFLGS-I, Hessian will be transformed to curvilinear coordinates.
    -------------------------------------------------------------------
                    CFOUR Control Parameters 
    -------------------------------------------------------------------
        External           Internal           Value            Units
          Name               Name
    -------------------------------------------------------------------
       ABCDTYPE             IABCDT         STANDARD    [  0]    ***   
       ANHARMONIC           IANHAR         OFF         [  0]    ***   
       ANH_ALGORIT          IANALG         STANDARD    [  0]    ***   
       ANH_DERIVAT          IANDER         SECOND      [  1]    ***   
       ANH_MODE             ANHMOD         VIBRATION   [  0]    ***   
       ANH_STEPSIZ          ICUBST             50000          x 10-6  
       ANH_SYMMETR          IANHSM         ABELIAN     [  0]    ***   
       AO_LADDERS           IAOLAD         SINGLEPASS  [  1]    ***   
       AV_SCF               IAVSCF         OFF         [  0]    ***   
       BASIS                IBASIS         AUG-PCVQZ   [ 52]    ***   
       BOTHVECTORS          BOTHVC         OFF         [  0]    ***   
       BOX_POTENT           IPIAB          OFF         [  0]    ***   
       BREIT                IBREIT         OFF         [  0]    ***   
       BRUCK_CONV           IBRTOL          10D-  4             ***   
       BRUECKNER            IBRKNR         OFF         [  0]    ***   
       BUFFERSIZE           IBUFFS              4096            ***   
       CACHE_RECS           ICHREC             10               ***   
       CALCLEVEL            ICLLVL         CCSD        [ 10]    ***   
       CCORBOPT             ICCORB         OFF         [  0]  x 0.01  
       CC_CONV              ICCCNV          10D- 14             ***   
       CC_EXPORDER          ICCEOR              5               ***   
       CC_EXTRAPOL          ICCEXT         DIIS        [  1]    ***   
       CC_GUESS             ICCGES         MP2         [  0]    ***   
       CC_MAXCYC            ICCCYC            100              cycles 
       CC_PROGRAM           ICCPRO         VCC         [  0]    ***   
       CHARGE               ICHRGE              0               ***   
       CHOLESKY             ICHOLE         OFF         [  0]    ***   
       CIS_CONV             ICISTL              5               ***   
       COMM_SIZE            IPSIZE            ***               ***   
       CONSTANT             ICONST         OLD         [  1]    ***   
       CONTINUUM            ICONTU         NONE        [  0]    ***   
       CONTRACTION          ICNTYP         GENERAL     [  1]    ***   
       COORDINATES          ICOORD         INTERNAL    [  0]    ***   
       CPHF_CONVER          ICPHFT          10D- 16             ***   
       CPHF_MAXCYC          ICPHFC             64              cycles 
       CUBIC                ICUBIC         OFF         [  0]    ***   
       CURVILINEAR          ICURVY         ON          [  1]    ***   
       DBOC                 IDBOC          ON          [  1]    ***   
       DCT                  IDCT           OFF         [  0]    ***   
       DERIV_LEV            IDRLVL         SECOND      [  2]    ***   
       DEVMEM_SIZE          IDVMEM          50000000           MByte  
       DIAG_MRCC            IEOMST          10D-  0             ***   
       DIFF_TYPE            IDIFTY         RELAXED     [  0]    ***   
       DIRECT               IDIRCT         OFF         [  0]    ***   
       DROPMO               IDRPMO      NONE         
       ECP                  IECP           OFF         [  0]    ***   
       EIGENVECTOR          IVEC                1               ***   
       EL_ANHARM            IELANH         OFF         [  0]    ***   
       EOMFOLLOW            IEOMSR         ENERGY      [  0]    ***   
       EOMIP                IEOMIP         OFF         [  0]    ***   
       EOMLEVEL             HBARFM         SAME        [  0]    ***   
       EOM_MRCC             IMRCCE         NEW         [  1]    ***   
       EOM_NONIT            EOMNON         OFF         [  0]    ***   
       EOM_NSING            IEOMSI          10D-  0             ***   
       EOM_NSTATES          IMRCCD         DAVIDSON    [  0]    ***   
       EOM_NTRIP            IEOMTR          10D-  0             ***   
       EOM_ORDER            IEXORD         ENERGY      [  0]    ***   
       EOM_PROPSTA          IEOMST              0               ***   
       ESTATE_CONV          IEXTOL          10D-  5             ***   
       ESTATE_DIAG          IEXDIG         ITERATIVE   [  0]    ***   
       ESTATE_LOCK          IESLOC         ON          [  1]    ***   
       ESTATE_MAXC          IEXMXC             40               ***   
       ESTATE_PROP          IEXPRP         OFF         [  0]    ***   
       EVAL_HESS            IRECAL              0            # of cyc.
       EXCITATION           IEXCIT              0               ***   
       EXCITE               IEXCIT         NONE        [  0]    ***   
       EXTERN_POT           IEXPOT         OFF         [  0]    ***   
       FCGRADNEW            IFCGNW         OFF         [  0]    ***   
       FC_FIELD             IFINFC              0             x 10-6  
       FD_CALTYPE           IFDCAL         GRADONLY    [  0]    ***   
       FD_PROJECT           IFDPRJ         OFF         [  1]    ***   
       FD_STEPSIZE          IDISFD              0            10-4 bohr
       FD_USEGROUP          IFDGRP         FULL        [  0]    ***   
       FILE_RECSIZ          IFLREC              4096           words  
       FINITE_PERT          IFIPER              0             x 10-6  
       FIXGEOM              IFIXGM         OFF         [  0]    ***   
       FOCK                 IFOCK          AO          [  1]    ***   
       FREQ_ALGORI          IVIALG         STANDARD    [  0]    ***   
       FROZEN_CORE          IFROCO         OFF         [  0]    ***   
       GAMMA_ABCD           IGABCD         STORE       [  0]    ***   
       GAMMA_ABCI           IGABCI         STORE       [  0]    ***   
       GENBAS_1             IGNBS1              0               ***   
       GENBAS_2             IGNBS2              0               ***   
       GENBAS_3             IGNBS3              0               ***   
       GENBAS_4             IGNBS4              0               ***   
       GEO_CONV             ICONTL              5              H/bohr 
       GEO_MAXCYC           IOPTCY             50               ***   
       GEO_MAXSTEP          IMXSTP            300            millibohr
       GEO_METHOD           INR            SINGLE_POINT[  5]    ***   
       GIAO                 IGIAO          OFF         [  1]    ***   
       GIMIC                IGIMIC         OFF         [  0]    ***   
       GRID                 IGRID          OFF         [  0]    ***   
       GRID_ALGO            IGALGO         SERIAL      [  0]    ***   
       GUESS                IGUESS         MOREAD      [  0]    ***   
       HBAR                 IHBAR          OFF         [  0]    ***   
       HESS_TYPE            IHESTP         SCF         [  0]    ***   
       HF2_FILE             IHF2Fl         USE         [  1]    ***   
       HFSTABILITY          ISTABL         OFF         [  0]    ***   
       INCORE               INCORE         OFF         [  0]    ***   
       INPUT_MRCC           IMRCC          ON          [  1]    ***   
       INTEGRALS            INTTYP         VMOL        [  1]    ***   
       JODA_PRINT           IJPRNT              0               ***   
       KEYWORD_OUT          IDMPKW         NO          [  0]    ***   
       LINDEP_TOL           ILINDP              8               ***   
       LINEQ_CONV           IZTACN          10D-  7           cycles  
       LINEQ_EXPOR          ILMAXD              5               ***   
       LINEQ_MAXCY          ILMAXC            100               ***   
       LINEQ_TYPE           ILTYPE         DIIS        [  1]    ***   
       LOCK_ORBOCC          ILOCOC         OFF         [  0]    ***   
       MEMORY_SIZE          IMEMSZ         500000000           words  
       MEM_UNIT             IMEMU          INTEGERWORDS[  0]    ***   
       MRCC                 IMRCCC         OFF         [  0]    ***   
       MULTIPLICTY          IMULTP              1               ***   
       NACOUPLING           IVCOUP         OFF         [  0]    ***   
       NEGEVAL              IDIE           ABORT       [  0]    ***   
       NEWNORM              INEWNO         OFF         [  0]    ***   
       NON-HF               INONHF         OFF         [  0]    ***   
       NTOP_TAMP            ITOPT2             15               ***   
       NUC_MODEL            INUCMO         POINT       [  0]    ***   
       OCCUPATION           IOCCU   ESTIMATED BY SCF 
       OPEN-SHELL           IOPEN          SPIN-ORBITAL[  0]    ***   
       OPTVIB               IOPTVB         OFF         [  0]    ***   
       ORBITALS             IORBTP         STANDARD    [  0]    ***   
       PARALLEL             IPARAL         ON          [  1]    ***   
       PARA_INT             IPINTS         ON          [  1]    ***   
       PARA_PRINT           IPPRIN              0               ***   
       PERT_ORB             IPTORB         STANDARD    [  0]    ***   
       POINTS               IGRDFD              0               ***   
       PRINT                IPRNT               0               ***   
       PROPS                IPROPS         OFF         [  0]    ***   
       PROP_INTEGR          IINTYP         INTERNAL    [  0]    ***   
       PSI                  IPSI           OFF         [  0]    ***   
       QC_ALG               IQCALG         FLM         [  0]    ***   
       QC_LINALG            IQCLIN         TRIDIAG     [  2]    ***   
       QC_MAXCYC            IQCMAX          10D-100           cycles  
       QC_MAXSCFCY          IQCMSC          10D- 15           cycles  
       QC_RTRUST            IQCRTR          10D-  0           x 10-3  
       QC_SKIPSCF           IQCSKI         OFF         [  0]    ***   
       QC_START             IQCSTA          10D-  1             ***   
       QRHFGUESS            IQGUES         OFF         [  0]    ***   
       QUARTIC              IQUART         OFF         [  0]    ***   
       RAMAN_INT            IRAMIN         OFF         [  0]    ***   
       RAMAN_ORB            IRAMRE         UNRELAXED   [  0]    ***   
       RDO                  IRDOFM         ON          [  1]    ***   
       REDUCE_REPR          REDREP         Ir          [  0]    ***   
       REFERENCE            IREFNC         RHF         [  0]    ***   
       RELATIVIST           IRELAT         OFF         [  0]    ***   
       RELAX_DENS           IRDENS         ON          [  1]    ***   
       RESET_FLAGS          IRESET         OFF         [  0]    ***   
       RESTART_CC           ICCRES         OFF         [  0]    ***   
       ROT_EVEC             ROTVEC              0               ***   
       SAVE_INTS            ISVINT         OFF         [  0]    ***   
       SCALE_ON             ISTCRT              0               ***   
       SCF_CONV             ISCFCV          10D- 10             ***   
       SCF_DAMPING          IDAMP               0             x 10-3  
       SCF_EXPORDE          IRPPOR              6               ***   
       SCF_EXPSTAR          IRPPLS              8               ***   
       SCF_EXTRAPO          IRPP           ON          [  1]    ***   
       SCF_MAXCYC           ISCFCY            150              cycles 
       SCF_NOSTOP           ISCFST         OFF         [  0]    ***   
       SCF_PRINT            ISCFPR              0               ***   
       SCF_PROG             ISCFPR         SCF         [  0]    ***   
       SD_FIELD             IFINSD              0             x 10-6  
       SOPERT               IPERSO         OFF         [  0]    ***   
       SPHERICAL            IDFGHI         ON          [  1]    ***   
       SPINORBIT            ISOCAL         OFF         [  0]    ***   
       SPINROTATIO          ISRCON         OFF         [  0]    ***   
       SPIN_FLIP            ISPFLP         OFF         [  0]    ***   
       SPIN_ORBIT           ISPORB         OFF         [  0]    ***   
       SPIN_SCAL            ISCSMP         OFF         [  0]    ***   
       STEEPSCALE           ISTPSC              1000          x 10-3  
       SUBGROUP             ISUBGP         DEFAULT     [  0]    ***   
       SUBGRPAXIS           ISBXYZ         X           [  0]    ***   
       SYMMETRY             ISYM           ON          [  0]    ***   
       SYM_CHECK            ISYMCK         OVERRIDE    [  1]    ***   
       T3_EXTRAPOL          IT3EXT         OFF         [  0]    ***   
       T4_EXTRAPOL          IT4EXP         OFF         [  0]    ***   
       TAMP_SUM             IEVERY              5               ***   
       TESTSUITE            ITESTS         OFF         [  0]    ***   
       THERMOCH             ITHERM         OFF         [  0]    ***   
       TOL_CHOLESK          ITOLCH          10D-  4             ***   
       TRANGRAD             IRESRM         OFF         [  0]    ***   
       TRANS_INV            ITRAIN         IGNORE      [  1]    ***   
       TREAT_PERT           ITREAT         SIMULTANEOUS[  0]    ***   
       TRIP_ALGORI          ITRALG         NORMAL      [  0]    ***   
       UIJ_THRESHO          IUIJTH              1               ***   
       UNITS                IUNITS         ANGSTROM    [  0]    ***   
       UNOS                 IUNOS          OFF         [  0]    ***   
       UPDATE_HESS          IHUPDT         ON          [  1]    ***   
       VIBPHASE             ISETPH         STANDARD    [  0]    ***   
       VIBRATION            IVIB           ANALYTIC    [  1]    ***   
       VIB_ALGORIT          IGEALG         STANDARD    [  0]    ***   
       VNATORB              IVNORB         OFF         [  0]    ***   
       VTRAN                IVTRAN         FULL/PARTIAL[  0]    ***   
       XFIELD               IXEFLD              0             x 10-6  
       XFORM_TOL            IXFTOL          10D- 11             ***   
       YFIELD               IYEFLD              0             x 10-6  
       ZFIELD               IZEFLD            200             x 10-6  
       ZSCALE_EXP           IZEXPS         OFF         [  0]    ***   
    -------------------------------------------------------------------
   2 entries found in Z-matrix 
   Job Title : Carbon Monoxide DBOC calculation                                                
   There are  1 unique internal coordinates.
   Of these,  0 will be optimized.
   User supplied Z-matrix: 
--------------------------------------------------------------------------------
       SYMBOL    BOND      LENGTH    ANGLE     ANGLE     DIHED     ANGLE
                  TO      (ANGST)    WRT      (DEG)      WRT      (DEG)
--------------------------------------------------------------------------------
        C    
        O          1         r    
                  *Initial values for internal coordinates* 
                      Name             Value
                        r               1.1172413793
--------------------------------------------------------------------------------
  read isotopes from ZMAT file 
   Rotational constants (in cm-1): 
          1.9697835466             1.9697835466
   Rotational constants (in MHz): 
      59052.6333883893         59052.6333883893
********************************************************************************
   The full molecular point group is CXv .
   The largest Abelian subgroup of the full molecular point group is C2v .
   The computational point group is C2v .
********************************************************************************
--------------------------------------------------------------------------------
   Analysis of internal coordinates specified by Z-matrix 
--------------------------------------------------------------------------------
   *The nuclear repulsion energy is   22.735016148148148 a.u.
   *There is   1 degree of freedom within the tot. symm. molecular subspace.
   *Z-matrix requests optimization of   0 coordinates.
   *The optimization is constrained.
   *The following   1 parameters can have non-zero 
    derivatives within the totally symmetric subspace:
             r    [ 1]
   *The following   0 parameters are to be optimized:

   *The following coordinates must be varied in an  unconstrained optimization.
             r    [ 1]
--------------------------------------------------------------------------------


 ----------------------------------------------------------------
         Coordinates used in calculation (QCOMP) 
 ----------------------------------------------------------------
 Z-matrix   Atomic            Coordinates (in bohr)
  Symbol    Number           X              Y              Z
 ----------------------------------------------------------------
     C         6        -0.00000000     0.00000000     1.20628173
     O         8         0.00000000     0.00000000    -0.90499894
 ----------------------------------------------------------------
 
   Interatomic distance matrix (Angstroms) 
 
                 C             O    
                [ 1]        [ 2]
  C    [ 1]     0.00000
  O    [ 2]     1.11724     0.00000
 rotcon2
   Rotational constants (in cm-1): 
          1.9697835466             0.0000000000
   Rotational constants (in MHz): 
      59052.6333883893             0.0000000000
  ECPDATA file not present.   Using default ECPDATA. 
  @GTFLGS-I, Hessian will be transformed to curvilinear coordinates.
  There are  218 basis functions.
 @CHECKOUT-I, Total execution time (CPU/WALL):        0.09/       0.13 seconds.
--executable xjoda finished with status     0 in        0.14 seconds (walltime).
 --invoking executable--
/nfs/workspaces/public/cfour_mpi/bin/xvmol
 SERIAL VERSION OF MOLECULE STARTED
********************************************************************************
                    INPUT FROM MOL FILE
********************************************************************************
INTGRL        1    0    1    0    0    0    0    0    0                         
         *** CFOUR Program System (Release V0.1) ***                            
Carbon Monoxide DBOC calculation                                                
    2    2 X  Y       0.10E-08              0    0                              
   9999.00      3.00                                                            
          6.00000000    1    5    1    1    1    1    1                         
C #1  -0.000000000000000   0.000000000000000   1.206281727752797                
   16    9                                                                      
   33980.0000000000       9.100000000000000E-005 -1.900000000000000E-005        
  0.000000000000000E+000  0.000000000000000E+000  0.000000000000000E+000        
  0.000000000000000E+000  0.000000000000000E+000  0.000000000000000E+000        
  0.000000000000000E+000                                                        
   5089.00000000000       7.040000000000000E-004 -1.510000000000000E-004        
  0.000000000000000E+000  0.000000000000000E+000  0.000000000000000E+000        
  0.000000000000000E+000  0.000000000000000E+000  0.000000000000000E+000        
  0.000000000000000E+000                                                        
   1157.00000000000       3.693000000000000E-003 -7.850000000000000E-004        
  0.000000000000000E+000  0.000000000000000E+000  0.000000000000000E+000        
  0.000000000000000E+000  0.000000000000000E+000  0.000000000000000E+000        
  0.000000000000000E+000                                                        
   326.600000000000       1.536000000000000E-002 -3.324000000000000E-003        
  0.000000000000000E+000  0.000000000000000E+000  0.000000000000000E+000        
  0.000000000000000E+000  0.000000000000000E+000  0.000000000000000E+000        
  0.000000000000000E+000                                                        
   106.100000000000       5.292900000000000E-002 -1.151200000000000E-002        
  0.000000000000000E+000  0.000000000000000E+000  0.000000000000000E+000        
  0.000000000000000E+000  0.000000000000000E+000  0.000000000000000E+000        
  0.000000000000000E+000                                                        
   38.1100000000000       0.147043000000000      -3.416000000000000E-002        
  0.000000000000000E+000  0.000000000000000E+000  0.000000000000000E+000        
  0.000000000000000E+000  0.000000000000000E+000  0.000000000000000E+000        
  0.000000000000000E+000                                                        
   14.7500000000000       0.305631000000000      -7.717300000000001E-002        
  0.000000000000000E+000  0.000000000000000E+000  0.000000000000000E+000        
  0.000000000000000E+000  0.000000000000000E+000  0.000000000000000E+000        
  0.000000000000000E+000                                                        
   6.03500000000000       0.399345000000000      -0.141493000000000             
  0.000000000000000E+000  0.000000000000000E+000  0.000000000000000E+000        
  0.000000000000000E+000  0.000000000000000E+000  0.000000000000000E+000        
  0.000000000000000E+000                                                        
   2.53000000000000       0.217051000000000      -0.118019000000000             
  0.000000000000000E+000  0.000000000000000E+000  0.000000000000000E+000        
  0.000000000000000E+000  0.000000000000000E+000  0.000000000000000E+000        
  0.000000000000000E+000                                                        
  0.735500000000000       1.589400000000000E-002  0.273806000000000             
   1.00000000000000       0.000000000000000E+000  0.000000000000000E+000        
  0.000000000000000E+000  0.000000000000000E+000  0.000000000000000E+000        
  0.000000000000000E+000                                                        
  0.290500000000000      -3.084000000000000E-003  0.586510000000000             
  0.000000000000000E+000   1.00000000000000       0.000000000000000E+000        
  0.000000000000000E+000  0.000000000000000E+000  0.000000000000000E+000        
  0.000000000000000E+000                                                        
  0.111100000000000       9.779999999999999E-004  0.285430000000000             
  0.000000000000000E+000  0.000000000000000E+000   1.00000000000000             
  0.000000000000000E+000  0.000000000000000E+000  0.000000000000000E+000        
  0.000000000000000E+000                                                        
   7.21600000000000       0.000000000000000E+000  0.000000000000000E+000        
  0.000000000000000E+000  0.000000000000000E+000  0.000000000000000E+000        
   1.00000000000000       0.000000000000000E+000  0.000000000000000E+000        
  0.000000000000000E+000                                                        
   19.5700000000000       0.000000000000000E+000  0.000000000000000E+000        
  0.000000000000000E+000  0.000000000000000E+000  0.000000000000000E+000        
  0.000000000000000E+000   1.00000000000000       0.000000000000000E+000        
  0.000000000000000E+000                                                        
   53.0730000000000       0.000000000000000E+000  0.000000000000000E+000        
  0.000000000000000E+000  0.000000000000000E+000  0.000000000000000E+000        
  0.000000000000000E+000  0.000000000000000E+000   1.00000000000000             
  0.000000000000000E+000                                                        
  4.145000000000000E-002  0.000000000000000E+000  0.000000000000000E+000        
  0.000000000000000E+000  0.000000000000000E+000  0.000000000000000E+000        
  0.000000000000000E+000  0.000000000000000E+000  0.000000000000000E+000        
   1.00000000000000                                                             
   10    8                                                                      
   34.5100000000000       5.378000000000000E-003  0.000000000000000E+000        
  0.000000000000000E+000  0.000000000000000E+000  0.000000000000000E+000        
  0.000000000000000E+000  0.000000000000000E+000  0.000000000000000E+000        
   7.91500000000000       3.613200000000000E-002  0.000000000000000E+000        
  0.000000000000000E+000  0.000000000000000E+000  0.000000000000000E+000        
  0.000000000000000E+000  0.000000000000000E+000  0.000000000000000E+000        
   2.36800000000000       0.142493000000000       0.000000000000000E+000        
  0.000000000000000E+000  0.000000000000000E+000  0.000000000000000E+000        
  0.000000000000000E+000  0.000000000000000E+000  0.000000000000000E+000        
  0.813200000000000       0.342150000000000        1.00000000000000             
  0.000000000000000E+000  0.000000000000000E+000  0.000000000000000E+000        
  0.000000000000000E+000  0.000000000000000E+000  0.000000000000000E+000        
  0.289000000000000       0.463864000000000       0.000000000000000E+000        
   1.00000000000000       0.000000000000000E+000  0.000000000000000E+000        
  0.000000000000000E+000  0.000000000000000E+000  0.000000000000000E+000        
  0.100700000000000       0.250028000000000       0.000000000000000E+000        
  0.000000000000000E+000   1.00000000000000       0.000000000000000E+000        
  0.000000000000000E+000  0.000000000000000E+000  0.000000000000000E+000        
   8.18200000000000       0.000000000000000E+000  0.000000000000000E+000        
  0.000000000000000E+000  0.000000000000000E+000   1.00000000000000             
  0.000000000000000E+000  0.000000000000000E+000  0.000000000000000E+000        
   24.1860000000000       0.000000000000000E+000  0.000000000000000E+000        
  0.000000000000000E+000  0.000000000000000E+000  0.000000000000000E+000        
   1.00000000000000       0.000000000000000E+000  0.000000000000000E+000        
   71.4940000000000       0.000000000000000E+000  0.000000000000000E+000        
  0.000000000000000E+000  0.000000000000000E+000  0.000000000000000E+000        
  0.000000000000000E+000   1.00000000000000       0.000000000000000E+000        
  3.218000000000000E-002  0.000000000000000E+000  0.000000000000000E+000        
  0.000000000000000E+000  0.000000000000000E+000  0.000000000000000E+000        
  0.000000000000000E+000  0.000000000000000E+000   1.00000000000000             
    6    6                                                                      
   1.84800000000000        1.00000000000000       0.000000000000000E+000        
  0.000000000000000E+000  0.000000000000000E+000  0.000000000000000E+000        
  0.000000000000000E+000                                                        
  0.649000000000000       0.000000000000000E+000   1.00000000000000             
  0.000000000000000E+000  0.000000000000000E+000  0.000000000000000E+000        
  0.000000000000000E+000                                                        
  0.228000000000000       0.000000000000000E+000  0.000000000000000E+000        
   1.00000000000000       0.000000000000000E+000  0.000000000000000E+000        
  0.000000000000000E+000                                                        
   8.65600000000000       0.000000000000000E+000  0.000000000000000E+000        
  0.000000000000000E+000   1.00000000000000       0.000000000000000E+000        
  0.000000000000000E+000                                                        
   33.2130000000000       0.000000000000000E+000  0.000000000000000E+000        
  0.000000000000000E+000  0.000000000000000E+000   1.00000000000000             
  0.000000000000000E+000                                                        
  7.660000000000000E-002  0.000000000000000E+000  0.000000000000000E+000        
  0.000000000000000E+000  0.000000000000000E+000  0.000000000000000E+000        
   1.00000000000000                                                             
    4    4                                                                      
   1.41900000000000        1.00000000000000       0.000000000000000E+000        
  0.000000000000000E+000  0.000000000000000E+000                                
  0.485000000000000       0.000000000000000E+000   1.00000000000000             
  0.000000000000000E+000  0.000000000000000E+000                                
   24.6940000000000       0.000000000000000E+000  0.000000000000000E+000        
   1.00000000000000       0.000000000000000E+000                                
  0.187000000000000       0.000000000000000E+000  0.000000000000000E+000        
  0.000000000000000E+000   1.00000000000000                                     
    2    2                                                                      
   1.01100000000000        1.00000000000000       0.000000000000000E+000        
  0.424000000000000       0.000000000000000E+000   1.00000000000000             
          8.00000000    1    5    1    1    1    1    1                         
O #2   0.000000000000000   0.000000000000000  -0.904998936717273                
   16    9                                                                      
   61420.0000000000       9.000000000000001E-005 -2.000000000000000E-005        
  0.000000000000000E+000  0.000000000000000E+000  0.000000000000000E+000        
  0.000000000000000E+000  0.000000000000000E+000  0.000000000000000E+000        
  0.000000000000000E+000                                                        
   9199.00000000000       6.980000000000001E-004 -1.590000000000000E-004        
  0.000000000000000E+000  0.000000000000000E+000  0.000000000000000E+000        
  0.000000000000000E+000  0.000000000000000E+000  0.000000000000000E+000        
  0.000000000000000E+000                                                        
   2091.00000000000       3.664000000000000E-003 -8.290000000000000E-004        
  0.000000000000000E+000  0.000000000000000E+000  0.000000000000000E+000        
  0.000000000000000E+000  0.000000000000000E+000  0.000000000000000E+000        
  0.000000000000000E+000                                                        
   590.900000000000       1.521800000000000E-002 -3.508000000000000E-003        
  0.000000000000000E+000  0.000000000000000E+000  0.000000000000000E+000        
  0.000000000000000E+000  0.000000000000000E+000  0.000000000000000E+000        
  0.000000000000000E+000                                                        
   192.300000000000       5.242300000000000E-002 -1.215600000000000E-002        
  0.000000000000000E+000  0.000000000000000E+000  0.000000000000000E+000        
  0.000000000000000E+000  0.000000000000000E+000  0.000000000000000E+000        
  0.000000000000000E+000                                                        
   69.3200000000000       0.145921000000000      -3.626100000000000E-002        
  0.000000000000000E+000  0.000000000000000E+000  0.000000000000000E+000        
  0.000000000000000E+000  0.000000000000000E+000  0.000000000000000E+000        
  0.000000000000000E+000                                                        
   26.9700000000000       0.305258000000000      -8.299200000000000E-002        
  0.000000000000000E+000  0.000000000000000E+000  0.000000000000000E+000        
  0.000000000000000E+000  0.000000000000000E+000  0.000000000000000E+000        
  0.000000000000000E+000                                                        
   11.1000000000000       0.398508000000000      -0.152090000000000             
  0.000000000000000E+000  0.000000000000000E+000  0.000000000000000E+000        
  0.000000000000000E+000  0.000000000000000E+000  0.000000000000000E+000        
  0.000000000000000E+000                                                        
   4.68200000000000       0.216980000000000      -0.115331000000000             
  0.000000000000000E+000  0.000000000000000E+000  0.000000000000000E+000        
  0.000000000000000E+000  0.000000000000000E+000  0.000000000000000E+000        
  0.000000000000000E+000                                                        
   1.42800000000000       1.759400000000000E-002  0.288979000000000             
   1.00000000000000       0.000000000000000E+000  0.000000000000000E+000        
  0.000000000000000E+000  0.000000000000000E+000  0.000000000000000E+000        
  0.000000000000000E+000                                                        
  0.554700000000000      -2.502000000000000E-003  0.586128000000000             
  0.000000000000000E+000   1.00000000000000       0.000000000000000E+000        
  0.000000000000000E+000  0.000000000000000E+000  0.000000000000000E+000        
  0.000000000000000E+000                                                        
  0.206700000000000       9.540000000000000E-004  0.277624000000000             
  0.000000000000000E+000  0.000000000000000E+000   1.00000000000000             
  0.000000000000000E+000  0.000000000000000E+000  0.000000000000000E+000        
  0.000000000000000E+000                                                        
   12.9740000000000       0.000000000000000E+000  0.000000000000000E+000        
  0.000000000000000E+000  0.000000000000000E+000  0.000000000000000E+000        
   1.00000000000000       0.000000000000000E+000  0.000000000000000E+000        
  0.000000000000000E+000                                                        
   34.9000000000000       0.000000000000000E+000  0.000000000000000E+000        
  0.000000000000000E+000  0.000000000000000E+000  0.000000000000000E+000        
  0.000000000000000E+000   1.00000000000000       0.000000000000000E+000        
  0.000000000000000E+000                                                        
   93.8810000000000       0.000000000000000E+000  0.000000000000000E+000        
  0.000000000000000E+000  0.000000000000000E+000  0.000000000000000E+000        
  0.000000000000000E+000  0.000000000000000E+000   1.00000000000000             
  0.000000000000000E+000                                                        
  6.959000000000000E-002  0.000000000000000E+000  0.000000000000000E+000        
  0.000000000000000E+000  0.000000000000000E+000  0.000000000000000E+000        
  0.000000000000000E+000  0.000000000000000E+000  0.000000000000000E+000        
   1.00000000000000                                                             
   10    8                                                                      
   63.4200000000000       6.044000000000000E-003  0.000000000000000E+000        
  0.000000000000000E+000  0.000000000000000E+000  0.000000000000000E+000        
  0.000000000000000E+000  0.000000000000000E+000  0.000000000000000E+000        
   14.6600000000000       4.179900000000000E-002  0.000000000000000E+000        
  0.000000000000000E+000  0.000000000000000E+000  0.000000000000000E+000        
  0.000000000000000E+000  0.000000000000000E+000  0.000000000000000E+000        
   4.45900000000000       0.161143000000000       0.000000000000000E+000        
  0.000000000000000E+000  0.000000000000000E+000  0.000000000000000E+000        
  0.000000000000000E+000  0.000000000000000E+000  0.000000000000000E+000        
   1.53100000000000       0.356731000000000        1.00000000000000             
  0.000000000000000E+000  0.000000000000000E+000  0.000000000000000E+000        
  0.000000000000000E+000  0.000000000000000E+000  0.000000000000000E+000        
  0.530200000000000       0.448309000000000       0.000000000000000E+000        
   1.00000000000000       0.000000000000000E+000  0.000000000000000E+000        
  0.000000000000000E+000  0.000000000000000E+000  0.000000000000000E+000        
  0.175000000000000       0.244940000000000       0.000000000000000E+000        
  0.000000000000000E+000   1.00000000000000       0.000000000000000E+000        
  0.000000000000000E+000  0.000000000000000E+000  0.000000000000000E+000        
   14.4750000000000       0.000000000000000E+000  0.000000000000000E+000        
  0.000000000000000E+000  0.000000000000000E+000   1.00000000000000             
  0.000000000000000E+000  0.000000000000000E+000  0.000000000000000E+000        
   42.7300000000000       0.000000000000000E+000  0.000000000000000E+000        
  0.000000000000000E+000  0.000000000000000E+000  0.000000000000000E+000        
   1.00000000000000       0.000000000000000E+000  0.000000000000000E+000        
   126.140000000000       0.000000000000000E+000  0.000000000000000E+000        
  0.000000000000000E+000  0.000000000000000E+000  0.000000000000000E+000        
  0.000000000000000E+000   1.00000000000000       0.000000000000000E+000        
  5.348000000000000E-002  0.000000000000000E+000  0.000000000000000E+000        
  0.000000000000000E+000  0.000000000000000E+000  0.000000000000000E+000        
  0.000000000000000E+000  0.000000000000000E+000   1.00000000000000             
    6    6                                                                      
   3.77500000000000        1.00000000000000       0.000000000000000E+000        
  0.000000000000000E+000  0.000000000000000E+000  0.000000000000000E+000        
  0.000000000000000E+000                                                        
   1.30000000000000       0.000000000000000E+000   1.00000000000000             
  0.000000000000000E+000  0.000000000000000E+000  0.000000000000000E+000        
  0.000000000000000E+000                                                        
  0.444000000000000       0.000000000000000E+000  0.000000000000000E+000        
   1.00000000000000       0.000000000000000E+000  0.000000000000000E+000        
  0.000000000000000E+000                                                        
   14.9270000000000       0.000000000000000E+000  0.000000000000000E+000        
  0.000000000000000E+000   1.00000000000000       0.000000000000000E+000        
  0.000000000000000E+000                                                        
   57.5440000000000       0.000000000000000E+000  0.000000000000000E+000        
  0.000000000000000E+000  0.000000000000000E+000   1.00000000000000             
  0.000000000000000E+000                                                        
  0.154000000000000       0.000000000000000E+000  0.000000000000000E+000        
  0.000000000000000E+000  0.000000000000000E+000  0.000000000000000E+000        
   1.00000000000000                                                             
    4    4                                                                      
   2.66600000000000        1.00000000000000       0.000000000000000E+000        
  0.000000000000000E+000  0.000000000000000E+000                                
  0.859000000000000       0.000000000000000E+000   1.00000000000000             
  0.000000000000000E+000  0.000000000000000E+000                                
   26.4830000000000       0.000000000000000E+000  0.000000000000000E+000        
   1.00000000000000       0.000000000000000E+000                                
  0.324000000000000       0.000000000000000E+000  0.000000000000000E+000        
  0.000000000000000E+000   1.00000000000000                                     
    2    2                                                                      
   1.84600000000000        1.00000000000000       0.000000000000000E+000        
  0.714000000000000       0.000000000000000E+000   1.00000000000000             
FINISH                                                                          
 
********************************************************************************
 ONE- AND TWO-ELECTRON INTEGRALS OVER SYMMETRY-ADAPTED AOS ARE CALCULATED.

  SPHERICAL HARMONICS ARE USED.
  
  INTEGRALS LESS THAN  0.10E-13 ARE NEGLECTED.

  NUCLEAR REPULSION ENERGY :   22.7350161481 A.U.
  @MOLECU-I, ONE ELECTRON INTEGRALS (CPU/WALL):        0.05/       0.06 SECONDS.
  @TWOEL-I,    4601700 INTEGRALS OF SYMMETRY TYPE  I I I I
  @TWOEL-I,   19745378 INTEGRALS OF SYMMETRY TYPE  I J I J
  @TWOEL-I,   10405918 INTEGRALS OF SYMMETRY TYPE  I I J J
  @TWOEL-I,   14608421 INTEGRALS OF SYMMETRY TYPE  I J K L
  @TWOEL-I, TOTAL NUMBER OF 2-E INTEGRALS   49361417.
  @MOLECU-I, TWO ELECTRON INTEGRALS (CPU/WALL):      191.29/      26.23 SECONDS.
 @CHECKOUT-I, Total execution time (CPU/WALL):      191.35/      26.31 seconds.

Running with 14 threads/proc

--executable xvmol finished with status     0 in       26.33 seconds (walltime).
 --invoking executable--
/nfs/workspaces/public/cfour_mpi/bin/xvmol2ja
 @GETMEM-I,  Allocated    3814 MB of main memory.
 @CHECKOUT-I, Total execution time (CPU/WALL):        0.13/       0.06 seconds.
--executable xvmol2ja finished with status     0 in        0.07 seconds (walltime).
 --invoking executable--
/nfs/workspaces/public/cfour_mpi/bin/xvprop
 @GETMEM-I,  Allocated    3814 MB of main memory.
   Property integrals will be calculated.
    --------------------------------------------------------------
                                   Property evaluated at 
    Property type                X             Y             Z
    --------------------------------------------------------------
    Dipole moment               ----          ----          ----  
    Quadrupole moment           ----          ----          ----  
    Octopole moment             ----          ----          ----  
    Relativisitic corr.         ----          ----          ----  
    Second moment            0.0000000     0.0000000     0.0000000
    Electron density         0.0000000     0.0000000     1.2062817
    Electron density         0.0000000     0.0000000    -0.9049989
    Field gradient           0.0000000     0.0000000     1.2062817
    Field gradient           0.0000000     0.0000000    -0.9049989
    Potential                0.0000000     0.0000000     1.2062817
    Potential                0.0000000     0.0000000    -0.9049989
    --------------------------------------------------------------
 @CHECKOUT-I, Total execution time (CPU/WALL):        1.55/       1.58 seconds.
--executable xvprop finished with status     0 in        1.59 seconds (walltime).
 --invoking executable--
/nfs/workspaces/public/cfour_mpi/bin/xvscf
  There are  218 functions in the AO basis.

  There are 4 irreducible representations.

       Irrep        # of functions
         1                 86
         2                 52
         3                 52
         4                 28


  Parameters for SCF calculation: 
        SCF reference function:  RHF  
  Maximum number of iterations:  150
     Full symmetry point group: CXv 
     Computational point group: C2v 
        Initial density matrix: MOREAD                 
     SCF convergence tolerance: 10**(-10)
  DIIS convergence acceleration:  ON
          Latest start for DIIS:   8
                     DIIS order:   6

  Memory information:    2523578 words required.
  Fock matrices are constructed from AO integral file.
 @GETMEM-I,  Allocated      19 MB of main memory.
  Initialization and symmetry analysis required      0.001 seconds.

  Adding electric field perturbation to one-electron Hamiltonian.
  Field direction     : Z
  Field strength      :  0.0002000 a.u.

  @INITGES-I, Occupancies from core Hamiltonian:

          Alpha population by irrep:   5    1    1    0
           Beta population by irrep:   5    1    1    0


 total no. of electrons in initial guess :  0.000000000000000E+000
  --------------------------------------------------------------------
  Iteration         Total Energy            Largest Density Difference
  --------------------------------------------------------------------
       0            22.735016608373595              0.0000000000D+00
   current occupation vector 
     5  1  1  0
     5  1  1  0
       1           -91.706215983291770              0.1878737607D+02
   current occupation vector 
     5  1  1  0
     5  1  1  0
       2           -96.206303774475600              0.2779245825D+02
   current occupation vector 
     5  1  1  0
     5  1  1  0
       3          -103.326060601966020              0.2777901628D+02
   current occupation vector 
     5  1  1  0
     5  1  1  0
       4          -100.448922861736122              0.7636534370D+01
   current occupation vector 
     5  1  1  0
     5  1  1  0
       5          -103.603489062628739              0.7617567406D+01
   current occupation vector 
     5  1  1  0
     5  1  1  0
       6          -100.686050347264754              0.5798934367D+01
   current occupation vector 
     5  1  1  0
     5  1  1  0
       7          -103.345124765493139              0.5556299162D+01
   current occupation vector 
     5  1  1  0
     5  1  1  0
       8          -100.397517039999514              0.5538926448D+01
   current occupation vector 
     5  1  1  0
     5  1  1  0
       9          -110.907514551244930              0.4139363144D+01
   current occupation vector 
     5  1  1  0
     5  1  1  0
      10          -112.341123005849852              0.9101984509D+00
   current occupation vector 
     5  1  1  0
     5  1  1  0
      11          -112.778059427729062              0.4839736400D+00
   current occupation vector 
     5  1  1  0
     5  1  1  0
      12          -112.790019480316431              0.9842350797D-01
   current occupation vector 
     5  1  1  0
     5  1  1  0
      13          -112.790389891733611              0.2125169897D-01
   current occupation vector 
     5  1  1  0
     5  1  1  0
      14          -112.790460534334386              0.1290281184D-01
   current occupation vector 
     5  1  1  0
     5  1  1  0
      15          -112.790462949737957              0.3101494036D-02
   current occupation vector 
     5  1  1  0
     5  1  1  0
      16          -112.790462977844697              0.2706366631D-03
   current occupation vector 
     5  1  1  0
     5  1  1  0
      17          -112.790462978512750              0.3222130472D-04
   current occupation vector 
     5  1  1  0
     5  1  1  0
      18          -112.790462978534265              0.5089954679D-05
   current occupation vector 
     5  1  1  0
     5  1  1  0
      19          -112.790462978533952              0.9933820926D-06
   current occupation vector 
     5  1  1  0
     5  1  1  0
      20          -112.790462978532048              0.1508240410D-06
   current occupation vector 
     5  1  1  0
     5  1  1  0
      21          -112.790462978534606              0.2880420302D-07
   current occupation vector 
     5  1  1  0
     5  1  1  0
      22          -112.790462978534663              0.6697613131D-08
   current occupation vector 
     5  1  1  0
     5  1  1  0
      23          -112.790462978534691              0.4261738518D-08
   current occupation vector 
     5  1  1  0
     5  1  1  0
      24          -112.790462978534862              0.1337558397D-09
   current occupation vector 
     5  1  1  0
     5  1  1  0
      25          -112.790462978532645              0.2317996350D-09
   current occupation vector 
     5  1  1  0
     5  1  1  0

  SCF has converged.

 Density matrix saved to file den.dat
 total electron number:   14.0000000000000     
     E(SCF)=      -112.790462978534464              0.7462586105D-10

  Eigenvector printing suppressed.

 @PUTMOS-I, Writing converged MOs to NEWMOS. 
 @PUTMOS-I, Symmetry   1 Full Blocks 21 Partial Blocksize   2
 @PUTMOS-I, Symmetry   2 Full Blocks 13 Partial Blocksize   0
 @PUTMOS-I, Symmetry   3 Full Blocks 13 Partial Blocksize   0
 @PUTMOS-I, Symmetry   4 Full Blocks  7 Partial Blocksize   0
 @PUTFOCK-I, Writing converged Fock matrix to NEWFOCK. 
 @PUTFOCK-I, Symmetry   1 Full Blocks 21 Partial Blocksize   2
 @PUTFOCK-I, Symmetry   2 Full Blocks 13 Partial Blocksize   0
 @PUTFOCK-I, Symmetry   3 Full Blocks 13 Partial Blocksize   0
 @PUTFOCK-I, Symmetry   4 Full Blocks  7 Partial Blocksize   0


 
  ORBITAL EIGENVALUES (ALPHA)  (1H = 27.2113834 eV)

       MO #        E(hartree)               E(eV)           FULLSYM    COMPSYM
       ----   --------------------   --------------------   -------   ---------
    1     1         -20.6647138655        -562.3154518465     SG+        A1 (1)
    2     2         -11.3552635226        -308.9924293224     SG+        A1 (1)
    3     3          -1.5293709552         -41.6162994216     SG+        A1 (1)
    4     4          -0.8056326317         -21.9223784212     SG+        A1 (1)
    5   139          -0.6451984776         -17.5567431435      PI        B2 (3)
    6    87          -0.6451984776         -17.5567431435      PI        B1 (2)
    7     5          -0.5534180162         -15.0592698205     SG+        A1 (1)
  +++++++++++++++++++++++++++++++++++++++++++++++++++++++++++++++++++++++++++++
    8     6           0.0594406780           1.6174630785     SG+        A1 (1)
    9    88           0.0635473112           1.7292102486      PI        B1 (2)
   10   140           0.0635473112           1.7292102486      PI        B2 (3)
   11     7           0.0758873755           2.0650004702     SG+        A1 (1)
   12    89           0.1435624516           3.9065329115      PI        B1 (2)
   13   141           0.1435624516           3.9065329115      PI        B2 (3)
   14     8           0.1559317587           4.2431188691     SG+        A1 (1)
   15    90           0.1672856134           4.5520729642      PI        B1 (2)
   16   142           0.1672856134           4.5520729643      PI        B2 (3)
   17     9           0.2278370046           6.1997600852     SG+        A1 (1)
   18   191           0.2281727275           6.2088955696      DE        A2 (4)
   19    10           0.2281727275           6.2088955696      DE        A1 (1)
   20    11           0.3016674270           8.2087880144     SG+        A1 (1)
   21    91           0.3223926907           8.7727511124      PI        B1 (2)
   22   143           0.3223926907           8.7727511124      PI        B2 (3)
   23    12           0.3926413441          10.6843141543     SG+        A1 (1)
   24    92           0.3960249792          10.7763875443      PI        B1 (2)
   25   144           0.3960249792          10.7763875443      PI        B2 (3)
   26    13           0.5080478077          13.8246836808     SG+        A1 (1)
   27    14           0.5337352997          14.5236758744      DE        A1 (1)
   28   192           0.5337352997          14.5236758744      DE        A2 (4)
   29    93           0.6224840887          16.9386531968      PI        B1 (2)
   30   145           0.6224840887          16.9386531968      PI        B2 (3)
   31    15           0.6478993215          17.6302368414     SG+        A1 (1)
   32   146           0.7492070265          20.3869596435      PH        B2 (3)
   33    94           0.7492070265          20.3869596435      PH        B1 (2)
   34   193           0.7692298755          20.9318090657      DE        A2 (4)
   35    16           0.7692298755          20.9318090657      DE        A1 (1)
   36    17           0.7802630984          21.2320383226     SG+        A1 (1)
   37    95           0.8251935048          22.4546568375      PI        B1 (2)
   38   147           0.8251935048          22.4546568375      PI        B2 (3)
   39    18           0.8730136681          23.7559096369     SG+        A1 (1)
   40    96           0.8802432871          23.9526375716      PI        B1 (2)
   41   148           0.8802432871          23.9526375716      PI        B2 (3)
   42    19           0.8920517041          24.2739609328      DE        A1 (1)
   43   194           0.8920517041          24.2739609329      DE        A2 (4)
   44    20           0.9161979664          24.9310141339     SG+        A1 (1)
   45    97           1.0797682131          29.3819868296      PI        B1 (2)
   46   149           1.0797682131          29.3819868296      PI        B2 (3)
   47    21           1.2047156388          32.7819791364     SG+        A1 (1)
   48   150           1.4482647630          39.4092877307      PH        B2 (3)
   49    98           1.4482647630          39.4092877307      PH        B1 (2)
   50    22           1.4791225048          40.2489695730     SG+        A1 (1)
   51    23           1.5157678863          41.2461410987      DE        A1 (1)
   52   195           1.5157678863          41.2461410987      DE        A2 (4)
   53    99           1.5517908277          42.2263751683      PI        B1 (2)
   54   151           1.5517908277          42.2263751683      PI        B2 (3)
   55    24           1.6665634068          45.3494958223     SG+        A1 (1)
   56    25           1.7673893202          48.0931084077     SG+        A1 (1)
   57    26           1.7702704467          48.1715078479      DE        A1 (1)
   58   196           1.7702704467          48.1715078479      DE        A2 (4)
   59   100           1.8142227206          49.3675100219      PI        B1 (2)
   60   152           1.8142227206          49.3675100219      PI        B2 (3)
   61   101           1.9640913354          53.4456423609      PI        B1 (2)
   62   153           1.9640913354          53.4456423610      PI        B2 (3)
   63   197           2.1065726914          57.3227571663      PI        A2 (4)
   64    27           2.1065726914          57.3227571663      PI        A1 (1)
   65    28           2.1424519208          58.2990806334     SG+        A1 (1)
   66   198           2.1985071415          59.8244207351      DE        A2 (4)
   67    29           2.1985071415          59.8244207351      DE        A1 (1)
   68   154           2.2530435466          61.3084317621      PH        B2 (3)
   69   102           2.2530435466          61.3084317621      PH        B1 (2)
   70    30           2.3170871209          63.0511460179     SG+        A1 (1)
   71   103           2.3275792592          63.3366516156      PI        B1 (2)
   72   155           2.3275792592          63.3366516156      PI        B2 (3)
   73    31           2.3664609977          64.3946775084      DE        A1 (1)
   74   199           2.3664609977          64.3946775084      DE        A2 (4)
   75   156           2.3674858597          64.4225654219      PH        B2 (3)
   76   104           2.3674858597          64.4225654219      PH        B1 (2)
   77    32           2.4894987159          67.7427040330     SG+        A1 (1)
   78   105           2.6001418226          70.7534560304      PI        B1 (2)
   79   157           2.6001418226          70.7534560304      PI        B2 (3)
   80   106           2.8431120950          77.3650132668      PI        B1 (2)
   81   158           2.8431120950          77.3650132668      PI        B2 (3)
   82    33           2.9579292711          80.4893474655     SG+        A1 (1)
   83   200           3.0187304882          82.1438326948      DE        A2 (4)
   84    34           3.0187304882          82.1438326949      DE        A1 (1)
   85    35           3.4715737957          94.4663255555     SG+        A1 (1)
   86   201           3.7257556034         101.3829641799      PI        A2 (4)
   87    36           3.7257556034         101.3829641799      PI        A1 (1)
   88   107           3.7539559275         102.1503340098      PI        B1 (2)
   89   159           3.7539559275         102.1503340099      PI        B2 (3)
   90    37           3.9511322810         107.5157753620     SG+        A1 (1)
   91   160           4.0816436338         111.0671698208      PH        B2 (3)
   92   108           4.0816436338         111.0671698208      PH        B1 (2)
   93    38           4.1758785255         113.6314315879      DE        A1 (1)
   94   202           4.1758785255         113.6314315880      DE        A2 (4)
   95   109           4.2107954704         114.5815699642      PI        B1 (2)
   96   161           4.2107954704         114.5815699642      PI        B2 (3)
   97    39           4.2756064237         116.3451656634     SG+        A1 (1)
   98   162           4.2962371255         116.9065555984      PH        B2 (3)
   99   110           4.2962371255         116.9065555984      PH        B1 (2)
  100    40           4.3867186181         119.3686821853      DE        A1 (1)
  101   203           4.3867186181         119.3686821854      DE        A2 (4)
  102    41           4.5534873689         123.9066906029     SG+        A1 (1)
  103   111           4.7630122623         129.6081528078      PI        B1 (2)
  104   163           4.7630122623         129.6081528079      PI        B2 (3)
  105    42           5.0010304583         136.0849571946     SG+        A1 (1)
  106   112           5.1472827071         140.0646832099      PI        B1 (2)
  107   164           5.1472827071         140.0646832100      PI        B2 (3)
  108   204           5.1588254767         140.3787779408      DE        A2 (4)
  109    43           5.1588254767         140.3787779409      DE        A1 (1)
  110   113           5.8292744183         158.6226211414      PI        B1 (2)
  111   165           5.8292744183         158.6226211414      PI        B2 (3)
  112    44           5.8936325956         160.3738961767     SG+        A1 (1)
  113   205           5.9028826069         160.6256017803      PI        A2 (4)
  114    45           5.9028826069         160.6256017803      PI        A1 (1)
  115   166           6.1476922231         167.2872101084      PH        B2 (3)
  116   114           6.1476922231         167.2872101084      PH        B1 (2)
  117    46           6.2307821477         169.5482019033     SG+        A1 (1)
  118    47           6.3093400738         171.6858717480      DE        A1 (1)
  119   206           6.3093400738         171.6858717480      DE        A2 (4)
  120   167           6.3319018186         172.2998080376      PI        B2 (3)
  121   115           6.3319018186         172.2998080376      PI        B1 (2)
  122   168           6.4459224089         175.4024660342      PH        B2 (3)
  123   116           6.4459224089         175.4024660342      PH        B1 (2)
  124   207           6.5970366184         179.5144927262      DE        A2 (4)
  125    48           6.5970366184         179.5144927263      DE        A1 (1)
  126    49           7.0764127991         192.5589817726     SG+        A1 (1)
  127    50           7.3944630778         201.2135698480      DE        A1 (1)
  128   208           7.3944630778         201.2135698480      DE        A2 (4)
  129   117           7.5213183338         204.6654768538      PI        B1 (2)
  130   169           7.5213183338         204.6654768539      PI        B2 (3)
  131    51           7.8173159705         212.7199820323     SG+        A1 (1)
  132    52           8.2904063587         225.5934259685     SG+        A1 (1)
  133   118           8.5250164582         231.9774913343      PI        B1 (2)
  134   170           8.5250164582         231.9774913343      PI        B2 (3)
  135   171          10.1227620877         275.4543602367      PI        B2 (3)
  136   119          10.1227620878         275.4543602369      PI        B1 (2)
  137    53          10.4845376939         285.2987749605     SG+        A1 (1)
  138    54          10.6014738375         288.4807691978      PI        A1 (1)
  139   209          10.6014738375         288.4807691978      PI        A2 (4)
  140   120          10.8905349618         296.3465222769      PH        B1 (2)
  141   172          10.8905349618         296.3465222769      PH        B2 (3)
  142   210          11.1463422854         303.3073934346      DE        A2 (4)
  143    55          11.1463422854         303.3073934346      DE        A1 (1)
  144    56          11.1718840400         304.0024199119     SG+        A1 (1)
  145   173          11.3797072376         309.6575766212      PI        B2 (3)
  146   121          11.3797072376         309.6575766212      PI        B1 (2)
  147    57          11.6795833671         317.8176209551     SG+        A1 (1)
  148   122          11.8551622039         322.5953639996      PH        B1 (2)
  149   174          11.8551622039         322.5953639996      PH        B2 (3)
  150   211          12.3046305464         334.8260193922      DE        A2 (4)
  151    58          12.3046305464         334.8260193925      DE        A1 (1)
  152   175          12.6678423886         344.7095160863      PI        B2 (3)
  153   123          12.6678423886         344.7095160863      PI        B1 (2)
  154   212          12.8872779544         350.6806614004      DE        A2 (4)
  155    59          12.8872779544         350.6806614004      DE        A1 (1)
  156    60          13.3636965922         363.6446716117     SG+        A1 (1)
  157   124          14.2495351334         387.7495637859      PI        B1 (2)
  158   176          14.2495351334         387.7495637859      PI        B2 (3)
  159    61          15.6585823146         426.0916868633     SG+        A1 (1)
  160    62          18.0602060407         491.4431908558     SG+        A1 (1)
  161   125          19.4375974251         528.9239159092      PI        B1 (2)
  162   177          19.4375974251         528.9239159098      PI        B2 (3)
  163    63          20.7181171607         563.7686293847     SG+        A1 (1)
  164   213          26.5511149419         722.4925683806      DE        A2 (4)
  165    64          26.5511149419         722.4925683806      DE        A1 (1)
  166   126          27.0563804386         736.2415415298      PI        B1 (2)
  167   178          27.0563804386         736.2415415298      PI        B2 (3)
  168    65          28.2949924228         769.9458871162     SG+        A1 (1)
  169   179          33.8030918967         919.8288937061      PI        B2 (3)
  170   127          33.8030918967         919.8288937066      PI        B1 (2)
  171    66          35.0499960091         953.7588795731     SG+        A1 (1)
  172    67          36.9015579103        1004.1424403540     SG+        A1 (1)
  173    68          47.1270408347        1282.3919766615      DE        A1 (1)
  174   214          47.1270408347        1282.3919766615      DE        A2 (4)
  175   180          47.7592297816        1299.5947124766      PI        B2 (3)
  176   128          47.7592297816        1299.5947124766      PI        B1 (2)
  177    69          48.6191686291        1322.9948381550     SG+        A1 (1)
  178    70          64.2597123665        1748.5956703790     SG+        A1 (1)
  179   129          66.8779433428        1819.8413573057      PI        B1 (2)
  180   181          66.8779433429        1819.8413573062      PI        B2 (3)
  181    71          67.8606949294        1846.5833875148     SG+        A1 (1)
  182   182          98.6826092444        2685.2903150608      PH        B2 (3)
  183   130          98.6826092444        2685.2903150608      PH        B1 (2)
  184    72          98.7065668996        2685.9422360037      DE        A1 (1)
  185   215          98.7065668996        2685.9422360037      DE        A2 (4)
  186   183          98.7775841421        2687.8747134175      PI        B2 (3)
  187   131          98.7775841421        2687.8747134175      PI        B1 (2)
  188    73          98.7888303935        2688.1807394757     SG+        A1 (1)
  189   132         103.2849026214        2810.5250846631      PH        B1 (2)
  190   184         103.2849026214        2810.5250846631      PH        B2 (3)
  191    74         103.3374198565        2811.9541512829      DE        A1 (1)
  192   216         103.3374198565        2811.9541512832      DE        A2 (4)
  193   185         103.3653445780        2812.7140215850      PI        B2 (3)
  194   133         103.3653445780        2812.7140215850      PI        B1 (2)
  195    75         103.4316106863        2814.5172140652     SG+        A1 (1)
  196   217         115.2004954217        3134.7648487894      DE        A2 (4)
  197    76         115.2004954217        3134.7648487895      DE        A1 (1)
  198   186         115.4467941547        3141.4669780444      PI        B2 (3)
  199   134         115.4467941547        3141.4669780444      PI        B1 (2)
  200    77         116.0713447675        3158.4618642224     SG+        A1 (1)
  201   187         117.0507081584        3185.1116969410      PI        B2 (3)
  202   135         117.0507081585        3185.1116969416      PI        B1 (2)
  203    78         118.1330550539        3214.5638532858     SG+        A1 (1)
  204    79         122.9646885415        3346.0392845656     SG+        A1 (1)
  205    80         198.5827110456        5403.7102868723      DE        A1 (1)
  206   218         198.5827110456        5403.7102868723      DE        A2 (4)
  207   188         198.9258888791        5413.0486304755      PI        B2 (3)
  208   136         198.9258888791        5413.0486304759      PI        B1 (2)
  209    81         199.3585210353        5424.8211499481     SG+        A1 (1)
  210    82         216.7359048893        5897.6838044890     SG+        A1 (1)
  211   137         225.2878593313        6130.3943156300      PI        B1 (2)
  212   189         225.2878593313        6130.3943156305      PI        B2 (3)
  213    83         226.0908682313        6152.2452986795     SG+        A1 (1)
  214   190         395.5083855668       10762.3303175736      PI        B2 (3)
  215   138         395.5083855668       10762.3303175742      PI        B1 (2)
  216    84         396.3948814954       10786.4530981687     SG+        A1 (1)
  217    85         509.4866210801       13863.8357833822     SG+        A1 (1)
  218    86         895.5685487001       24369.6591396611     SG+        A1 (1)


  VSCF finished.

 @CHECKOUT-I, Total execution time (CPU/WALL):       47.26/       9.99 seconds.
--executable xvscf finished with status     0 in       10.02 seconds (walltime).
 --invoking executable--
/nfs/workspaces/public/cfour_mpi/bin/xvtran
 @GETMEM-I,  Allocated    3814 MB of main memory.
  Full RHF integral transformation
  Transformation of IIII integrals :
  1 pass through the AO integral file was required.
     4601700 AO integrals were read.
     8825518 MO integrals were written to HF2.
  Transformation of IIJJ integrals :
  1 pass through the AO integral file was required.
    10405918 AO integrals were read.
    14632358 MO integrals were written to HF2.
  Transformation of IJIJ integrals :
  1 pass through the AO integral file was required.
    19745378 AO integrals were read.
    27482823 MO integrals were written to HF2.
  Transformation of IJKL integrals :
  1 pass through the AO integral file was required.
    14608421 AO integrals were read.
    18547703 MO integrals were written to HF2.
  Summary of active molecular orbitals: 
------------------------------------------------------------------------
 
  Index      Eigenvalue    Symmetry    Index      Eigenvalue    Symmetry
------------------------------------------------------------------------
     1       -20.6647139        1       110         4.2107955        2
     2       -11.3552635        1       111         4.2962371        2
     3        -1.5293710        1       112         4.7630123        2
     4        -0.8056326        1       113         5.1472827        2
     5        -0.5534180        1       114         5.8292744        2
     6        -0.6451985        2       115         6.1476922        2
     7        -0.6451985        3       116         6.3319018        2
     8         0.0594407        1       117         6.4459224        2
     9         0.0758874        1       118         7.5213183        2
    10         0.1559318        1       119         8.5250165        2
    11         0.2278370        1       120        10.1227621        2
    12         0.2281727        1       121        10.8905350        2
    13         0.3016674        1       122        11.3797072        2
    14         0.3926413        1       123        11.8551622        2
    15         0.5080478        1       124        12.6678424        2
    16         0.5337353        1       125        14.2495351        2
    17         0.6478993        1       126        19.4375974        2
    18         0.7692299        1       127        27.0563804        2
    19         0.7802631        1       128        33.8030919        2
    20         0.8730137        1       129        47.7592298        2
    21         0.8920517        1       130        66.8779433        2
    22         0.9161980        1       131        98.6826092        2
    23         1.2047156        1       132        98.7775841        2
    24         1.4791225        1       133       103.2849026        2
    25         1.5157679        1       134       103.3653446        2
    26         1.6665634        1       135       115.4467942        2
    27         1.7673893        1       136       117.0507082        2
    28         1.7702704        1       137       198.9258889        2
    29         2.1065727        1       138       225.2878593        2
    30         2.1424519        1       139       395.5083856        2
    31         2.1985071        1       140         0.0635473        3
    32         2.3170871        1       141         0.1435625        3
    33         2.3664610        1       142         0.1672856        3
    34         2.4894987        1       143         0.3223927        3
    35         2.9579293        1       144         0.3960250        3
    36         3.0187305        1       145         0.6224841        3
    37         3.4715738        1       146         0.7492070        3
    38         3.7257556        1       147         0.8251935        3
    39         3.9511323        1       148         0.8802433        3
    40         4.1758785        1       149         1.0797682        3
    41         4.2756064        1       150         1.4482648        3
    42         4.3867186        1       151         1.5517908        3
    43         4.5534874        1       152         1.8142227        3
    44         5.0010305        1       153         1.9640913        3
    45         5.1588255        1       154         2.2530435        3
    46         5.8936326        1       155         2.3275793        3
    47         5.9028826        1       156         2.3674859        3
    48         6.2307821        1       157         2.6001418        3
    49         6.3093401        1       158         2.8431121        3
    50         6.5970366        1       159         3.7539559        3
    51         7.0764128        1       160         4.0816436        3
    52         7.3944631        1       161         4.2107955        3
    53         7.8173160        1       162         4.2962371        3
    54         8.2904064        1       163         4.7630123        3
    55        10.4845377        1       164         5.1472827        3
    56        10.6014738        1       165         5.8292744        3
    57        11.1463423        1       166         6.1476922        3
    58        11.1718840        1       167         6.3319018        3
    59        11.6795834        1       168         6.4459224        3
    60        12.3046305        1       169         7.5213183        3
    61        12.8872780        1       170         8.5250165        3
    62        13.3636966        1       171        10.1227621        3
    63        15.6585823        1       172        10.8905350        3
    64        18.0602060        1       173        11.3797072        3
    65        20.7181172        1       174        11.8551622        3
    66        26.5511149        1       175        12.6678424        3
    67        28.2949924        1       176        14.2495351        3
    68        35.0499960        1       177        19.4375974        3
    69        36.9015579        1       178        27.0563804        3
    70        47.1270408        1       179        33.8030919        3
    71        48.6191686        1       180        47.7592298        3
    72        64.2597124        1       181        66.8779433        3
    73        67.8606949        1       182        98.6826092        3
    74        98.7065669        1       183        98.7775841        3
    75        98.7888304        1       184       103.2849026        3
    76       103.3374199        1       185       103.3653446        3
    77       103.4316107        1       186       115.4467942        3
    78       115.2004954        1       187       117.0507082        3
    79       116.0713448        1       188       198.9258889        3
    80       118.1330551        1       189       225.2878593        3
    81       122.9646885        1       190       395.5083856        3
    82       198.5827110        1       191         0.2281727        4
    83       199.3585210        1       192         0.5337353        4
    84       216.7359049        1       193         0.7692299        4
    85       226.0908682        1       194         0.8920517        4
    86       396.3948815        1       195         1.5157679        4
    87       509.4866211        1       196         1.7702704        4
    88       895.5685487        1       197         2.1065727        4
    89         0.0635473        2       198         2.1985071        4
    90         0.1435625        2       199         2.3664610        4
    91         0.1672856        2       200         3.0187305        4
    92         0.3223927        2       201         3.7257556        4
    93         0.3960250        2       202         4.1758785        4
    94         0.6224841        2       203         4.3867186        4
    95         0.7492070        2       204         5.1588255        4
    96         0.8251935        2       205         5.9028826        4
    97         0.8802433        2       206         6.3093401        4
    98         1.0797682        2       207         6.5970366        4
    99         1.4482648        2       208         7.3944631        4
   100         1.5517908        2       209        10.6014738        4
   101         1.8142227        2       210        11.1463423        4
   102         1.9640913        2       211        12.3046305        4
   103         2.2530435        2       212        12.8872780        4
   104         2.3275793        2       213        26.5511149        4
   105         2.3674859        2       214        47.1270408        4
   106         2.6001418        2       215        98.7065669        4
   107         2.8431121        2       216       103.3374199        4
   108         3.7539559        2       217       115.2004954        4
   109         4.0816436        2       218       198.5827110        4
------------------------------------------------------------------------
  -20.6647138655406       -11.3552635226331       -1.52937095515793     
 -0.805632631717857      -0.553418016243642      -0.645198477617366     
 -0.645198477617388       5.944067799398109E-002  7.588737550960707E-002
  0.155931758660219       0.227837004610791       0.228172727505884     
  0.301667426961850       0.392641344149204       0.508047807697237     
  0.533735299703936       0.647899321481400       0.769229875525356     
  0.780263098371024       0.873013668129202       0.892051704098148     
  0.916197966396287        1.20471563883924        1.47912250477332     
   1.51576788626975        1.66656340678158        1.76738932015091     
   1.77027044673714        2.10657269142496        2.14245192081538     
   2.19850714150341        2.31708712089492        2.36646099765719     
   2.48949871592917        2.95792927108213        3.01873048817009     
   3.47157379567575        3.72575560344027        3.95113228098320     
   4.17587852545329        4.27560642372096        4.38671861811146     
   4.55348736892545        5.00103045825344        5.15882547672634     
   5.89363259556526        5.90288260685366        6.23078214771338     
   6.30934007375575        6.59703661837050        7.07641279908660     
   7.39446307782976        7.81731597050357        8.29040635870567     
   10.4845376939023        10.6014738375198        11.1463422853608     
   11.1718840399670        11.6795833671258        12.3046305463638     
   12.8872779544319        13.3636965922026        15.6585823146112     
   18.0602060406757        20.7181171606533        26.5511149418674     
   28.2949924227744        35.0499960091367        36.9015579102833     
   47.1270408347384        48.6191686290756        64.2597123665157     
   67.8606949294181        98.7065668996332        98.7888303935234     
[...]
 Convergence information after     8 iterations: 
 Largest element of residual vector : -0.24690183E-04.
 Largest element of DIIS residual   :  0.21571738E-04.
 Convergence information after     9 iterations: 
 Largest element of residual vector :  0.83150927E-05.
 Largest element of DIIS residual   :  0.46378813E-05.
 Convergence information after    10 iterations: 
 Largest element of residual vector :  0.45601712E-05.
 Largest element of DIIS residual   :  0.30293818E-05.
 Convergence information after    11 iterations: 
 Largest element of residual vector :  0.17052336E-05.
 Largest element of DIIS residual   :  0.69336082E-06.
 Convergence information after    12 iterations: 
 Largest element of residual vector :  0.69214319E-06.
 Largest element of DIIS residual   :  0.36854398E-06.
 Convergence information after    13 iterations: 
 Largest element of residual vector :  0.27465865E-06.
 Largest element of DIIS residual   :  0.20703750E-06.
 Convergence information after    14 iterations: 
 Largest element of residual vector :  0.15667608E-06.
 Largest element of DIIS residual   :  0.85339616E-07.
 Perturbed amplitude equations converged in    14 iterations.
  Dominant contributions to perturbed wavefunction:
    7    7  141   27   0.1988151871 ABAB
    7    7   27  141   0.1988151871 ABAB
    7    7  141   37   0.1912782227 ABAB
    7    7   37  141   0.1912782227 ABAB
    7    7  142   27   0.1764588187 ABAB
    7    7   27  142   0.1764588187 ABAB
    7    7  141   55   0.1717066381 ABAB
    7    7   55  141   0.1717066381 ABAB
    7    7  142   37   0.1677857291 ABAB
    7    7   37  142   0.1677857291 ABAB
    5    5  141   44   0.1425169625 ABAB
    5    5   44  141   0.1425169625 ABAB
    7    7  141   63   0.1342630519 ABAB
    7    7   63  141   0.1342630519 ABAB
    7    7  141   44   0.1327755109 ABAB
    7    7   44  141   0.1327755109 ABAB
    7    7  141   53  -0.1314665115 ABAB
    7    7   53  141  -0.1314665115 ABAB
    7    6   27   90   0.1309067788 ABAB
    6    7   90   27   0.1309067788 ABAB
  norm of converged amps    2.48124531563536     
 Starting iterative solution of the perturbed Lambda equations.
 The DIIS procedure is used to accelerate convergence.
 Convergence criterion is 10**(-7).
 Maximum number of iterations is 100.
 Convergence information after     1 iterations: 
 Largest element of residual vector : -0.67964208E-01.
 Largest element of DIIS residual   : -0.67964208E-01.
 Convergence information after     2 iterations: 
 Largest element of residual vector :  0.74331737E-02.
 Largest element of DIIS residual   :  0.52066929E-02.
 Convergence information after     3 iterations: 
 Largest element of residual vector : -0.41459230E-02.
 Largest element of DIIS residual   : -0.35885024E-02.
 Convergence information after     4 iterations: 
 Largest element of residual vector : -0.25566384E-02.
 Largest element of DIIS residual   : -0.20127915E-02.
 Convergence information after     5 iterations: 
 Largest element of residual vector : -0.14782460E-02.
 Largest element of DIIS residual   : -0.67853049E-03.
 Convergence information after     6 iterations: 
 Largest element of residual vector : -0.47694977E-03.
 Largest element of DIIS residual   :  0.11414292E-03.
 Convergence information after     7 iterations: 
 Largest element of residual vector : -0.89755076E-04.
 Largest element of DIIS residual   : -0.43864968E-04.
 Convergence information after     8 iterations: 
 Largest element of residual vector : -0.18666991E-04.
 Largest element of DIIS residual   :  0.17704721E-04.
 Convergence information after     9 iterations: 
 Largest element of residual vector :  0.68900912E-05.
 Largest element of DIIS residual   :  0.38821052E-05.
 Convergence information after    10 iterations: 
 Largest element of residual vector :  0.37149120E-05.
 Largest element of DIIS residual   :  0.25741424E-05.
 Convergence information after    11 iterations: 
 Largest element of residual vector :  0.13598213E-05.
 Largest element of DIIS residual   :  0.62426439E-06.
 Convergence information after    12 iterations: 
 Largest element of residual vector :  0.61851826E-06.
 Largest element of DIIS residual   :  0.41478363E-06.
 Convergence information after    13 iterations: 
 Largest element of residual vector :  0.30473177E-06.
 Largest element of DIIS residual   :  0.24520143E-06.
 Convergence information after    14 iterations: 
 Largest element of residual vector :  0.18423114E-06.
 Largest element of DIIS residual   :  0.97193969E-07.
 Perturbed Lambda equations converged in    14 iterations.
  Dominant contributions to perturbed wavefunction:
    7    7  141   27   0.1874986556 ABAB
    7    7   27  141   0.1874986556 ABAB
    7    7  141   37   0.1813059137 ABAB
    7    7   37  141   0.1813059137 ABAB
    7    7  142   27   0.1681390567 ABAB
    7    7   27  142   0.1681390567 ABAB
    7    7  141   55   0.1607393247 ABAB
    7    7   55  141   0.1607393247 ABAB
    7    7  142   37   0.1605410573 ABAB
    7    7   37  142   0.1605410573 ABAB
    5    5  141   44   0.1367720959 ABAB
    5    5   44  141   0.1367720959 ABAB
    7    7  141   63   0.1271161288 ABAB
    7    7   63  141   0.1271161288 ABAB
    7    7  141   53  -0.1238620805 ABAB
    7    7   53  141  -0.1238620805 ABAB
    7    7  141   44   0.1230646124 ABAB
    7    7   44  141   0.1230646124 ABAB
    7    6   27   90   0.1217036467 ABAB
    6    7   90   27   0.1217036467 ABAB
        The DBOC first-order density matrix is being calculated 
             (Symmetry block 3, perturbation   2)
 term   7.22955030718650     
 final tnorm  0.888840112157512     
  norm contr. I: |<0|L dT/dx|0>|^2   0.000000000000000E+000
  norm contr. II: <0|[nabla(1+L)e-T][nabla e^T]|0>   7.22955030718650     
  total norm contribution   7.22955030718650     
 oo  1.212956279762355E-002
 vv  -54.2776252860916     
 vo  4.333012780155204E-002
  Correlated perturbed 1-el contribution to DBOC  -54.2221655954924       cm**-1
  SUM_I |dc_I/dx|^2 contribution to DBOC   27.2171574987477       cm**-1
 
 
  The total diagonal Born-Oppenheimer correction (DBOC) is:      0.0041437251 a.u.
  The total diagonal Born-Oppenheimer correction (DBOC) is:        909.442542 cm-1
 
 Total CC energy including DBOC  -113.281655692933     
 First-order density matrix is being calculated  (Symmetry block 3, perturbation   2)
 Calculation of the contributions of <pq||rs> to dI(i,j)/dx required   1.9 seconds.
 Calculation of the contributions of <pq||rs> to dI(a,b)/dx required  15.4 seconds.
 Calculation of the contributions of <pq||rs> to dI(i,a)/dx required   9.3 seconds.
 First-order Z-vector equations are solved for 1 perturbation.
 Convergence reached after  18 iterations.
        U*G(pq,rs) contribution is being calculated
             (Symmetry block 3, perturbation   2)

 CCSD contribution to force constants 

        0.0000000000        0.0000000000        0.0000000000
        0.0000000000        0.0000000000        0.0000000000
        0.0000000000        0.0000000000        0.0000000000
        0.0000000000        0.0000000000        0.0000000000
        0.0000000000        0.0000000000        0.0000000000
        0.0000000000        0.0000000000        0.0000000000
        0.0000000000        0.0000000000        0.0000000000
        0.0000000000        0.0000000000        0.0000000000
        0.0000000000        0.0000000000        0.0000000000
        0.0000000000        0.0000000000        0.0000000000
        0.0000000000        0.0000000000        0.0000000000
        0.0000000000       -2.6312962495        2.6312962495

 CCSD contribution to dipole derivatives 

        0.0000000000        0.0000000000        0.0000000000
        0.0000000000        0.0000000000        0.0000000000
        0.0000000000        0.0000000000        0.0000000000
        0.0000000000        0.0000000000       -0.0439933335
        0.0000000000        0.0000000000        0.0000000000
        0.0000000000        0.0000000000        0.0000000000
 @CHECKOUT-I, Total execution time (CPU/WALL):      994.49/     211.26 seconds.
--executable xsdcc finished with status     0 in      211.30 seconds (walltime).
 --invoking executable--
/nfs/workspaces/public/cfour_mpi/bin/xanti
 @GETMEM-I,  Allocated    3814 MB of main memory.
 CCSD MO derivative gammas will be sorted to Mulliken order.
 @CHECKOUT-I, Total execution time (CPU/WALL):        9.31/      24.10 seconds.
--executable xanti finished with status     0 in       24.12 seconds (walltime).
 --invoking executable--
/nfs/workspaces/public/cfour_mpi/bin/xbcktrn
 @GETMEM-I,  Allocated    3814 MB of main memory.
 CCSD MO derivative gammas will be transformed to the AO basis.
 @CHECKOUT-I, Total execution time (CPU/WALL):       21.48/       5.96 seconds.
--executable xbcktrn finished with status     0 in        6.00 seconds (walltime).
 --invoking executable--
/nfs/workspaces/public/cfour_mpi/bin/xvdint
 @GETMEM-I,  Allocated    3814 MB of main memory.
 One- and two-electron integral derivatives are calculated
 for RHF-CC/MBPT hessians and dipole derivatives.
 Spherical gaussians are used.
  magnet F F
                    8722  records have been written to the Sort file.
  Total length of Sort file :             178609116  words.
 Evaluation of 2el integral derivatives

                      Two-electron integral gradient
                      ------------------------------

                         C #1 z     0.0000000000
                         O #2 z     0.0000000000


 C #1       0.0000000000           -0.6957762830            0.0000000000
 O #2       0.0000000000            0.6957762830            0.0000000000


 Evaluation of 2e integral derivatives required  346.27 seconds.
  contribution to Hessian
        0.0000000000        0.0000000000        0.0000000000
        0.0000000000       -0.6957762830        0.6957762830
 @CHECKOUT-I, Total execution time (CPU/WALL):      346.26/      68.71 seconds.
--executable xvdint finished with status     0 in       68.73 seconds (walltime).
 --invoking executable--
/nfs/workspaces/public/cfour_mpi/bin/xanti
 @GETMEM-I,  Allocated    3814 MB of main memory.
 CCSD MO gammas will be sorted to Mulliken order.
 @CHECKOUT-I, Total execution time (CPU/WALL):       11.94/      10.55 seconds.
--executable xanti finished with status     0 in       10.57 seconds (walltime).
 --invoking executable--
/nfs/workspaces/public/cfour_mpi/bin/xbcktrn
 @GETMEM-I,  Allocated    3814 MB of main memory.
 CCSD MO gammas will be transformed to the AO basis.
 @CHECKOUT-I, Total execution time (CPU/WALL):       32.50/       5.37 seconds.
--executable xbcktrn finished with status     0 in        5.39 seconds (walltime).
 --invoking executable--
/nfs/workspaces/public/cfour_mpi/bin/xvdint
 @GETMEM-I,  Allocated    3814 MB of main memory.
 One- and two-electron integral derivatives are calculated
 for RHF-CC/MBPT hessians and dipole derivatives.
 Spherical gaussians are used.
  magnet F F

                     Kinetic energy integral gradient
                     --------------------------------

                         C #1 z    -1.5407943732
                         O #2 z     1.5407943732


 C #1       0.0000000000            0.0000000000           -1.5407943732
 O #2       0.0000000000            0.0000000000            1.5407943732



                   Nuclear attraction integral gradient
                   ------------------------------------

                         C #1 z    23.9829686895
                         O #2 z   -23.9829686895


 C #1       0.0000000000            0.0000000000           23.9829686895
 O #2       0.0000000000            0.0000000000          -23.9829686895



                      Reorthonormalization gradient
                      -----------------------------

                         C #1 z     0.0000000000
                         O #2 z     0.0000000000


 C #1       0.0000000000            0.0000000000            0.0000000000
 O #2       0.0000000000            0.0000000000            0.0000000000



                     Kinetic energy integral Hessian
                     -------------------------------


           Symmetry 1

           C #1 z      O #2 z

 C #1 z    1.087015
 O #2 z   -1.087015    1.087015


           Symmetry 2

           C #1 x      O #2 x

 C #1 x   -2.088911
 O #2 x    2.088911   -2.088911


           Symmetry 3

           C #1 y      O #2 y

 C #1 y   -2.088911
 O #2 y    2.088911   -2.088911




           C #1 x      C #1 y      C #1 z      O #2 x      O #2 y      O #2 z

 C #1 x   -2.088911
 C #1 y    0.000000   -2.088911
 C #1 z    0.000000    0.000000    1.087015

 O #2 x    2.088911    0.000000    0.000000   -2.088911
 O #2 y    0.000000    2.088911    0.000000    0.000000   -2.088911
 O #2 z    0.000000    0.000000   -1.087015    0.000000    0.000000    1.087015




                   Nuclear attraction integral Hessian
                   -----------------------------------


           Symmetry 1

           C #1 z      O #2 z

 C #1 z  -13.360485
 O #2 z   13.360485  -13.360485


           Symmetry 2

           C #1 x      O #2 x

 C #1 x   21.838552
 O #2 x  -21.838552   21.838552


           Symmetry 3

           C #1 y      O #2 y

 C #1 y   21.838552
 O #2 y  -21.838552   21.838552




           C #1 x      C #1 y      C #1 z      O #2 x      O #2 y      O #2 z

 C #1 x   21.838552
 C #1 y    0.000000   21.838552
 C #1 z    0.000000    0.000000  -13.360485

 O #2 x  -21.838552    0.000000    0.000000   21.838552
 O #2 y    0.000000  -21.838552    0.000000    0.000000   21.838552
 O #2 z    0.000000    0.000000   13.360485    0.000000    0.000000  -13.360485




                Highest order reorthonormalization Hessian
                ------------------------------------------


           Symmetry 1

           C #1 z      O #2 z

 C #1 z    0.000000
 O #2 z    0.000000    0.000000


           Symmetry 2

           C #1 x      O #2 x

 C #1 x    0.000000
 O #2 x    0.000000    0.000000


           Symmetry 3

           C #1 y      O #2 y

 C #1 y    0.000000
 O #2 y    0.000000    0.000000




           C #1 x      C #1 y      C #1 z      O #2 x      O #2 y      O #2 z




                Electronic contributions to dipole moment
                -----------------------------------------

                               au             Debye

                    z     -0.05901511     -0.15000146

  Conversion factor used: 1 a.u. =   2.54174691 Debye 



   Electronic contributions to static part of dipole moment derivatives
   --------------------------------------------------------------------


                     Total dipole moment derivatives
                     -------------------------------


           Symmetry 1
                              Ez

               C #1 z    -5.74124962
               O #2 z    -8.25875038

           Symmetry 2
                              Ex

               C #1 x    -5.80473665
               O #2 x    -8.19526335

           Symmetry 3
                              Ey

               C #1 y    -5.80473665
               O #2 y    -8.19526335



                       Ex          Ey          Ez

      C #1    x   -5.804737    0.000000    0.000000
      C #1    y    0.000000   -5.804737    0.000000
      C #1    z    0.000000    0.000000   -5.741250

      O #2    x   -8.195263    0.000000    0.000000
      O #2    y    0.000000   -8.195263    0.000000
      O #2    z    0.000000    0.000000   -8.258750

 Evaluation of 1e integral derivatives required    1.68 seconds.
                    8815  records have been written to the Sort file.
  Total length of Sort file :             180513570  words.
 Evaluation of 2el integral derivatives

                      Two-electron integral gradient
                      ------------------------------

                         C #1 z   -11.2571903172
                         O #2 z    11.2571903172


 C #1       0.0000000000            0.0000000000          -11.2571903172
 O #2       0.0000000000            0.0000000000           11.2571903172


 Evaluation of 2e integral derivatives required  662.63 seconds.

                            Molecular gradient
                            ------------------

                         C #1 z     0.4166306813
                         O #2 z    -0.4166306813


 C #1       0.0000000000            0.0000000000            0.4166306813
 O #2       0.0000000000            0.0000000000           -0.4166306813


  Molecular gradient norm 0.589E+00

                            Molecular hessian
                            -----------------


           Symmetry 1

           C #1 z      O #2 z

 C #1 z   67.862730
 O #2 z  -67.862730   67.862730


           Symmetry 2

           C #1 x      O #2 x

 C #1 x    3.387791
 O #2 x   -3.387791    3.387791


           Symmetry 3

           C #1 y      O #2 y

 C #1 y    3.387791
 O #2 y   -3.387791    3.387791




           C #1 x      C #1 y      C #1 z      O #2 x      O #2 y      O #2 z

 C #1 x    3.387791
 C #1 y    0.000000    3.387791
 C #1 z    0.000000    0.000000   67.862730

 O #2 x   -3.387791    0.000000    0.000000    3.387791
 O #2 y    0.000000   -3.387791    0.000000    0.000000    3.387791
 O #2 z    0.000000    0.000000  -67.862730    0.000000    0.000000   67.862730




                           Total dipole moment
                           -------------------

                               au             Debye

                    z     -0.06131623     -0.15585035

  Conversion factor used: 1 a.u. =   2.54174691 Debye 



                     Total dipole moment derivatives
                     -------------------------------


           Symmetry 1
                              Ez

               C #1 z     0.71397228
               O #2 z    -0.71397228

           Symmetry 2
                              Ex

               C #1 x    -0.03215899
               O #2 x     0.03215899

           Symmetry 3
                              Ey

               C #1 y    -0.03215899
               O #2 y     0.03215899



                       Ex          Ey          Ez

      C #1    x   -0.032159    0.000000    0.000000
      C #1    y    0.000000   -0.032159    0.000000
      C #1    z    0.000000    0.000000    0.713972

      O #2    x    0.032159    0.000000    0.000000
      O #2    y    0.000000    0.032159    0.000000
      O #2    z    0.000000    0.000000   -0.713972

 @CHECKOUT-I, Total execution time (CPU/WALL):      664.30/     112.14 seconds.
--executable xvdint finished with status     0 in      112.17 seconds (walltime).
 --invoking executable--
/nfs/workspaces/public/cfour_mpi/bin/xjoda
  @GTFLGS-I, Hessian will be transformed to curvilinear coordinates.
  @GTFLGS-I, Hessian will be transformed to curvilinear coordinates.
  igrd and ihes are                      0                     1
  gradient from JOBARC 
   0.000000000000000   0.000000000000000   0.416630681345751
   0.000000000000000   0.000000000000000  -0.416630681345751
 
  @PROJFCM-I, Projecting force constant matrix onto totally symmetric subspace.
  Largest difference between matrix elements of symmetrized
  and unsymmetrized FCM :    -0.9280576307E-11.
  read isotopes from ZMAT file 
 
  Summary of diagonal Born-Oppenheimer correction at the correlated level
  The total diagonal Born-Oppenheimer correction (DBOC) is:      0.0041437251 a.u.
  The total diagonal Born-Oppenheimer correction (DBOC) is:        909.442542 cm-1
  The total diagonal Born-Oppenheimer correction (DBOC) is:            10.879 kJ/mole
  hellooooooo 
  readis is  F
 
 @CHECKOUT-I, Total execution time (CPU/WALL):        0.01/       0.05 seconds.
--executable xjoda finished with status     0 in        0.07 seconds (walltime).
  The final electronic energy is      -113.281655692933327 a.u. 
  This computation required                         2531.41 seconds (walltime).
