 --invoking executable--
/nfs/workspaces/public/cfour_mpi/bin/xjoda


   *************************************************************************
         <<<     CCCCCC     CCCCCC   |||     CCCCCC     CCCCCC   >>>
       <<<      CCC        CCC       |||    CCC        CCC         >>>
      <<<      CCC        CCC        |||   CCC        CCC            >>>
    <<<        CCC        CCC        |||   CCC        CCC              >>>
      <<<      CCC        CCC        |||   CCC        CCC            >>>
       <<<      CCC        CCC       |||    CCC        CCC         >>>
         <<<     CCCCCC     CCCCCC   |||     CCCCCC     CCCCCC   >>>
   *************************************************************************

     ****************************************************************
     * CFOUR Coupled-Cluster techniques for Computational Chemistry *
     ****************************************************************
 

   Department of Chemistry                Institut fuer Physikalische Chemie
   University of Florida                  Universitaet Mainz
   Gainesville, FL 32611, USA             D-55099 Mainz, Germany

   Department of Chemistry                Fakultaet fuer Chemie und Biowiss.
   Johns Hopkins University               Karlsruher Institut fuer Technologie
   Baltimore, MD 21218, USA               D-76131 Karlsruhe, Germany

   Department of Chemistry                Department of Physical Chemistry
   Southern Methodist University          Eotvos Lorand University
   Dallas, TX 75275, USA                  H-1053 Budapest, Hungary

 
                       Version 2.1
 
                     vincent.theory.phys.ucl.ac.uk                     
                     Wed 26 Feb 10:06:18 GMT 2025                      
                     integer*8 version is running
 
********************************************************************************
*                          Input from ZMAT file                                *
********************************************************************************
Carbon Monoxide DBOC calculation                                                
C                                                                               
O 1 r                                                                           
                                                                                
r=1.8                                                                           
                                                                                
                                                                                
*CFOUR(CALC=CCSD,BASIS=AUG-PCVQZ,SCF_CONV=10                                    
CC_CONV=14,DBOC=ON,MEMORY=500000000                                             
ZFIELD=-200)                                                                    
                                                                                
%isotopes                                                                       
12                                                                              
16                                                                              
********************************************************************************
  @GTFLGS-I, Hessian will be transformed to curvilinear coordinates.
    -------------------------------------------------------------------
                    CFOUR Control Parameters 
    -------------------------------------------------------------------
        External           Internal           Value            Units
          Name               Name
    -------------------------------------------------------------------
       ABCDTYPE             IABCDT         STANDARD    [  0]    ***   
       ANHARMONIC           IANHAR         OFF         [  0]    ***   
       ANH_ALGORIT          IANALG         STANDARD    [  0]    ***   
       ANH_DERIVAT          IANDER         SECOND      [  1]    ***   
       ANH_MODE             ANHMOD         VIBRATION   [  0]    ***   
       ANH_STEPSIZ          ICUBST             50000          x 10-6  
       ANH_SYMMETR          IANHSM         ABELIAN     [  0]    ***   
       AO_LADDERS           IAOLAD         SINGLEPASS  [  1]    ***   
       AV_SCF               IAVSCF         OFF         [  0]    ***   
       BASIS                IBASIS         AUG-PCVQZ   [ 52]    ***   
       BOTHVECTORS          BOTHVC         OFF         [  0]    ***   
       BOX_POTENT           IPIAB          OFF         [  0]    ***   
       BREIT                IBREIT         OFF         [  0]    ***   
       BRUCK_CONV           IBRTOL          10D-  4             ***   
       BRUECKNER            IBRKNR         OFF         [  0]    ***   
       BUFFERSIZE           IBUFFS              4096            ***   
       CACHE_RECS           ICHREC             10               ***   
       CALCLEVEL            ICLLVL         CCSD        [ 10]    ***   
       CCORBOPT             ICCORB         OFF         [  0]  x 0.01  
       CC_CONV              ICCCNV          10D- 14             ***   
       CC_EXPORDER          ICCEOR              5               ***   
       CC_EXTRAPOL          ICCEXT         DIIS        [  1]    ***   
       CC_GUESS             ICCGES         MP2         [  0]    ***   
       CC_MAXCYC            ICCCYC            100              cycles 
       CC_PROGRAM           ICCPRO         VCC         [  0]    ***   
       CHARGE               ICHRGE              0               ***   
       CHOLESKY             ICHOLE         OFF         [  0]    ***   
       CIS_CONV             ICISTL              5               ***   
       COMM_SIZE            IPSIZE            ***               ***   
       CONSTANT             ICONST         OLD         [  1]    ***   
       CONTINUUM            ICONTU         NONE        [  0]    ***   
       CONTRACTION          ICNTYP         GENERAL     [  1]    ***   
       COORDINATES          ICOORD         INTERNAL    [  0]    ***   
       CPHF_CONVER          ICPHFT          10D- 16             ***   
       CPHF_MAXCYC          ICPHFC             64              cycles 
       CUBIC                ICUBIC         OFF         [  0]    ***   
       CURVILINEAR          ICURVY         ON          [  1]    ***   
       DBOC                 IDBOC          ON          [  1]    ***   
       DCT                  IDCT           OFF         [  0]    ***   
       DERIV_LEV            IDRLVL         SECOND      [  2]    ***   
       DEVMEM_SIZE          IDVMEM          50000000           MByte  
       DIAG_MRCC            IEOMST          10D-  0             ***   
       DIFF_TYPE            IDIFTY         RELAXED     [  0]    ***   
       DIRECT               IDIRCT         OFF         [  0]    ***   
       DROPMO               IDRPMO      NONE         
       ECP                  IECP           OFF         [  0]    ***   
       EIGENVECTOR          IVEC                1               ***   
       EL_ANHARM            IELANH         OFF         [  0]    ***   
       EOMFOLLOW            IEOMSR         ENERGY      [  0]    ***   
       EOMIP                IEOMIP         OFF         [  0]    ***   
       EOMLEVEL             HBARFM         SAME        [  0]    ***   
       EOM_MRCC             IMRCCE         NEW         [  1]    ***   
       EOM_NONIT            EOMNON         OFF         [  0]    ***   
       EOM_NSING            IEOMSI          10D-  0             ***   
       EOM_NSTATES          IMRCCD         DAVIDSON    [  0]    ***   
       EOM_NTRIP            IEOMTR          10D-  0             ***   
       EOM_ORDER            IEXORD         ENERGY      [  0]    ***   
       EOM_PROPSTA          IEOMST              0               ***   
       ESTATE_CONV          IEXTOL          10D-  5             ***   
       ESTATE_DIAG          IEXDIG         ITERATIVE   [  0]    ***   
       ESTATE_LOCK          IESLOC         ON          [  1]    ***   
       ESTATE_MAXC          IEXMXC             40               ***   
       ESTATE_PROP          IEXPRP         OFF         [  0]    ***   
       EVAL_HESS            IRECAL              0            # of cyc.
       EXCITATION           IEXCIT              0               ***   
       EXCITE               IEXCIT         NONE        [  0]    ***   
       EXTERN_POT           IEXPOT         OFF         [  0]    ***   
       FCGRADNEW            IFCGNW         OFF         [  0]    ***   
       FC_FIELD             IFINFC              0             x 10-6  
       FD_CALTYPE           IFDCAL         GRADONLY    [  0]    ***   
       FD_PROJECT           IFDPRJ         OFF         [  1]    ***   
       FD_STEPSIZE          IDISFD              0            10-4 bohr
       FD_USEGROUP          IFDGRP         FULL        [  0]    ***   
       FILE_RECSIZ          IFLREC              4096           words  
       FINITE_PERT          IFIPER              0             x 10-6  
       FIXGEOM              IFIXGM         OFF         [  0]    ***   
       FOCK                 IFOCK          AO          [  1]    ***   
       FREQ_ALGORI          IVIALG         STANDARD    [  0]    ***   
       FROZEN_CORE          IFROCO         OFF         [  0]    ***   
       GAMMA_ABCD           IGABCD         STORE       [  0]    ***   
       GAMMA_ABCI           IGABCI         STORE       [  0]    ***   
       GENBAS_1             IGNBS1              0               ***   
       GENBAS_2             IGNBS2              0               ***   
       GENBAS_3             IGNBS3              0               ***   
       GENBAS_4             IGNBS4              0               ***   
       GEO_CONV             ICONTL              5              H/bohr 
       GEO_MAXCYC           IOPTCY             50               ***   
       GEO_MAXSTEP          IMXSTP            300            millibohr
       GEO_METHOD           INR            SINGLE_POINT[  5]    ***   
       GIAO                 IGIAO          OFF         [  1]    ***   
       GIMIC                IGIMIC         OFF         [  0]    ***   
       GRID                 IGRID          OFF         [  0]    ***   
       GRID_ALGO            IGALGO         SERIAL      [  0]    ***   
       GUESS                IGUESS         MOREAD      [  0]    ***   
       HBAR                 IHBAR          OFF         [  0]    ***   
       HESS_TYPE            IHESTP         SCF         [  0]    ***   
       HF2_FILE             IHF2Fl         USE         [  1]    ***   
       HFSTABILITY          ISTABL         OFF         [  0]    ***   
       INCORE               INCORE         OFF         [  0]    ***   
       INPUT_MRCC           IMRCC          ON          [  1]    ***   
       INTEGRALS            INTTYP         VMOL        [  1]    ***   
       JODA_PRINT           IJPRNT              0               ***   
       KEYWORD_OUT          IDMPKW         NO          [  0]    ***   
       LINDEP_TOL           ILINDP              8               ***   
       LINEQ_CONV           IZTACN          10D-  7           cycles  
       LINEQ_EXPOR          ILMAXD              5               ***   
       LINEQ_MAXCY          ILMAXC            100               ***   
       LINEQ_TYPE           ILTYPE         DIIS        [  1]    ***   
       LOCK_ORBOCC          ILOCOC         OFF         [  0]    ***   
       MEMORY_SIZE          IMEMSZ         500000000           words  
       MEM_UNIT             IMEMU          INTEGERWORDS[  0]    ***   
       MRCC                 IMRCCC         OFF         [  0]    ***   
       MULTIPLICTY          IMULTP              1               ***   
       NACOUPLING           IVCOUP         OFF         [  0]    ***   
       NEGEVAL              IDIE           ABORT       [  0]    ***   
       NEWNORM              INEWNO         OFF         [  0]    ***   
       NON-HF               INONHF         OFF         [  0]    ***   
       NTOP_TAMP            ITOPT2             15               ***   
       NUC_MODEL            INUCMO         POINT       [  0]    ***   
       OCCUPATION           IOCCU   ESTIMATED BY SCF 
       OPEN-SHELL           IOPEN          SPIN-ORBITAL[  0]    ***   
       OPTVIB               IOPTVB         OFF         [  0]    ***   
       ORBITALS             IORBTP         STANDARD    [  0]    ***   
       PARALLEL             IPARAL         ON          [  1]    ***   
       PARA_INT             IPINTS         ON          [  1]    ***   
       PARA_PRINT           IPPRIN              0               ***   
       PERT_ORB             IPTORB         STANDARD    [  0]    ***   
       POINTS               IGRDFD              0               ***   
       PRINT                IPRNT               0               ***   
       PROPS                IPROPS         OFF         [  0]    ***   
       PROP_INTEGR          IINTYP         INTERNAL    [  0]    ***   
       PSI                  IPSI           OFF         [  0]    ***   
       QC_ALG               IQCALG         FLM         [  0]    ***   
       QC_LINALG            IQCLIN         TRIDIAG     [  2]    ***   
       QC_MAXCYC            IQCMAX          10D-100           cycles  
       QC_MAXSCFCY          IQCMSC          10D- 15           cycles  
       QC_RTRUST            IQCRTR          10D-  0           x 10-3  
       QC_SKIPSCF           IQCSKI         OFF         [  0]    ***   
       QC_START             IQCSTA          10D-  1             ***   
       QRHFGUESS            IQGUES         OFF         [  0]    ***   
       QUARTIC              IQUART         OFF         [  0]    ***   
       RAMAN_INT            IRAMIN         OFF         [  0]    ***   
       RAMAN_ORB            IRAMRE         UNRELAXED   [  0]    ***   
       RDO                  IRDOFM         ON          [  1]    ***   
       REDUCE_REPR          REDREP         Ir          [  0]    ***   
       REFERENCE            IREFNC         RHF         [  0]    ***   
       RELATIVIST           IRELAT         OFF         [  0]    ***   
       RELAX_DENS           IRDENS         ON          [  1]    ***   
       RESET_FLAGS          IRESET         OFF         [  0]    ***   
       RESTART_CC           ICCRES         OFF         [  0]    ***   
       ROT_EVEC             ROTVEC              0               ***   
       SAVE_INTS            ISVINT         OFF         [  0]    ***   
       SCALE_ON             ISTCRT              0               ***   
       SCF_CONV             ISCFCV          10D- 10             ***   
       SCF_DAMPING          IDAMP               0             x 10-3  
       SCF_EXPORDE          IRPPOR              6               ***   
       SCF_EXPSTAR          IRPPLS              8               ***   
       SCF_EXTRAPO          IRPP           ON          [  1]    ***   
       SCF_MAXCYC           ISCFCY            150              cycles 
       SCF_NOSTOP           ISCFST         OFF         [  0]    ***   
       SCF_PRINT            ISCFPR              0               ***   
       SCF_PROG             ISCFPR         SCF         [  0]    ***   
       SD_FIELD             IFINSD              0             x 10-6  
       SOPERT               IPERSO         OFF         [  0]    ***   
       SPHERICAL            IDFGHI         ON          [  1]    ***   
       SPINORBIT            ISOCAL         OFF         [  0]    ***   
       SPINROTATIO          ISRCON         OFF         [  0]    ***   
       SPIN_FLIP            ISPFLP         OFF         [  0]    ***   
       SPIN_ORBIT           ISPORB         OFF         [  0]    ***   
       SPIN_SCAL            ISCSMP         OFF         [  0]    ***   
       STEEPSCALE           ISTPSC              1000          x 10-3  
       SUBGROUP             ISUBGP         DEFAULT     [  0]    ***   
       SUBGRPAXIS           ISBXYZ         X           [  0]    ***   
       SYMMETRY             ISYM           ON          [  0]    ***   
       SYM_CHECK            ISYMCK         OVERRIDE    [  1]    ***   
       T3_EXTRAPOL          IT3EXT         OFF         [  0]    ***   
       T4_EXTRAPOL          IT4EXP         OFF         [  0]    ***   
       TAMP_SUM             IEVERY              5               ***   
       TESTSUITE            ITESTS         OFF         [  0]    ***   
       THERMOCH             ITHERM         OFF         [  0]    ***   
       TOL_CHOLESK          ITOLCH          10D-  4             ***   
       TRANGRAD             IRESRM         OFF         [  0]    ***   
       TRANS_INV            ITRAIN         IGNORE      [  1]    ***   
       TREAT_PERT           ITREAT         SIMULTANEOUS[  0]    ***   
       TRIP_ALGORI          ITRALG         NORMAL      [  0]    ***   
       UIJ_THRESHO          IUIJTH              1               ***   
       UNITS                IUNITS         ANGSTROM    [  0]    ***   
       UNOS                 IUNOS          OFF         [  0]    ***   
       UPDATE_HESS          IHUPDT         ON          [  1]    ***   
       VIBPHASE             ISETPH         STANDARD    [  0]    ***   
       VIBRATION            IVIB           ANALYTIC    [  1]    ***   
       VIB_ALGORIT          IGEALG         STANDARD    [  0]    ***   
       VNATORB              IVNORB         OFF         [  0]    ***   
       VTRAN                IVTRAN         FULL/PARTIAL[  0]    ***   
       XFIELD               IXEFLD              0             x 10-6  
       XFORM_TOL            IXFTOL          10D- 11             ***   
       YFIELD               IYEFLD              0             x 10-6  
       ZFIELD               IZEFLD            ***             x 10-6  
       ZSCALE_EXP           IZEXPS         OFF         [  0]    ***   
    -------------------------------------------------------------------
   2 entries found in Z-matrix 
   Job Title : Carbon Monoxide DBOC calculation                                                
   There are  1 unique internal coordinates.
   Of these,  0 will be optimized.
   User supplied Z-matrix: 
--------------------------------------------------------------------------------
       SYMBOL    BOND      LENGTH    ANGLE     ANGLE     DIHED     ANGLE
                  TO      (ANGST)    WRT      (DEG)      WRT      (DEG)
--------------------------------------------------------------------------------
        C    
        O          1         r    
                  *Initial values for internal coordinates* 
                      Name             Value
                        r               1.8000000000
--------------------------------------------------------------------------------
  read isotopes from ZMAT file 
   Rotational constants (in cm-1): 
          0.7588702367             0.7588702367
   Rotational constants (in MHz): 
      22750.3605443973         22750.3605443973
********************************************************************************
   The full molecular point group is CXv .
   The largest Abelian subgroup of the full molecular point group is C2v .
   The computational point group is C2v .
********************************************************************************
--------------------------------------------------------------------------------
   Analysis of internal coordinates specified by Z-matrix 
--------------------------------------------------------------------------------
   *The nuclear repulsion energy is   14.111389333333332 a.u.
   *There is   1 degree of freedom within the tot. symm. molecular subspace.
   *Z-matrix requests optimization of   0 coordinates.
   *The optimization is constrained.
   *The following   1 parameters can have non-zero 
    derivatives within the totally symmetric subspace:
             r    [ 1]
   *The following   0 parameters are to be optimized:

   *The following coordinates must be varied in an  unconstrained optimization.
             r    [ 1]
--------------------------------------------------------------------------------


 ----------------------------------------------------------------
         Coordinates used in calculation (QCOMP) 
 ----------------------------------------------------------------
 Z-matrix   Atomic            Coordinates (in bohr)
  Symbol    Number           X              Y              Z
 ----------------------------------------------------------------
     C         6        -0.00000000     0.00000000     1.94345389
     O         8         0.00000000     0.00000000    -1.45805384
 ----------------------------------------------------------------
 
   Interatomic distance matrix (Angstroms) 
 
                 C             O    
                [ 1]        [ 2]
  C    [ 1]     0.00000
  O    [ 2]     1.80000     0.00000
 rotcon2
   Rotational constants (in cm-1): 
          0.7588702367             0.0000000000
   Rotational constants (in MHz): 
      22750.3605443973             0.0000000000
  ECPDATA file not present.   Using default ECPDATA. 
  @GTFLGS-I, Hessian will be transformed to curvilinear coordinates.
  There are  218 basis functions.
 @CHECKOUT-I, Total execution time (CPU/WALL):        0.12/       0.15 seconds.
--executable xjoda finished with status     0 in        0.18 seconds (walltime).
 --invoking executable--
/nfs/workspaces/public/cfour_mpi/bin/xvmol
 SERIAL VERSION OF MOLECULE STARTED
********************************************************************************
                    INPUT FROM MOL FILE
********************************************************************************
INTGRL        1    0    1    0    0    0    0    0    0                         
         *** CFOUR Program System (Release V0.1) ***                            
Carbon Monoxide DBOC calculation                                                
    2    2 X  Y       0.10E-08              0    0                              
   9999.00      3.00                                                            
          6.00000000    1    5    1    1    1    1    1                         
C #1  -0.000000000000000   0.000000000000000   1.943453894712839                
   16    9                                                                      
   33980.0000000000       9.100000000000000E-005 -1.900000000000000E-005        
  0.000000000000000E+000  0.000000000000000E+000  0.000000000000000E+000        
  0.000000000000000E+000  0.000000000000000E+000  0.000000000000000E+000        
  0.000000000000000E+000                                                        
   5089.00000000000       7.040000000000000E-004 -1.510000000000000E-004        
  0.000000000000000E+000  0.000000000000000E+000  0.000000000000000E+000        
  0.000000000000000E+000  0.000000000000000E+000  0.000000000000000E+000        
  0.000000000000000E+000                                                        
   1157.00000000000       3.693000000000000E-003 -7.850000000000000E-004        
  0.000000000000000E+000  0.000000000000000E+000  0.000000000000000E+000        
  0.000000000000000E+000  0.000000000000000E+000  0.000000000000000E+000        
  0.000000000000000E+000                                                        
   326.600000000000       1.536000000000000E-002 -3.324000000000000E-003        
  0.000000000000000E+000  0.000000000000000E+000  0.000000000000000E+000        
  0.000000000000000E+000  0.000000000000000E+000  0.000000000000000E+000        
  0.000000000000000E+000                                                        
   106.100000000000       5.292900000000000E-002 -1.151200000000000E-002        
  0.000000000000000E+000  0.000000000000000E+000  0.000000000000000E+000        
  0.000000000000000E+000  0.000000000000000E+000  0.000000000000000E+000        
  0.000000000000000E+000                                                        
   38.1100000000000       0.147043000000000      -3.416000000000000E-002        
  0.000000000000000E+000  0.000000000000000E+000  0.000000000000000E+000        
  0.000000000000000E+000  0.000000000000000E+000  0.000000000000000E+000        
  0.000000000000000E+000                                                        
   14.7500000000000       0.305631000000000      -7.717300000000001E-002        
  0.000000000000000E+000  0.000000000000000E+000  0.000000000000000E+000        
  0.000000000000000E+000  0.000000000000000E+000  0.000000000000000E+000        
  0.000000000000000E+000                                                        
   6.03500000000000       0.399345000000000      -0.141493000000000             
  0.000000000000000E+000  0.000000000000000E+000  0.000000000000000E+000        
  0.000000000000000E+000  0.000000000000000E+000  0.000000000000000E+000        
  0.000000000000000E+000                                                        
   2.53000000000000       0.217051000000000      -0.118019000000000             
  0.000000000000000E+000  0.000000000000000E+000  0.000000000000000E+000        
  0.000000000000000E+000  0.000000000000000E+000  0.000000000000000E+000        
  0.000000000000000E+000                                                        
  0.735500000000000       1.589400000000000E-002  0.273806000000000             
   1.00000000000000       0.000000000000000E+000  0.000000000000000E+000        
  0.000000000000000E+000  0.000000000000000E+000  0.000000000000000E+000        
  0.000000000000000E+000                                                        
  0.290500000000000      -3.084000000000000E-003  0.586510000000000             
  0.000000000000000E+000   1.00000000000000       0.000000000000000E+000        
  0.000000000000000E+000  0.000000000000000E+000  0.000000000000000E+000        
  0.000000000000000E+000                                                        
  0.111100000000000       9.779999999999999E-004  0.285430000000000             
  0.000000000000000E+000  0.000000000000000E+000   1.00000000000000             
  0.000000000000000E+000  0.000000000000000E+000  0.000000000000000E+000        
  0.000000000000000E+000                                                        
   7.21600000000000       0.000000000000000E+000  0.000000000000000E+000        
  0.000000000000000E+000  0.000000000000000E+000  0.000000000000000E+000        
   1.00000000000000       0.000000000000000E+000  0.000000000000000E+000        
  0.000000000000000E+000                                                        
   19.5700000000000       0.000000000000000E+000  0.000000000000000E+000        
  0.000000000000000E+000  0.000000000000000E+000  0.000000000000000E+000        
  0.000000000000000E+000   1.00000000000000       0.000000000000000E+000        
  0.000000000000000E+000                                                        
   53.0730000000000       0.000000000000000E+000  0.000000000000000E+000        
  0.000000000000000E+000  0.000000000000000E+000  0.000000000000000E+000        
  0.000000000000000E+000  0.000000000000000E+000   1.00000000000000             
  0.000000000000000E+000                                                        
  4.145000000000000E-002  0.000000000000000E+000  0.000000000000000E+000        
  0.000000000000000E+000  0.000000000000000E+000  0.000000000000000E+000        
  0.000000000000000E+000  0.000000000000000E+000  0.000000000000000E+000        
   1.00000000000000                                                             
   10    8                                                                      
   34.5100000000000       5.378000000000000E-003  0.000000000000000E+000        
  0.000000000000000E+000  0.000000000000000E+000  0.000000000000000E+000        
  0.000000000000000E+000  0.000000000000000E+000  0.000000000000000E+000        
   7.91500000000000       3.613200000000000E-002  0.000000000000000E+000        
  0.000000000000000E+000  0.000000000000000E+000  0.000000000000000E+000        
  0.000000000000000E+000  0.000000000000000E+000  0.000000000000000E+000        
   2.36800000000000       0.142493000000000       0.000000000000000E+000        
  0.000000000000000E+000  0.000000000000000E+000  0.000000000000000E+000        
  0.000000000000000E+000  0.000000000000000E+000  0.000000000000000E+000        
  0.813200000000000       0.342150000000000        1.00000000000000             
  0.000000000000000E+000  0.000000000000000E+000  0.000000000000000E+000        
  0.000000000000000E+000  0.000000000000000E+000  0.000000000000000E+000        
  0.289000000000000       0.463864000000000       0.000000000000000E+000        
   1.00000000000000       0.000000000000000E+000  0.000000000000000E+000        
  0.000000000000000E+000  0.000000000000000E+000  0.000000000000000E+000        
  0.100700000000000       0.250028000000000       0.000000000000000E+000        
  0.000000000000000E+000   1.00000000000000       0.000000000000000E+000        
  0.000000000000000E+000  0.000000000000000E+000  0.000000000000000E+000        
   8.18200000000000       0.000000000000000E+000  0.000000000000000E+000        
  0.000000000000000E+000  0.000000000000000E+000   1.00000000000000             
  0.000000000000000E+000  0.000000000000000E+000  0.000000000000000E+000        
   24.1860000000000       0.000000000000000E+000  0.000000000000000E+000        
  0.000000000000000E+000  0.000000000000000E+000  0.000000000000000E+000        
   1.00000000000000       0.000000000000000E+000  0.000000000000000E+000        
   71.4940000000000       0.000000000000000E+000  0.000000000000000E+000        
  0.000000000000000E+000  0.000000000000000E+000  0.000000000000000E+000        
  0.000000000000000E+000   1.00000000000000       0.000000000000000E+000        
  3.218000000000000E-002  0.000000000000000E+000  0.000000000000000E+000        
  0.000000000000000E+000  0.000000000000000E+000  0.000000000000000E+000        
  0.000000000000000E+000  0.000000000000000E+000   1.00000000000000             
    6    6                                                                      
   1.84800000000000        1.00000000000000       0.000000000000000E+000        
  0.000000000000000E+000  0.000000000000000E+000  0.000000000000000E+000        
  0.000000000000000E+000                                                        
  0.649000000000000       0.000000000000000E+000   1.00000000000000             
  0.000000000000000E+000  0.000000000000000E+000  0.000000000000000E+000        
  0.000000000000000E+000                                                        
  0.228000000000000       0.000000000000000E+000  0.000000000000000E+000        
   1.00000000000000       0.000000000000000E+000  0.000000000000000E+000        
  0.000000000000000E+000                                                        
   8.65600000000000       0.000000000000000E+000  0.000000000000000E+000        
  0.000000000000000E+000   1.00000000000000       0.000000000000000E+000        
  0.000000000000000E+000                                                        
   33.2130000000000       0.000000000000000E+000  0.000000000000000E+000        
  0.000000000000000E+000  0.000000000000000E+000   1.00000000000000             
  0.000000000000000E+000                                                        
  7.660000000000000E-002  0.000000000000000E+000  0.000000000000000E+000        
  0.000000000000000E+000  0.000000000000000E+000  0.000000000000000E+000        
   1.00000000000000                                                             
    4    4                                                                      
   1.41900000000000        1.00000000000000       0.000000000000000E+000        
  0.000000000000000E+000  0.000000000000000E+000                                
  0.485000000000000       0.000000000000000E+000   1.00000000000000             
  0.000000000000000E+000  0.000000000000000E+000                                
   24.6940000000000       0.000000000000000E+000  0.000000000000000E+000        
   1.00000000000000       0.000000000000000E+000                                
  0.187000000000000       0.000000000000000E+000  0.000000000000000E+000        
  0.000000000000000E+000   1.00000000000000                                     
    2    2                                                                      
   1.01100000000000        1.00000000000000       0.000000000000000E+000        
  0.424000000000000       0.000000000000000E+000   1.00000000000000             
          8.00000000    1    5    1    1    1    1    1                         
O #2   0.000000000000000   0.000000000000000  -1.458053842488941                
   16    9                                                                      
   61420.0000000000       9.000000000000001E-005 -2.000000000000000E-005        
  0.000000000000000E+000  0.000000000000000E+000  0.000000000000000E+000        
  0.000000000000000E+000  0.000000000000000E+000  0.000000000000000E+000        
  0.000000000000000E+000                                                        
   9199.00000000000       6.980000000000001E-004 -1.590000000000000E-004        
  0.000000000000000E+000  0.000000000000000E+000  0.000000000000000E+000        
  0.000000000000000E+000  0.000000000000000E+000  0.000000000000000E+000        
  0.000000000000000E+000                                                        
   2091.00000000000       3.664000000000000E-003 -8.290000000000000E-004        
  0.000000000000000E+000  0.000000000000000E+000  0.000000000000000E+000        
  0.000000000000000E+000  0.000000000000000E+000  0.000000000000000E+000        
  0.000000000000000E+000                                                        
   590.900000000000       1.521800000000000E-002 -3.508000000000000E-003        
  0.000000000000000E+000  0.000000000000000E+000  0.000000000000000E+000        
  0.000000000000000E+000  0.000000000000000E+000  0.000000000000000E+000        
  0.000000000000000E+000                                                        
   192.300000000000       5.242300000000000E-002 -1.215600000000000E-002        
  0.000000000000000E+000  0.000000000000000E+000  0.000000000000000E+000        
  0.000000000000000E+000  0.000000000000000E+000  0.000000000000000E+000        
  0.000000000000000E+000                                                        
   69.3200000000000       0.145921000000000      -3.626100000000000E-002        
  0.000000000000000E+000  0.000000000000000E+000  0.000000000000000E+000        
  0.000000000000000E+000  0.000000000000000E+000  0.000000000000000E+000        
  0.000000000000000E+000                                                        
   26.9700000000000       0.305258000000000      -8.299200000000000E-002        
  0.000000000000000E+000  0.000000000000000E+000  0.000000000000000E+000        
  0.000000000000000E+000  0.000000000000000E+000  0.000000000000000E+000        
  0.000000000000000E+000                                                        
   11.1000000000000       0.398508000000000      -0.152090000000000             
  0.000000000000000E+000  0.000000000000000E+000  0.000000000000000E+000        
  0.000000000000000E+000  0.000000000000000E+000  0.000000000000000E+000        
  0.000000000000000E+000                                                        
   4.68200000000000       0.216980000000000      -0.115331000000000             
  0.000000000000000E+000  0.000000000000000E+000  0.000000000000000E+000        
  0.000000000000000E+000  0.000000000000000E+000  0.000000000000000E+000        
  0.000000000000000E+000                                                        
   1.42800000000000       1.759400000000000E-002  0.288979000000000             
   1.00000000000000       0.000000000000000E+000  0.000000000000000E+000        
  0.000000000000000E+000  0.000000000000000E+000  0.000000000000000E+000        
  0.000000000000000E+000                                                        
  0.554700000000000      -2.502000000000000E-003  0.586128000000000             
  0.000000000000000E+000   1.00000000000000       0.000000000000000E+000        
  0.000000000000000E+000  0.000000000000000E+000  0.000000000000000E+000        
  0.000000000000000E+000                                                        
  0.206700000000000       9.540000000000000E-004  0.277624000000000             
  0.000000000000000E+000  0.000000000000000E+000   1.00000000000000             
  0.000000000000000E+000  0.000000000000000E+000  0.000000000000000E+000        
  0.000000000000000E+000                                                        
   12.9740000000000       0.000000000000000E+000  0.000000000000000E+000        
  0.000000000000000E+000  0.000000000000000E+000  0.000000000000000E+000        
   1.00000000000000       0.000000000000000E+000  0.000000000000000E+000        
  0.000000000000000E+000                                                        
   34.9000000000000       0.000000000000000E+000  0.000000000000000E+000        
  0.000000000000000E+000  0.000000000000000E+000  0.000000000000000E+000        
  0.000000000000000E+000   1.00000000000000       0.000000000000000E+000        
  0.000000000000000E+000                                                        
   93.8810000000000       0.000000000000000E+000  0.000000000000000E+000        
  0.000000000000000E+000  0.000000000000000E+000  0.000000000000000E+000        
  0.000000000000000E+000  0.000000000000000E+000   1.00000000000000             
  0.000000000000000E+000                                                        
  6.959000000000000E-002  0.000000000000000E+000  0.000000000000000E+000        
  0.000000000000000E+000  0.000000000000000E+000  0.000000000000000E+000        
  0.000000000000000E+000  0.000000000000000E+000  0.000000000000000E+000        
   1.00000000000000                                                             
   10    8                                                                      
   63.4200000000000       6.044000000000000E-003  0.000000000000000E+000        
  0.000000000000000E+000  0.000000000000000E+000  0.000000000000000E+000        
  0.000000000000000E+000  0.000000000000000E+000  0.000000000000000E+000        
   14.6600000000000       4.179900000000000E-002  0.000000000000000E+000        
  0.000000000000000E+000  0.000000000000000E+000  0.000000000000000E+000        
  0.000000000000000E+000  0.000000000000000E+000  0.000000000000000E+000        
   4.45900000000000       0.161143000000000       0.000000000000000E+000        
  0.000000000000000E+000  0.000000000000000E+000  0.000000000000000E+000        
  0.000000000000000E+000  0.000000000000000E+000  0.000000000000000E+000        
   1.53100000000000       0.356731000000000        1.00000000000000             
  0.000000000000000E+000  0.000000000000000E+000  0.000000000000000E+000        
  0.000000000000000E+000  0.000000000000000E+000  0.000000000000000E+000        
  0.530200000000000       0.448309000000000       0.000000000000000E+000        
   1.00000000000000       0.000000000000000E+000  0.000000000000000E+000        
  0.000000000000000E+000  0.000000000000000E+000  0.000000000000000E+000        
  0.175000000000000       0.244940000000000       0.000000000000000E+000        
  0.000000000000000E+000   1.00000000000000       0.000000000000000E+000        
  0.000000000000000E+000  0.000000000000000E+000  0.000000000000000E+000        
   14.4750000000000       0.000000000000000E+000  0.000000000000000E+000        
  0.000000000000000E+000  0.000000000000000E+000   1.00000000000000             
  0.000000000000000E+000  0.000000000000000E+000  0.000000000000000E+000        
   42.7300000000000       0.000000000000000E+000  0.000000000000000E+000        
  0.000000000000000E+000  0.000000000000000E+000  0.000000000000000E+000        
   1.00000000000000       0.000000000000000E+000  0.000000000000000E+000        
   126.140000000000       0.000000000000000E+000  0.000000000000000E+000        
  0.000000000000000E+000  0.000000000000000E+000  0.000000000000000E+000        
  0.000000000000000E+000   1.00000000000000       0.000000000000000E+000        
  5.348000000000000E-002  0.000000000000000E+000  0.000000000000000E+000        
  0.000000000000000E+000  0.000000000000000E+000  0.000000000000000E+000        
  0.000000000000000E+000  0.000000000000000E+000   1.00000000000000             
    6    6                                                                      
   3.77500000000000        1.00000000000000       0.000000000000000E+000        
  0.000000000000000E+000  0.000000000000000E+000  0.000000000000000E+000        
  0.000000000000000E+000                                                        
   1.30000000000000       0.000000000000000E+000   1.00000000000000             
  0.000000000000000E+000  0.000000000000000E+000  0.000000000000000E+000        
  0.000000000000000E+000                                                        
  0.444000000000000       0.000000000000000E+000  0.000000000000000E+000        
   1.00000000000000       0.000000000000000E+000  0.000000000000000E+000        
  0.000000000000000E+000                                                        
   14.9270000000000       0.000000000000000E+000  0.000000000000000E+000        
  0.000000000000000E+000   1.00000000000000       0.000000000000000E+000        
  0.000000000000000E+000                                                        
   57.5440000000000       0.000000000000000E+000  0.000000000000000E+000        
  0.000000000000000E+000  0.000000000000000E+000   1.00000000000000             
  0.000000000000000E+000                                                        
  0.154000000000000       0.000000000000000E+000  0.000000000000000E+000        
  0.000000000000000E+000  0.000000000000000E+000  0.000000000000000E+000        
   1.00000000000000                                                             
    4    4                                                                      
   2.66600000000000        1.00000000000000       0.000000000000000E+000        
  0.000000000000000E+000  0.000000000000000E+000                                
  0.859000000000000       0.000000000000000E+000   1.00000000000000             
  0.000000000000000E+000  0.000000000000000E+000                                
   26.4830000000000       0.000000000000000E+000  0.000000000000000E+000        
   1.00000000000000       0.000000000000000E+000                                
  0.324000000000000       0.000000000000000E+000  0.000000000000000E+000        
  0.000000000000000E+000   1.00000000000000                                     
    2    2                                                                      
   1.84600000000000        1.00000000000000       0.000000000000000E+000        
  0.714000000000000       0.000000000000000E+000   1.00000000000000             
FINISH                                                                          
 
********************************************************************************
 ONE- AND TWO-ELECTRON INTEGRALS OVER SYMMETRY-ADAPTED AOS ARE CALCULATED.

  SPHERICAL HARMONICS ARE USED.
  
  INTEGRALS LESS THAN  0.10E-13 ARE NEGLECTED.

  NUCLEAR REPULSION ENERGY :   14.1113893333 A.U.
  @MOLECU-I, ONE ELECTRON INTEGRALS (CPU/WALL):        0.07/       0.07 SECONDS.
  @TWOEL-I,    4349430 INTEGRALS OF SYMMETRY TYPE  I I I I
  @TWOEL-I,   18763705 INTEGRALS OF SYMMETRY TYPE  I J I J
  @TWOEL-I,    9883567 INTEGRALS OF SYMMETRY TYPE  I I J J
  @TWOEL-I,   13837296 INTEGRALS OF SYMMETRY TYPE  I J K L
  @TWOEL-I, TOTAL NUMBER OF 2-E INTEGRALS   46833998.
  @MOLECU-I, TWO ELECTRON INTEGRALS (CPU/WALL):      156.02/      22.19 SECONDS.
 @CHECKOUT-I, Total execution time (CPU/WALL):      156.11/      22.28 seconds.

Running with 14 threads/proc

--executable xvmol finished with status     0 in       22.32 seconds (walltime).
 --invoking executable--
/nfs/workspaces/public/cfour_mpi/bin/xvmol2ja
 @GETMEM-I,  Allocated    3814 MB of main memory.
 @CHECKOUT-I, Total execution time (CPU/WALL):        0.16/       0.03 seconds.
--executable xvmol2ja finished with status     0 in        0.06 seconds (walltime).
 --invoking executable--
/nfs/workspaces/public/cfour_mpi/bin/xvprop
 @GETMEM-I,  Allocated    3814 MB of main memory.
   Property integrals will be calculated.
    --------------------------------------------------------------
                                   Property evaluated at 
    Property type                X             Y             Z
    --------------------------------------------------------------
    Dipole moment               ----          ----          ----  
    Quadrupole moment           ----          ----          ----  
    Octopole moment             ----          ----          ----  
    Relativisitic corr.         ----          ----          ----  
    Second moment            0.0000000     0.0000000     0.0000000
    Electron density         0.0000000     0.0000000     1.9434539
    Electron density         0.0000000     0.0000000    -1.4580538
    Field gradient           0.0000000     0.0000000     1.9434539
    Field gradient           0.0000000     0.0000000    -1.4580538
    Potential                0.0000000     0.0000000     1.9434539
    Potential                0.0000000     0.0000000    -1.4580538
    --------------------------------------------------------------
 @CHECKOUT-I, Total execution time (CPU/WALL):        1.31/       1.32 seconds.
--executable xvprop finished with status     0 in        1.33 seconds (walltime).
 --invoking executable--
/nfs/workspaces/public/cfour_mpi/bin/xvscf
  There are  218 functions in the AO basis.

  There are 4 irreducible representations.

       Irrep        # of functions
         1                 86
         2                 52
         3                 52
         4                 28


  Parameters for SCF calculation: 
        SCF reference function:  RHF  
  Maximum number of iterations:  150
     Full symmetry point group: CXv 
     Computational point group: C2v 
        Initial density matrix: MOREAD                 
     SCF convergence tolerance: 10**(-10)
  DIIS convergence acceleration:  ON
          Latest start for DIIS:   8
                     DIIS order:   6

  Memory information:    2523578 words required.
  Fock matrices are constructed from AO integral file.
 @GETMEM-I,  Allocated      19 MB of main memory.
  Initialization and symmetry analysis required      0.002 seconds.

  Adding electric field perturbation to one-electron Hamiltonian.
  Field direction     : Z
  Field strength      : -0.0002000 a.u.

  @INITGES-I, Occupancies from core Hamiltonian:

          Alpha population by irrep:   5    1    1    0
           Beta population by irrep:   5    1    1    0


 total no. of electrons in initial guess :  0.000000000000000E+000
  --------------------------------------------------------------------
  Iteration         Total Energy            Largest Density Difference
  --------------------------------------------------------------------
       0            14.111388591859006              0.0000000000D+00
   current occupation vector 
     5  1  1  0
     5  1  1  0
       1           -93.759522059446624              0.1756632502D+02
   current occupation vector 
     5  1  1  0
     5  1  1  0
       2           -97.513167950921130              0.1756632093D+02
   current occupation vector 
     5  1  1  0
     5  1  1  0
       3           -99.665804732843043              0.7018723365D+01
   current occupation vector 
     5  1  1  0
     5  1  1  0
       4           -94.003407401811273              0.7017449917D+01
   current occupation vector 
     5  1  1  0
     5  1  1  0
       5           -99.693749838672659              0.7081414836D+01
   current occupation vector 
     5  1  1  0
     5  1  1  0
       6           -93.919402000392310              0.7081395104D+01
   current occupation vector 
     5  1  1  0
     5  1  1  0
       7           -99.692176546237945              0.7083902747D+01
   current occupation vector 
     5  1  1  0
     5  1  1  0
       8           -93.917636197272799              0.7083902712D+01
   current occupation vector 
     5  1  1  0
     5  1  1  0
       9          -106.490194314038476              0.6162407214D+01
   current occupation vector 
     5  1  1  0
     5  1  1  0
      10          -110.484852647866362              0.1427644864D+01
   current occupation vector 
     5  1  1  0
     5  1  1  0
      11          -112.043360374582406              0.9092923329D+00
   current occupation vector 
     5  1  1  0
     5  1  1  0
      12          -112.209562769765100              0.8242002351D+00
   current occupation vector 
     5  1  1  0
     5  1  1  0
      13          -112.379376034455007              0.1756585496D+00
   current occupation vector 
     5  1  1  0
     5  1  1  0
      14          -112.422000026691904              0.1836548704D+00
   current occupation vector 
     5  1  1  0
     5  1  1  0
      15          -112.424691204130667              0.6445672553D-01
   current occupation vector 
     5  1  1  0
     5  1  1  0
      16          -112.428056088803828              0.1097081699D+00
   current occupation vector 
     5  1  1  0
     5  1  1  0
      17          -112.430939862763125              0.1400030168D+00
   current occupation vector 
     5  1  1  0
     5  1  1  0
      18          -112.431580051853061              0.8360126302D-01
   current occupation vector 
     5  1  1  0
     5  1  1  0
      19          -112.431581832192308              0.8183611636D-02
   current occupation vector 
     5  1  1  0
     5  1  1  0
      20          -112.431583702052677              0.6277250260D-02
   current occupation vector 
     5  1  1  0
     5  1  1  0
      21          -112.431583787447508              0.1430327693D-02
   current occupation vector 
     5  1  1  0
     5  1  1  0
      22          -112.431583795704512              0.3571783913D-03
   current occupation vector 
     5  1  1  0
     5  1  1  0
      23          -112.431583795731967              0.1080542598D-04
   current occupation vector 
     5  1  1  0
     5  1  1  0
      24          -112.431583795730631              0.4702678998D-05
   current occupation vector 
     5  1  1  0
     5  1  1  0
      25          -112.431583795732180              0.1429530608D-05
   current occupation vector 
     5  1  1  0
     5  1  1  0
      26          -112.431583795732749              0.8117266947D-06
   current occupation vector 
     5  1  1  0
     5  1  1  0
      27          -112.431583795731513              0.1720661318D-06
   current occupation vector 
     5  1  1  0
     5  1  1  0
      28          -112.431583795732365              0.4813523402D-07
   current occupation vector 
     5  1  1  0
     5  1  1  0
      29          -112.431583795731669              0.3771801094D-08
   current occupation vector 
     5  1  1  0
     5  1  1  0
      30          -112.431583795732010              0.1704253627D-08
   current occupation vector 
     5  1  1  0
     5  1  1  0
      31          -112.431583795732379              0.1305857644D-09
   current occupation vector 
     5  1  1  0
     5  1  1  0
      32          -112.431583795732195              0.6595888280D-09
   current occupation vector 
     5  1  1  0
     5  1  1  0
      33          -112.431583795732422              0.2379478836D-09
   current occupation vector 
     5  1  1  0
     5  1  1  0
      34          -112.431583795731868              0.1800191107D-09
   current occupation vector 
     5  1  1  0
     5  1  1  0
      35          -112.431583795731868              0.1118150017D-09
   current occupation vector 
     5  1  1  0
     5  1  1  0

  SCF has converged.

 Density matrix saved to file den.dat
 total electron number:   14.0000000000002     
     E(SCF)=      -112.431583795732124              0.7995382134D-10

  Eigenvector printing suppressed.

 @PUTMOS-I, Writing converged MOs to NEWMOS. 
 @PUTMOS-I, Symmetry   1 Full Blocks 21 Partial Blocksize   2
 @PUTMOS-I, Symmetry   2 Full Blocks 13 Partial Blocksize   0
 @PUTMOS-I, Symmetry   3 Full Blocks 13 Partial Blocksize   0
 @PUTMOS-I, Symmetry   4 Full Blocks  7 Partial Blocksize   0
 @PUTFOCK-I, Writing converged Fock matrix to NEWFOCK. 
 @PUTFOCK-I, Symmetry   1 Full Blocks 21 Partial Blocksize   2
 @PUTFOCK-I, Symmetry   2 Full Blocks 13 Partial Blocksize   0
 @PUTFOCK-I, Symmetry   3 Full Blocks 13 Partial Blocksize   0
 @PUTFOCK-I, Symmetry   4 Full Blocks  7 Partial Blocksize   0


 
  ORBITAL EIGENVALUES (ALPHA)  (1H = 27.2113834 eV)

       MO #        E(hartree)               E(eV)           FULLSYM    COMPSYM
       ----   --------------------   --------------------   -------   ---------
    1     1         -20.6208399504        -561.1215819206     SG+        A1 (1)
    2     2         -11.5320184637        -313.8021757926     SG+        A1 (1)
    3     3          -1.2189399570         -33.1690425125     SG+        A1 (1)
    4     4          -0.8139401401         -22.1484372176     SG+        A1 (1)
    5     5          -0.4816819162         -13.1072312989     SG+        A1 (1)
    6   139          -0.4768481681         -12.9756983250      PI        B2 (3)
    7    87          -0.4768481681         -12.9756983250      PI        B1 (2)
  +++++++++++++++++++++++++++++++++++++++++++++++++++++++++++++++++++++++++++++
    8   140          -0.0286390249          -0.7793074860      PI        B2 (3)
    9    88          -0.0286390249          -0.7793074860      PI        B1 (2)
   10     6           0.0553508761           1.5061739099     SG+        A1 (1)
   11     7           0.0689589741           1.8764690818     SG+        A1 (1)
   12    89           0.0805780656           2.1926406379      PI        B1 (2)
   13   141           0.0805780656           2.1926406379      PI        B2 (3)
   14     8           0.1423621096           3.8738699466     SG+        A1 (1)
   15     9           0.1618304469           4.4036303358     SG+        A1 (1)
   16   142           0.1848602720           5.0303037376      PI        B2 (3)
   17    90           0.1848602720           5.0303037376      PI        B1 (2)
   18    10           0.2182930900           5.9400569649      DE        A1 (1)
   19   191           0.2182930900           5.9400569649      DE        A2 (4)
   20   143           0.2773531314           7.5471623949      PI        B2 (3)
   21    91           0.2773531314           7.5471623949      PI        B1 (2)
   22    11           0.2839182434           7.7258081748     SG+        A1 (1)
   23    12           0.3065656178           8.3420745638     SG+        A1 (1)
   24    13           0.4073602279          11.0848353422     SG+        A1 (1)
   25    92           0.4124207710          11.2225397230      PI        B1 (2)
   26   144           0.4124207710          11.2225397230      PI        B2 (3)
   27    14           0.5177584457          14.0889235756     SG+        A1 (1)
   28   192           0.5503478188          14.9757255009      DE        A2 (4)
   29    15           0.5503478188          14.9757255009      DE        A1 (1)
   30   145           0.6252605092          17.0142034397      PI        B2 (3)
   31    93           0.6252605092          17.0142034397      PI        B1 (2)
   32    16           0.6954594349          18.9244133221     SG+        A1 (1)
   33    94           0.7220272825          19.6473612082      PH        B1 (2)
   34   146           0.7220272825          19.6473612082      PH        B2 (3)
   35   193           0.7290714392          19.8390424583      DE        A2 (4)
   36    17           0.7290714392          19.8390424583      DE        A1 (1)
   37    95           0.7639052225          20.7869178916      PI        B1 (2)
   38   147           0.7639052225          20.7869178916      PI        B2 (3)
   39    18           0.8003286653          21.7780501562     SG+        A1 (1)
   40   194           0.8413888275          22.8953539747      DE        A2 (4)
   41    19           0.8413888275          22.8953539747      DE        A1 (1)
   42    96           0.8522078020          23.1897532372      PI        B1 (2)
   43   148           0.8522078020          23.1897532372      PI        B2 (3)
   44    20           0.9171346798          24.9565034009     SG+        A1 (1)
   45    97           1.0636489747          28.9433600522      PI        B1 (2)
   46   149           1.0636489747          28.9433600522      PI        B2 (3)
   47    21           1.1605018620          31.5788611023     SG+        A1 (1)
   48    22           1.2999394492          35.3731507495     SG+        A1 (1)
   49   150           1.4173952280          38.5692849788      PH        B2 (3)
   50    98           1.4173952280          38.5692849788      PH        B1 (2)
   51   151           1.4440177833          39.2937215375      PI        B2 (3)
   52    99           1.4440177833          39.2937215375      PI        B1 (2)
   53    23           1.5763573410          42.8948639813     SG+        A1 (1)
   54   195           1.5808604325          43.0173993316      DE        A2 (4)
   55    24           1.5808604325          43.0173993316      DE        A1 (1)
   56   152           1.6430884082          44.7107086361      PI        B2 (3)
   57   100           1.6430884082          44.7107086361      PI        B1 (2)
   58   196           1.6524884846          44.9664977189      DE        A2 (4)
   59    25           1.6524884846          44.9664977190      DE        A1 (1)
   60    26           1.8164161773          49.4271970137     SG+        A1 (1)
   61    27           1.9238051153          52.3493985793     SG+        A1 (1)
   62   153           1.9860361413          54.0427908880      PI        B2 (3)
   63   101           1.9860361413          54.0427908880      PI        B1 (2)
   64   197           2.0508125624          55.8054469176      PI        A2 (4)
   65    28           2.0508125624          55.8054469176      PI        A1 (1)
   66   198           2.1106971546          57.4349895156      DE        A2 (4)
   67    29           2.1106971546          57.4349895156      DE        A1 (1)
   68   102           2.1491321579          58.4808591250      PH        B1 (2)
   69   154           2.1491321579          58.4808591250      PH        B2 (3)
   70   103           2.1913556762          59.6298194698      PH        B1 (2)
   71   155           2.1913556762          59.6298194698      PH        B2 (3)
   72   156           2.1918896710          59.6443502070      PI        B2 (3)
   73   104           2.1918896710          59.6443502070      PI        B1 (2)
   74    30           2.2256336582          60.5625707814     SG+        A1 (1)
   75   199           2.2608898399          61.5219402578      DE        A2 (4)
   76    31           2.2608898399          61.5219402578      DE        A1 (1)
   77    32           2.3454942748          63.8241439753     SG+        A1 (1)
   78   157           2.4440723065          66.5065885895      PI        B2 (3)
   79   105           2.4440723065          66.5065885895      PI        B1 (2)
   80   200           2.5076561165          68.2367920205      DE        A2 (4)
   81    33           2.5076561165          68.2367920206      DE        A1 (1)
   82    34           2.6115563963          71.0640623697     SG+        A1 (1)
   83   158           2.6722822842          72.7164977875      PI        B2 (3)
   84   106           2.6722822842          72.7164977875      PI        B1 (2)
   85    35           2.8019418933          76.2447151222     SG+        A1 (1)
   86   159           3.1857357013          86.6882755805      PI        B2 (3)
   87   107           3.1857357013          86.6882755805      PI        B1 (2)
   88    36           3.7034053898         100.7747839476     SG+        A1 (1)
   89    37           3.7288446880         101.4670224439      PI        A1 (1)
   90   201           3.7288446880         101.4670224439      PI        A2 (4)
   91   160           3.8348884082         104.3526187708      PH        B2 (3)
   92   108           3.8348884082         104.3526187708      PH        B1 (2)
   93    38           4.0536892275         110.3064917545     SG+        A1 (1)
   94   202           4.1000650355         111.5684416458      DE        A2 (4)
   95    39           4.1000650355         111.5684416458      DE        A1 (1)
   96   161           4.1236302392         112.2096834395      PI        B2 (3)
   97   109           4.1236302392         112.2096834395      PI        B1 (2)
   98   162           4.1583256058         113.1537923621      PH        B2 (3)
   99   110           4.1583256058         113.1537923621      PH        B1 (2)
  100    40           4.2694184118         116.1767812976     SG+        A1 (1)
  101   203           4.3139871906         117.3895594268      DE        A2 (4)
  102    41           4.3139871906         117.3895594268      DE        A1 (1)
  103   111           4.4454015915         120.9655270743      PI        B1 (2)
  104   163           4.4454015915         120.9655270743      PI        B2 (3)
  105   204           4.5253127058         123.1400190437      DE        A2 (4)
  106    42           4.5253127058         123.1400190438      DE        A1 (1)
  107    43           4.7984498095         130.5724574918     SG+        A1 (1)
  108   164           4.9432961602         134.5139270753      PI        B2 (3)
  109   112           4.9432961602         134.5139270753      PI        B1 (2)
  110    44           5.1198891747         139.3192672996     SG+        A1 (1)
  111   113           5.3456788043         145.4633154771      PI        B1 (2)
  112   165           5.3456788043         145.4633154772      PI        B2 (3)
  113   205           5.8000302878         157.8268478919      PI        A2 (4)
  114    45           5.8000302878         157.8268478919      PI        A1 (1)
  115   166           5.8724531078         159.7975730157      PH        B2 (3)
  116   114           5.8724531078         159.7975730157      PH        B1 (2)
  117    46           5.8727143874         159.8046827950     SG+        A1 (1)
  118   206           6.0095782652         163.5289382478      DE        A2 (4)
  119    47           6.0095782652         163.5289382478      DE        A1 (1)
  120   115           6.0907150580         165.7367826229      PI        B1 (2)
  121   167           6.0907150580         165.7367826230      PI        B2 (3)
  122    48           6.1079620972         166.2060984189     SG+        A1 (1)
  123   207           6.2267533320         169.4385722542      DE        A2 (4)
  124    49           6.2267533320         169.4385722543      DE        A1 (1)
  125   168           6.3250595119         172.1136194051      PH        B2 (3)
  126   116           6.3250595119         172.1136194051      PH        B1 (2)
  127   208           6.4482283566         175.4652140630      DE        A2 (4)
  128    50           6.4482283566         175.4652140630      DE        A1 (1)
  129   169           6.6280776909         180.3591632514      PI        B2 (3)
  130   117           6.6280776909         180.3591632514      PI        B1 (2)
  131   170           6.8622483101         186.7312697524      PI        B2 (3)
  132   118           6.8622483101         186.7312697524      PI        B1 (2)
  133    51           6.9998340357         190.4751676810     SG+        A1 (1)
  134    52           7.3049730260         198.7784217369     SG+        A1 (1)
  135    53           9.1842284344         249.9155611607     SG+        A1 (1)
  136   119           9.5440093724         259.7056982056      PI        B1 (2)
  137   171           9.5440093724         259.7056982057      PI        B2 (3)
  138    54          10.5851184053         288.0357152612     SG+        A1 (1)
  139   209          10.6965227468         291.0671815106      PI        A2 (4)
  140    55          10.6965227468         291.0671815106      PI        A1 (1)
  141   172          10.7198577685         291.7021597324      PH        B2 (3)
  142   120          10.7198577685         291.7021597324      PH        B1 (2)
  143   210          10.8868441016         296.2460888657      DE        A2 (4)
  144    56          10.8868441016         296.2460888657      DE        A1 (1)
  145   173          11.0075686248         299.5311701522      PI        B2 (3)
  146   121          11.0075686248         299.5311701522      PI        B1 (2)
  147    57          11.0403567423         300.4233801875     SG+        A1 (1)
  148   174          11.9300852656         324.6341241558      PH        B2 (3)
  149   122          11.9300852656         324.6341241558      PH        B1 (2)
  150   211          11.9697316130         325.7129561156      DE        A2 (4)
  151    58          11.9697316130         325.7129561156      DE        A1 (1)
  152   123          12.1129628943         329.6104774260      PI        B1 (2)
  153   175          12.1129628943         329.6104774260      PI        B2 (3)
  154    59          12.3856550968         337.0308094985     SG+        A1 (1)
  155   212          12.7263345201         346.3011679034      DE        A2 (4)
  156    60          12.7263345201         346.3011679034      DE        A1 (1)
  157   176          13.0564793558         355.2848656059      PI        B2 (3)
  158   124          13.0564793558         355.2848656059      PI        B1 (2)
  159    61          13.2883457234         361.5942702304     SG+        A1 (1)
  160    62          17.0879857610         464.9877320763     SG+        A1 (1)
  161   125          18.6394122660         507.2041935206      PI        B1 (2)
  162   177          18.6394122660         507.2041935207      PI        B2 (3)
  163    63          19.2762519419         524.5334821051     SG+        A1 (1)
  164    64          26.2296013351         713.7437383594      DE        A1 (1)
  165   213          26.2296013351         713.7437383594      DE        A2 (4)
  166   178          26.3985386861         718.3407573867      PI        B2 (3)
  167   126          26.3985386861         718.3407573867      PI        B1 (2)
  168    65          26.7730377066         728.5313938160     SG+        A1 (1)
  169   127          33.2993968789         906.1226554609      PI        B1 (2)
  170   179          33.2993968789         906.1226554613      PI        B2 (3)
  171    66          33.9866611582         924.8240672629     SG+        A1 (1)
  172    67          35.4761507150         965.3551386624     SG+        A1 (1)
  173    68          47.0923854412        1281.4489554621      DE        A1 (1)
  174   214          47.0923854412        1281.4489554621      DE        A2 (4)
  175   180          47.2463486456        1285.6385072447      PI        B2 (3)
  176   128          47.2463486456        1285.6385072447      PI        B1 (2)
  177    69          47.3761713380        1289.1711623016     SG+        A1 (1)
  178    70          63.5646738971        1729.6827121087     SG+        A1 (1)
  179   129          66.2417855813        1802.5306245538      PI        B1 (2)
  180   181          66.2417855813        1802.5306245539      PI        B2 (3)
  181    71          66.7225198903        1815.6120701498     SG+        A1 (1)
  182   182          98.4931930607        2680.1360386640      PH        B2 (3)
  183   130          98.4931930607        2680.1360386640      PH        B1 (2)
  184   215          98.5102164410        2680.5992683933      DE        A2 (4)
  185    72          98.5102164410        2680.5992683934      DE        A1 (1)
  186   131          98.5256655993        2681.0196613620      PI        B1 (2)
  187   183          98.5256655993        2681.0196613620      PI        B2 (3)
  188    73          98.5315151065        2681.1788345455     SG+        A1 (1)
  189   132         103.3309468989        2811.7780131515      PI        B1 (2)
  190   184         103.3309468989        2811.7780131516      PI        B2 (3)
  191    74         103.3317566073        2811.8000464355      DE        A1 (1)
  192   216         103.3317566073        2811.8000464380      DE        A2 (4)
  193    75         103.3416987449        2812.0705857537     SG+        A1 (1)
  194   185         103.3500097264        2812.2967390583      PH        B2 (3)
  195   133         103.3500097264        2812.2967390583      PH        B1 (2)
  196   217         114.9423194155        3127.7395225009      DE        A2 (4)
  197    76         114.9423194155        3127.7395225009      DE        A1 (1)
  198   186         115.0253712518        3129.9994778605      PI        B2 (3)
  199   134         115.0253712518        3129.9994778605      PI        B1 (2)
  200    77         115.1844997714        3134.3295850161     SG+        A1 (1)
  201   135         116.6306834230        3173.6822428276      PI        B1 (2)
  202   187         116.6306834230        3173.6822428280      PI        B2 (3)
  203    78         117.2229000130        3189.7972755141     SG+        A1 (1)
  204    79         121.7316010790        3312.4852688573     SG+        A1 (1)
  205   218         198.5783097783        5403.5905223020      DE        A2 (4)
  206    80         198.5783097783        5403.5905223020      DE        A1 (1)
  207   188         198.6619249087        5405.8658056726      PI        B2 (3)
  208   136         198.6619249087        5405.8658056726      PI        B1 (2)
  209    81         198.7319051245        5407.7700641542     SG+        A1 (1)
  210    82         216.1090080175        5880.6250733571     SG+        A1 (1)
  211   137         224.7362379592        6115.3839349801      PI        B1 (2)
  212   189         224.7362379592        6115.3839349802      PI        B2 (3)
  213    83         225.1141034779        6125.6661784839     SG+        A1 (1)
  214   138         395.1924619448       10753.7335987690      PI        B1 (2)
  215   190         395.1924619448       10753.7335987695      PI        B2 (3)
  216    84         395.6509127816       10766.2086802610     SG+        A1 (1)
  217    85         508.4973314949       13836.9158451855     SG+        A1 (1)
  218    86         894.9205795214       24352.0270019081     SG+        A1 (1)


  VSCF finished.

 @CHECKOUT-I, Total execution time (CPU/WALL):       59.34/      10.47 seconds.
--executable xvscf finished with status     0 in       10.50 seconds (walltime).
 --invoking executable--
/nfs/workspaces/public/cfour_mpi/bin/xvtran
 @GETMEM-I,  Allocated    3814 MB of main memory.
  Full RHF integral transformation
  Transformation of IIII integrals :
  1 pass through the AO integral file was required.
     4349430 AO integrals were read.
     8463061 MO integrals were written to HF2.
  Transformation of IIJJ integrals :
  1 pass through the AO integral file was required.
     9883567 AO integrals were read.
    14205966 MO integrals were written to HF2.
  Transformation of IJIJ integrals :
  1 pass through the AO integral file was required.
    18763705 AO integrals were read.
    26237846 MO integrals were written to HF2.
  Transformation of IJKL integrals :
  1 pass through the AO integral file was required.
    13837296 AO integrals were read.
    17842599 MO integrals were written to HF2.
  Summary of active molecular orbitals: 
------------------------------------------------------------------------
 
  Index      Eigenvalue    Symmetry    Index      Eigenvalue    Symmetry
------------------------------------------------------------------------
     1       -20.6208400        1       110         4.1236302        2
     2       -11.5320185        1       111         4.1583256        2
     3        -1.2189400        1       112         4.4454016        2
     4        -0.8139401        1       113         4.9432962        2
     5        -0.4816819        1       114         5.3456788        2
     6        -0.4768482        2       115         5.8724531        2
     7        -0.4768482        3       116         6.0907151        2
     8         0.0553509        1       117         6.3250595        2
     9         0.0689590        1       118         6.6280777        2
    10         0.1423621        1       119         6.8622483        2
    11         0.1618304        1       120         9.5440094        2
    12         0.2182931        1       121        10.7198578        2
    13         0.2839182        1       122        11.0075686        2
    14         0.3065656        1       123        11.9300853        2
    15         0.4073602        1       124        12.1129629        2
    16         0.5177584        1       125        13.0564794        2
    17         0.5503478        1       126        18.6394123        2
    18         0.6954594        1       127        26.3985387        2
    19         0.7290714        1       128        33.2993969        2
    20         0.8003287        1       129        47.2463486        2
    21         0.8413888        1       130        66.2417856        2
    22         0.9171347        1       131        98.4931931        2
    23         1.1605019        1       132        98.5256656        2
    24         1.2999394        1       133       103.3309469        2
    25         1.5763573        1       134       103.3500097        2
    26         1.5808604        1       135       115.0253713        2
    27         1.6524885        1       136       116.6306834        2
    28         1.8164162        1       137       198.6619249        2
    29         1.9238051        1       138       224.7362380        2
    30         2.0508126        1       139       395.1924619        2
    31         2.1106972        1       140        -0.0286390        3
    32         2.2256337        1       141         0.0805781        3
    33         2.2608898        1       142         0.1848603        3
    34         2.3454943        1       143         0.2773531        3
    35         2.5076561        1       144         0.4124208        3
    36         2.6115564        1       145         0.6252605        3
    37         2.8019419        1       146         0.7220273        3
    38         3.7034054        1       147         0.7639052        3
    39         3.7288447        1       148         0.8522078        3
    40         4.0536892        1       149         1.0636490        3
    41         4.1000650        1       150         1.4173952        3
    42         4.2694184        1       151         1.4440178        3
    43         4.3139872        1       152         1.6430884        3
    44         4.5253127        1       153         1.9860361        3
    45         4.7984498        1       154         2.1491322        3
    46         5.1198892        1       155         2.1913557        3
    47         5.8000303        1       156         2.1918897        3
    48         5.8727144        1       157         2.4440723        3
    49         6.0095783        1       158         2.6722823        3
    50         6.1079621        1       159         3.1857357        3
    51         6.2267533        1       160         3.8348884        3
    52         6.4482284        1       161         4.1236302        3
    53         6.9998340        1       162         4.1583256        3
    54         7.3049730        1       163         4.4454016        3
    55         9.1842284        1       164         4.9432962        3
    56        10.5851184        1       165         5.3456788        3
    57        10.6965227        1       166         5.8724531        3
    58        10.8868441        1       167         6.0907151        3
    59        11.0403567        1       168         6.3250595        3
    60        11.9697316        1       169         6.6280777        3
    61        12.3856551        1       170         6.8622483        3
    62        12.7263345        1       171         9.5440094        3
    63        13.2883457        1       172        10.7198578        3
    64        17.0879858        1       173        11.0075686        3
    65        19.2762519        1       174        11.9300853        3
    66        26.2296013        1       175        12.1129629        3
    67        26.7730377        1       176        13.0564794        3
    68        33.9866612        1       177        18.6394123        3
    69        35.4761507        1       178        26.3985387        3
    70        47.0923854        1       179        33.2993969        3
    71        47.3761713        1       180        47.2463486        3
    72        63.5646739        1       181        66.2417856        3
    73        66.7225199        1       182        98.4931931        3
    74        98.5102164        1       183        98.5256656        3
    75        98.5315151        1       184       103.3309469        3
    76       103.3317566        1       185       103.3500097        3
    77       103.3416987        1       186       115.0253713        3
    78       114.9423194        1       187       116.6306834        3
    79       115.1844998        1       188       198.6619249        3
    80       117.2229000        1       189       224.7362380        3
    81       121.7316011        1       190       395.1924619        3
    82       198.5783098        1       191         0.2182931        4
    83       198.7319051        1       192         0.5503478        4
    84       216.1090080        1       193         0.7290714        4
    85       225.1141035        1       194         0.8413888        4
    86       395.6509128        1       195         1.5808604        4
    87       508.4973315        1       196         1.6524885        4
    88       894.9205795        1       197         2.0508126        4
    89        -0.0286390        2       198         2.1106972        4
    90         0.0805781        2       199         2.2608898        4
    91         0.1848603        2       200         2.5076561        4
    92         0.2773531        2       201         3.7288447        4
    93         0.4124208        2       202         4.1000650        4
    94         0.6252605        2       203         4.3139872        4
    95         0.7220273        2       204         4.5253127        4
    96         0.7639052        2       205         5.8000303        4
    97         0.8522078        2       206         6.0095783        4
    98         1.0636490        2       207         6.2267533        4
    99         1.4173952        2       208         6.4482284        4
   100         1.4440178        2       209        10.6965227        4
   101         1.6430884        2       210        10.8868441        4
   102         1.9860361        2       211        11.9697316        4
   103         2.1491322        2       212        12.7263345        4
   104         2.1913557        2       213        26.2296013        4
   105         2.1918897        2       214        47.0923854        4
   106         2.4440723        2       215        98.5102164        4
   107         2.6722823        2       216       103.3317566        4
   108         3.1857357        2       217       114.9423194        4
   109         3.8348884        2       218       198.5783098        4
------------------------------------------------------------------------
  -20.6208399504067       -11.5320184637378       -1.21893995703598     
 -0.813940140123512      -0.481681916210817      -0.476848168070759     
 -0.476848168070767       5.535087605640895E-002  6.895897405323045E-002
  0.142362109621952       0.161830446879860       0.218293089975005     
  0.283918243375907       0.306565617822359       0.407360227860742     
  0.517758445740481       0.550347818805453       0.695459434895435     
  0.729071439210207       0.800328665251076       0.841388827539419     
[...]
 Perturbed amplitude equations converged in    23 iterations.
  Dominant contributions to perturbed wavefunction:
    7    0   46    0   0.3892128323 AA  
    7    0   22    0   0.3279370340 AA  
    7    0   32    0   0.2634536510 AA  
    7    0   36    0   0.2459703705 AA  
    7    0   28    0   0.2418780393 AA  
    7    7  140   46  -0.2348552561 ABAB
    7    7   46  140  -0.2348552561 ABAB
    7    0   54    0  -0.2318738272 AA  
    7    0   16    0  -0.2304185172 AA  
    7    7  140   22  -0.2246889743 ABAB
    7    7   22  140  -0.2246889743 ABAB
    7    0   25    0   0.2129379631 AA  
    7    0   37    0   0.2093347278 AA  
    7    0   56    0   0.2024864343 AA  
    7    0   24    0   0.1956875337 AA  
    7    7  140   32  -0.1878444691 ABAB
    7    7   32  140  -0.1878444691 ABAB
    7    0   63    0   0.1849076917 AA  
    7    0   38    0   0.1749133064 AA  
    7    0   40    0   0.1697380494 AA  
  norm of converged amps    1.57542831446366     
 Starting iterative solution of the perturbed Lambda equations.
 The DIIS procedure is used to accelerate convergence.
 Convergence criterion is 10**(-7).
 Maximum number of iterations is 100.
 Convergence information after     1 iterations: 
 Largest element of residual vector :  0.74614244E-01.
 Largest element of DIIS residual   :  0.74614244E-01.
 Convergence information after     2 iterations: 
 Largest element of residual vector :  0.20683610E-01.
 Largest element of DIIS residual   :  0.14769261E-01.
 Convergence information after     3 iterations: 
 Largest element of residual vector :  0.69366916E-02.
 Largest element of DIIS residual   :  0.55609372E-02.
 Convergence information after     4 iterations: 
 Largest element of residual vector :  0.27858682E-02.
 Largest element of DIIS residual   :  0.27067232E-02.
 Convergence information after     5 iterations: 
 Largest element of residual vector :  0.28049867E-02.
 Largest element of DIIS residual   :  0.24991916E-02.
 Convergence information after     6 iterations: 
 Largest element of residual vector :  0.17659155E-02.
 Largest element of DIIS residual   :  0.10153662E-02.
 Convergence information after     7 iterations: 
 Largest element of residual vector :  0.10789988E-02.
 Largest element of DIIS residual   :  0.51031750E-03.
 Convergence information after     8 iterations: 
 Largest element of residual vector :  0.40648080E-03.
 Largest element of DIIS residual   :  0.19375938E-03.
 Convergence information after     9 iterations: 
 Largest element of residual vector :  0.15394285E-03.
 Largest element of DIIS residual   :  0.98658863E-04.
 Convergence information after    10 iterations: 
 Largest element of residual vector :  0.11911313E-03.
 Largest element of DIIS residual   :  0.90577932E-04.
 Convergence information after    11 iterations: 
 Largest element of residual vector :  0.51528885E-04.
 Largest element of DIIS residual   : -0.23687903E-04.
 Convergence information after    12 iterations: 
 Largest element of residual vector :  0.37793978E-04.
 Largest element of DIIS residual   :  0.19283688E-04.
 Convergence information after    13 iterations: 
 Largest element of residual vector :  0.12138349E-04.
 Largest element of DIIS residual   :  0.85247093E-05.
 Convergence information after    14 iterations: 
 Largest element of residual vector :  0.10225010E-04.
 Largest element of DIIS residual   :  0.47989696E-05.
 Convergence information after    15 iterations: 
 Largest element of residual vector :  0.58295214E-05.
 Largest element of DIIS residual   :  0.32511867E-05.
 Convergence information after    16 iterations: 
 Largest element of residual vector :  0.23571327E-05.
 Largest element of DIIS residual   :  0.76299325E-06.
 Convergence information after    17 iterations: 
 Largest element of residual vector :  0.14835953E-05.
 Largest element of DIIS residual   :  0.75496238E-06.
 Convergence information after    18 iterations: 
 Largest element of residual vector :  0.39283657E-06.
 Largest element of DIIS residual   :  0.23595447E-06.
 Convergence information after    19 iterations: 
 Largest element of residual vector :  0.36092453E-06.
 Largest element of DIIS residual   :  0.19292904E-06.
 Convergence information after    20 iterations: 
 Largest element of residual vector :  0.15015838E-06.
 Largest element of DIIS residual   :  0.11100231E-06.
 Convergence information after    21 iterations: 
 Largest element of residual vector :  0.12628078E-06.
 Largest element of DIIS residual   :  0.47920344E-07.
 Perturbed Lambda equations converged in    21 iterations.
  Dominant contributions to perturbed wavefunction:
    7    7  140   46  -0.1407818255 ABAB
    7    7   46  140  -0.1407818255 ABAB
    7    7  140   22  -0.1386171880 ABAB
    7    7   22  140  -0.1386171880 ABAB
    7    0   46    0   0.1187140755 AA  
    7    7  140   32  -0.1166466983 ABAB
    7    7   32  140  -0.1166466983 ABAB
    7    0   22    0   0.0943125961 AA  
    7    7  140   36  -0.0934744634 ABAB
    7    7   36  140  -0.0934744634 ABAB
    7    6   46   89  -0.0913376011 ABAB
    6    7   89   46  -0.0913376011 ABAB
    7    6   22   89  -0.0888936080 ABAB
    6    7   89   22  -0.0888936080 ABAB
    7    7  140   16   0.0876083201 ABAB
    7    7   16  140   0.0876083201 ABAB
    7    5   46   10  -0.0838255606 ABAB
    5    7   10   46  -0.0838255606 ABAB
    7    7  140   56  -0.0824285438 ABAB
    7    7   56  140  -0.0824285438 ABAB
        The DBOC first-order density matrix is being calculated 
             (Symmetry block 3, perturbation   2)
 term   2.65715356091713     
 final tnorm  0.592155923050359     
  norm contr. I: |<0|L dT/dx|0>|^2   0.000000000000000E+000
  norm contr. II: <0|[nabla(1+L)e-T][nabla e^T]|0>   2.65715356091713     
  total norm contribution   2.65715356091713     
 oo  1.471019870886379E-002
 vv  -19.8476119852621     
 vo -5.385746192733713E-002
  Correlated perturbed 1-el contribution to DBOC  -19.8867592484805       cm**-1
  SUM_I |dc_I/dx|^2 contribution to DBOC   10.0034115391590       cm**-1
 
 
  The total diagonal Born-Oppenheimer correction (DBOC) is:      0.0041327168 a.u.
  The total diagonal Born-Oppenheimer correction (DBOC) is:        907.026492 cm-1
 
 Total CC energy including DBOC  -112.990033153149     
 First-order density matrix is being calculated  (Symmetry block 3, perturbation   2)
 Calculation of the contributions of <pq||rs> to dI(i,j)/dx required   1.9 seconds.
 Calculation of the contributions of <pq||rs> to dI(a,b)/dx required  14.7 seconds.
 Calculation of the contributions of <pq||rs> to dI(i,a)/dx required   9.1 seconds.
 First-order Z-vector equations are solved for 1 perturbation.
 Convergence reached after  20 iterations.
        U*G(pq,rs) contribution is being calculated
             (Symmetry block 3, perturbation   2)

 CCSD contribution to force constants 

        0.0000000000        0.0000000000        0.0000000000
        0.0000000000        0.0000000000        0.0000000000
        0.0000000000        0.0000000000        0.0000000000
        0.0000000000        0.0000000000        0.0000000000
        0.0000000000        0.0000000000        0.0000000000
        0.0000000000        0.0000000000        0.0000000000
        0.0000000000        0.0000000000        0.0000000000
        0.0000000000        0.0000000000        0.0000000000
        0.0000000000        0.0000000000        0.0000000000
        0.0000000000        0.0000000000        0.0000000000
        0.0000000000        0.0000000000        0.0000000000
        0.0000000000      -12.4455272348       12.4455272348

 CCSD contribution to dipole derivatives 

        0.0000000000        0.0000000000        0.0000000000
        0.0000000000        0.0000000000        0.0000000000
        0.0000000000        0.0000000000        0.0000000000
        0.0000000000        0.0000000000       -0.0538368354
        0.0000000000        0.0000000000        0.0000000000
        0.0000000000        0.0000000000        0.0000000000
 @CHECKOUT-I, Total execution time (CPU/WALL):     1151.60/     263.81 seconds.
--executable xsdcc finished with status     0 in      263.84 seconds (walltime).
 --invoking executable--
/nfs/workspaces/public/cfour_mpi/bin/xanti
 @GETMEM-I,  Allocated    3814 MB of main memory.
 CCSD MO derivative gammas will be sorted to Mulliken order.
 @CHECKOUT-I, Total execution time (CPU/WALL):        9.26/      20.16 seconds.
--executable xanti finished with status     0 in       20.19 seconds (walltime).
 --invoking executable--
/nfs/workspaces/public/cfour_mpi/bin/xbcktrn
 @GETMEM-I,  Allocated    3814 MB of main memory.
 CCSD MO derivative gammas will be transformed to the AO basis.
 @CHECKOUT-I, Total execution time (CPU/WALL):       19.10/       4.07 seconds.
--executable xbcktrn finished with status     0 in        4.10 seconds (walltime).
 --invoking executable--
/nfs/workspaces/public/cfour_mpi/bin/xvdint
 @GETMEM-I,  Allocated    3814 MB of main memory.
 One- and two-electron integral derivatives are calculated
 for RHF-CC/MBPT hessians and dipole derivatives.
 Spherical gaussians are used.
  magnet F F
                    8722  records have been written to the Sort file.
  Total length of Sort file :             178609116  words.
 Evaluation of 2el integral derivatives

                      Two-electron integral gradient
                      ------------------------------

                         C #1 z     0.0000000000
                         O #2 z     0.0000000000


 C #1       0.0000000000            0.0494868792            0.0000000000
 O #2       0.0000000000           -0.0494868792            0.0000000000


 Evaluation of 2e integral derivatives required  268.46 seconds.
  contribution to Hessian
        0.0000000000        0.0000000000        0.0000000000
        0.0000000000        0.0494868792       -0.0494868792
 @CHECKOUT-I, Total execution time (CPU/WALL):      268.45/      64.03 seconds.
--executable xvdint finished with status     0 in       64.06 seconds (walltime).
 --invoking executable--
/nfs/workspaces/public/cfour_mpi/bin/xanti
 @GETMEM-I,  Allocated    3814 MB of main memory.
 CCSD MO gammas will be sorted to Mulliken order.
 @CHECKOUT-I, Total execution time (CPU/WALL):       10.44/       8.98 seconds.
--executable xanti finished with status     0 in        9.01 seconds (walltime).
 --invoking executable--
/nfs/workspaces/public/cfour_mpi/bin/xbcktrn
 @GETMEM-I,  Allocated    3814 MB of main memory.
 CCSD MO gammas will be transformed to the AO basis.
 @CHECKOUT-I, Total execution time (CPU/WALL):       23.30/       3.50 seconds.
--executable xbcktrn finished with status     0 in        3.52 seconds (walltime).
 --invoking executable--
/nfs/workspaces/public/cfour_mpi/bin/xvdint
 @GETMEM-I,  Allocated    3814 MB of main memory.
 One- and two-electron integral derivatives are calculated
 for RHF-CC/MBPT hessians and dipole derivatives.
 Spherical gaussians are used.
  magnet F F

                     Kinetic energy integral gradient
                     --------------------------------

                         C #1 z    -0.3462184809
                         O #2 z     0.3462184809


 C #1       0.0000000000            0.0000000000           -0.3462184809
 O #2       0.0000000000            0.0000000000            0.3462184809



                   Nuclear attraction integral gradient
                   ------------------------------------

                         C #1 z    11.0734310767
                         O #2 z   -11.0734310767


 C #1       0.0000000000            0.0000000000           11.0734310767
 O #2       0.0000000000            0.0000000000          -11.0734310767



                      Reorthonormalization gradient
                      -----------------------------

                         C #1 z     0.0000000000
                         O #2 z     0.0000000000


 C #1       0.0000000000            0.0000000000            0.0000000000
 O #2       0.0000000000            0.0000000000            0.0000000000



                     Kinetic energy integral Hessian
                     -------------------------------


           Symmetry 1

           C #1 z      O #2 z

 C #1 z    0.370784
 O #2 z   -0.370784    0.370784


           Symmetry 2

           C #1 x      O #2 x

 C #1 x   -0.217483
 O #2 x    0.217483   -0.217483


           Symmetry 3

           C #1 y      O #2 y

 C #1 y   -0.217483
 O #2 y    0.217483   -0.217483




           C #1 x      C #1 y      C #1 z      O #2 x      O #2 y      O #2 z

 C #1 x   -0.217483
 C #1 y    0.000000   -0.217483
 C #1 z    0.000000    0.000000    0.370784

 O #2 x    0.217483    0.000000    0.000000   -0.217483
 O #2 y    0.000000    0.217483    0.000000    0.000000   -0.217483
 O #2 z    0.000000    0.000000   -0.370784    0.000000    0.000000    0.370784




                   Nuclear attraction integral Hessian
                   -----------------------------------


           Symmetry 1

           C #1 z      O #2 z

 C #1 z   -6.483137
 O #2 z    6.483137   -6.483137


           Symmetry 2

           C #1 x      O #2 x

 C #1 x    4.949638
 O #2 x   -4.949638    4.949638


           Symmetry 3

           C #1 y      O #2 y

 C #1 y    4.949638
 O #2 y   -4.949638    4.949638




           C #1 x      C #1 y      C #1 z      O #2 x      O #2 y      O #2 z

 C #1 x    4.949638
 C #1 y    0.000000    4.949638
 C #1 z    0.000000    0.000000   -6.483137

 O #2 x   -4.949638    0.000000    0.000000    4.949638
 O #2 y    0.000000   -4.949638    0.000000    0.000000    4.949638
 O #2 z    0.000000    0.000000    6.483137    0.000000    0.000000   -6.483137




                Highest order reorthonormalization Hessian
                ------------------------------------------


           Symmetry 1

           C #1 z      O #2 z

 C #1 z    0.000000
 O #2 z    0.000000    0.000000


           Symmetry 2

           C #1 x      O #2 x

 C #1 x    0.000000
 O #2 x    0.000000    0.000000


           Symmetry 3

           C #1 y      O #2 y

 C #1 y    0.000000
 O #2 y    0.000000    0.000000




           C #1 x      C #1 y      C #1 z      O #2 x      O #2 y      O #2 z




                Electronic contributions to dipole moment
                -----------------------------------------

                               au             Debye

                    z      0.60091016      1.52736154

  Conversion factor used: 1 a.u. =   2.54174691 Debye 



   Electronic contributions to static part of dipole moment derivatives
   --------------------------------------------------------------------


                     Total dipole moment derivatives
                     -------------------------------


           Symmetry 1
                              Ez

               C #1 z    -5.69214928
               O #2 z    -8.30785072

           Symmetry 2
                              Ex

               C #1 x    -5.70556614
               O #2 x    -8.29443386

           Symmetry 3
                              Ey

               C #1 y    -5.70556614
               O #2 y    -8.29443386



                       Ex          Ey          Ez

      C #1    x   -5.705566    0.000000    0.000000
      C #1    y    0.000000   -5.705566    0.000000
      C #1    z    0.000000    0.000000   -5.692149

      O #2    x   -8.294434    0.000000    0.000000
      O #2    y    0.000000   -8.294434    0.000000
      O #2    z    0.000000    0.000000   -8.307851

 Evaluation of 1e integral derivatives required    1.64 seconds.
                    8815  records have been written to the Sort file.
  Total length of Sort file :             180513570  words.
 Evaluation of 2el integral derivatives

                      Two-electron integral gradient
                      ------------------------------

                         C #1 z    -6.1032163704
                         O #2 z     6.1032163704


 C #1       0.0000000000            0.0000000000           -6.1032163704
 O #2       0.0000000000            0.0000000000            6.1032163704


 Evaluation of 2e integral derivatives required  544.24 seconds.

                            Molecular gradient
                            ------------------

                         C #1 z     0.4754272897
                         O #2 z    -0.4754272897


 C #1       0.0000000000            0.0000000000            0.4754272897
 O #2       0.0000000000            0.0000000000           -0.4754272897


  Molecular gradient norm 0.672E+00

                            Molecular hessian
                            -----------------


           Symmetry 1

           C #1 z      O #2 z

 C #1 z    5.537273
 O #2 z   -5.537273    5.537273


           Symmetry 2

           C #1 x      O #2 x

 C #1 x   12.612616
 O #2 x  -12.612616   12.612616


           Symmetry 3

           C #1 y      O #2 y

 C #1 y   12.612616
 O #2 y  -12.612616   12.612616




           C #1 x      C #1 y      C #1 z      O #2 x      O #2 y      O #2 z

 C #1 x   12.612616
 C #1 y    0.000000   12.612616
 C #1 z    0.000000    0.000000    5.537273

 O #2 x  -12.612616    0.000000    0.000000   12.612616
 O #2 y    0.000000  -12.612616    0.000000    0.000000   12.612616
 O #2 z    0.000000    0.000000   -5.537273    0.000000    0.000000    5.537273




                           Total dipole moment
                           -------------------

                               au             Debye

                    z      0.59720279      1.51793834

  Conversion factor used: 1 a.u. =   2.54174691 Debye 



                     Total dipole moment derivatives
                     -------------------------------


           Symmetry 1
                              Ez

               C #1 z     0.28660641
               O #2 z    -0.28660641

           Symmetry 2
                              Ex

               C #1 x     0.19414390
               O #2 x    -0.19414390

           Symmetry 3
                              Ey

               C #1 y     0.19414390
               O #2 y    -0.19414390



                       Ex          Ey          Ez

      C #1    x    0.194144    0.000000    0.000000
      C #1    y    0.000000    0.194144    0.000000
      C #1    z    0.000000    0.000000    0.286606

      O #2    x   -0.194144    0.000000    0.000000
      O #2    y    0.000000   -0.194144    0.000000
      O #2    z    0.000000    0.000000   -0.286606

 @CHECKOUT-I, Total execution time (CPU/WALL):      545.87/      95.93 seconds.
--executable xvdint finished with status     0 in       95.97 seconds (walltime).
 --invoking executable--
/nfs/workspaces/public/cfour_mpi/bin/xjoda
  @GTFLGS-I, Hessian will be transformed to curvilinear coordinates.
  @GTFLGS-I, Hessian will be transformed to curvilinear coordinates.
  igrd and ihes are                      0                     1
  gradient from JOBARC 
   0.000000000000000   0.000000000000000   0.475427289660072
   0.000000000000000   0.000000000000000  -0.475427289660072
 
  @PROJFCM-I, Projecting force constant matrix onto totally symmetric subspace.
  Largest difference between matrix elements of symmetrized
  and unsymmetrized FCM :     0.3463895837E-12.
  read isotopes from ZMAT file 
 
  Summary of diagonal Born-Oppenheimer correction at the correlated level
  The total diagonal Born-Oppenheimer correction (DBOC) is:      0.0041327168 a.u.
  The total diagonal Born-Oppenheimer correction (DBOC) is:        907.026492 cm-1
  The total diagonal Born-Oppenheimer correction (DBOC) is:            10.850 kJ/mole
  hellooooooo 
  readis is  F
 
 @CHECKOUT-I, Total execution time (CPU/WALL):        0.01/       0.01 seconds.
--executable xjoda finished with status     0 in        0.04 seconds (walltime).
  The final electronic energy is      -112.990033153149071 a.u. 
  This computation required                         2373.40 seconds (walltime).
