 --invoking executable--
/nfs/workspaces/public/cfour_mpi/bin/xjoda


   *************************************************************************
         <<<     CCCCCC     CCCCCC   |||     CCCCCC     CCCCCC   >>>
       <<<      CCC        CCC       |||    CCC        CCC         >>>
      <<<      CCC        CCC        |||   CCC        CCC            >>>
    <<<        CCC        CCC        |||   CCC        CCC              >>>
      <<<      CCC        CCC        |||   CCC        CCC            >>>
       <<<      CCC        CCC       |||    CCC        CCC         >>>
         <<<     CCCCCC     CCCCCC   |||     CCCCCC     CCCCCC   >>>
   *************************************************************************

     ****************************************************************
     * CFOUR Coupled-Cluster techniques for Computational Chemistry *
     ****************************************************************
 

   Department of Chemistry                Institut fuer Physikalische Chemie
   University of Florida                  Universitaet Mainz
   Gainesville, FL 32611, USA             D-55099 Mainz, Germany

   Department of Chemistry                Fakultaet fuer Chemie und Biowiss.
   Johns Hopkins University               Karlsruher Institut fuer Technologie
   Baltimore, MD 21218, USA               D-76131 Karlsruhe, Germany

   Department of Chemistry                Department of Physical Chemistry
   Southern Methodist University          Eotvos Lorand University
   Dallas, TX 75275, USA                  H-1053 Budapest, Hungary

 
                       Version 2.1
 
                     vincent.theory.phys.ucl.ac.uk                     
                     Tue 25 Feb 20:47:34 GMT 2025                      
                     integer*8 version is running
 
********************************************************************************
*                          Input from ZMAT file                                *
********************************************************************************
Carbon Monoxide DBOC calculation                                                
C                                                                               
O 1 r                                                                           
                                                                                
r=1.5827586206896551                                                            
                                                                                
                                                                                
*CFOUR(CALC=CCSD,BASIS=AUG-PCVQZ,SCF_CONV=10                                    
CC_CONV=14,DBOC=ON,MEMORY=500000000                                             
ZFIELD=-200)                                                                    
                                                                                
%isotopes                                                                       
12                                                                              
16                                                                              
********************************************************************************
  @GTFLGS-I, Hessian will be transformed to curvilinear coordinates.
    -------------------------------------------------------------------
                    CFOUR Control Parameters 
    -------------------------------------------------------------------
        External           Internal           Value            Units
          Name               Name
    -------------------------------------------------------------------
       ABCDTYPE             IABCDT         STANDARD    [  0]    ***   
       ANHARMONIC           IANHAR         OFF         [  0]    ***   
       ANH_ALGORIT          IANALG         STANDARD    [  0]    ***   
       ANH_DERIVAT          IANDER         SECOND      [  1]    ***   
       ANH_MODE             ANHMOD         VIBRATION   [  0]    ***   
       ANH_STEPSIZ          ICUBST             50000          x 10-6  
       ANH_SYMMETR          IANHSM         ABELIAN     [  0]    ***   
       AO_LADDERS           IAOLAD         SINGLEPASS  [  1]    ***   
       AV_SCF               IAVSCF         OFF         [  0]    ***   
       BASIS                IBASIS         AUG-PCVQZ   [ 52]    ***   
       BOTHVECTORS          BOTHVC         OFF         [  0]    ***   
       BOX_POTENT           IPIAB          OFF         [  0]    ***   
       BREIT                IBREIT         OFF         [  0]    ***   
       BRUCK_CONV           IBRTOL          10D-  4             ***   
       BRUECKNER            IBRKNR         OFF         [  0]    ***   
       BUFFERSIZE           IBUFFS              4096            ***   
       CACHE_RECS           ICHREC             10               ***   
       CALCLEVEL            ICLLVL         CCSD        [ 10]    ***   
       CCORBOPT             ICCORB         OFF         [  0]  x 0.01  
       CC_CONV              ICCCNV          10D- 14             ***   
       CC_EXPORDER          ICCEOR              5               ***   
       CC_EXTRAPOL          ICCEXT         DIIS        [  1]    ***   
       CC_GUESS             ICCGES         MP2         [  0]    ***   
       CC_MAXCYC            ICCCYC            100              cycles 
       CC_PROGRAM           ICCPRO         VCC         [  0]    ***   
       CHARGE               ICHRGE              0               ***   
       CHOLESKY             ICHOLE         OFF         [  0]    ***   
       CIS_CONV             ICISTL              5               ***   
       COMM_SIZE            IPSIZE            ***               ***   
       CONSTANT             ICONST         OLD         [  1]    ***   
       CONTINUUM            ICONTU         NONE        [  0]    ***   
       CONTRACTION          ICNTYP         GENERAL     [  1]    ***   
       COORDINATES          ICOORD         INTERNAL    [  0]    ***   
       CPHF_CONVER          ICPHFT          10D- 16             ***   
       CPHF_MAXCYC          ICPHFC             64              cycles 
       CUBIC                ICUBIC         OFF         [  0]    ***   
       CURVILINEAR          ICURVY         ON          [  1]    ***   
       DBOC                 IDBOC          ON          [  1]    ***   
       DCT                  IDCT           OFF         [  0]    ***   
       DERIV_LEV            IDRLVL         SECOND      [  2]    ***   
       DEVMEM_SIZE          IDVMEM          50000000           MByte  
       DIAG_MRCC            IEOMST          10D-  0             ***   
       DIFF_TYPE            IDIFTY         RELAXED     [  0]    ***   
       DIRECT               IDIRCT         OFF         [  0]    ***   
       DROPMO               IDRPMO      NONE         
       ECP                  IECP           OFF         [  0]    ***   
       EIGENVECTOR          IVEC                1               ***   
       EL_ANHARM            IELANH         OFF         [  0]    ***   
       EOMFOLLOW            IEOMSR         ENERGY      [  0]    ***   
       EOMIP                IEOMIP         OFF         [  0]    ***   
       EOMLEVEL             HBARFM         SAME        [  0]    ***   
       EOM_MRCC             IMRCCE         NEW         [  1]    ***   
       EOM_NONIT            EOMNON         OFF         [  0]    ***   
       EOM_NSING            IEOMSI          10D-  0             ***   
       EOM_NSTATES          IMRCCD         DAVIDSON    [  0]    ***   
       EOM_NTRIP            IEOMTR          10D-  0             ***   
       EOM_ORDER            IEXORD         ENERGY      [  0]    ***   
       EOM_PROPSTA          IEOMST              0               ***   
       ESTATE_CONV          IEXTOL          10D-  5             ***   
       ESTATE_DIAG          IEXDIG         ITERATIVE   [  0]    ***   
       ESTATE_LOCK          IESLOC         ON          [  1]    ***   
       ESTATE_MAXC          IEXMXC             40               ***   
       ESTATE_PROP          IEXPRP         OFF         [  0]    ***   
       EVAL_HESS            IRECAL              0            # of cyc.
       EXCITATION           IEXCIT              0               ***   
       EXCITE               IEXCIT         NONE        [  0]    ***   
       EXTERN_POT           IEXPOT         OFF         [  0]    ***   
       FCGRADNEW            IFCGNW         OFF         [  0]    ***   
       FC_FIELD             IFINFC              0             x 10-6  
       FD_CALTYPE           IFDCAL         GRADONLY    [  0]    ***   
       FD_PROJECT           IFDPRJ         OFF         [  1]    ***   
       FD_STEPSIZE          IDISFD              0            10-4 bohr
       FD_USEGROUP          IFDGRP         FULL        [  0]    ***   
       FILE_RECSIZ          IFLREC              4096           words  
       FINITE_PERT          IFIPER              0             x 10-6  
       FIXGEOM              IFIXGM         OFF         [  0]    ***   
       FOCK                 IFOCK          AO          [  1]    ***   
       FREQ_ALGORI          IVIALG         STANDARD    [  0]    ***   
       FROZEN_CORE          IFROCO         OFF         [  0]    ***   
       GAMMA_ABCD           IGABCD         STORE       [  0]    ***   
       GAMMA_ABCI           IGABCI         STORE       [  0]    ***   
       GENBAS_1             IGNBS1              0               ***   
       GENBAS_2             IGNBS2              0               ***   
       GENBAS_3             IGNBS3              0               ***   
       GENBAS_4             IGNBS4              0               ***   
       GEO_CONV             ICONTL              5              H/bohr 
       GEO_MAXCYC           IOPTCY             50               ***   
       GEO_MAXSTEP          IMXSTP            300            millibohr
       GEO_METHOD           INR            SINGLE_POINT[  5]    ***   
       GIAO                 IGIAO          OFF         [  1]    ***   
       GIMIC                IGIMIC         OFF         [  0]    ***   
       GRID                 IGRID          OFF         [  0]    ***   
       GRID_ALGO            IGALGO         SERIAL      [  0]    ***   
       GUESS                IGUESS         MOREAD      [  0]    ***   
       HBAR                 IHBAR          OFF         [  0]    ***   
       HESS_TYPE            IHESTP         SCF         [  0]    ***   
       HF2_FILE             IHF2Fl         USE         [  1]    ***   
       HFSTABILITY          ISTABL         OFF         [  0]    ***   
       INCORE               INCORE         OFF         [  0]    ***   
       INPUT_MRCC           IMRCC          ON          [  1]    ***   
       INTEGRALS            INTTYP         VMOL        [  1]    ***   
       JODA_PRINT           IJPRNT              0               ***   
       KEYWORD_OUT          IDMPKW         NO          [  0]    ***   
       LINDEP_TOL           ILINDP              8               ***   
       LINEQ_CONV           IZTACN          10D-  7           cycles  
       LINEQ_EXPOR          ILMAXD              5               ***   
       LINEQ_MAXCY          ILMAXC            100               ***   
       LINEQ_TYPE           ILTYPE         DIIS        [  1]    ***   
       LOCK_ORBOCC          ILOCOC         OFF         [  0]    ***   
       MEMORY_SIZE          IMEMSZ         500000000           words  
       MEM_UNIT             IMEMU          INTEGERWORDS[  0]    ***   
       MRCC                 IMRCCC         OFF         [  0]    ***   
       MULTIPLICTY          IMULTP              1               ***   
       NACOUPLING           IVCOUP         OFF         [  0]    ***   
       NEGEVAL              IDIE           ABORT       [  0]    ***   
       NEWNORM              INEWNO         OFF         [  0]    ***   
       NON-HF               INONHF         OFF         [  0]    ***   
       NTOP_TAMP            ITOPT2             15               ***   
       NUC_MODEL            INUCMO         POINT       [  0]    ***   
       OCCUPATION           IOCCU   ESTIMATED BY SCF 
       OPEN-SHELL           IOPEN          SPIN-ORBITAL[  0]    ***   
       OPTVIB               IOPTVB         OFF         [  0]    ***   
       ORBITALS             IORBTP         STANDARD    [  0]    ***   
       PARALLEL             IPARAL         ON          [  1]    ***   
       PARA_INT             IPINTS         ON          [  1]    ***   
       PARA_PRINT           IPPRIN              0               ***   
       PERT_ORB             IPTORB         STANDARD    [  0]    ***   
       POINTS               IGRDFD              0               ***   
       PRINT                IPRNT               0               ***   
       PROPS                IPROPS         OFF         [  0]    ***   
       PROP_INTEGR          IINTYP         INTERNAL    [  0]    ***   
       PSI                  IPSI           OFF         [  0]    ***   
       QC_ALG               IQCALG         FLM         [  0]    ***   
       QC_LINALG            IQCLIN         TRIDIAG     [  2]    ***   
       QC_MAXCYC            IQCMAX          10D-100           cycles  
       QC_MAXSCFCY          IQCMSC          10D- 15           cycles  
       QC_RTRUST            IQCRTR          10D-  0           x 10-3  
       QC_SKIPSCF           IQCSKI         OFF         [  0]    ***   
       QC_START             IQCSTA          10D-  1             ***   
       QRHFGUESS            IQGUES         OFF         [  0]    ***   
       QUARTIC              IQUART         OFF         [  0]    ***   
       RAMAN_INT            IRAMIN         OFF         [  0]    ***   
       RAMAN_ORB            IRAMRE         UNRELAXED   [  0]    ***   
       RDO                  IRDOFM         ON          [  1]    ***   
       REDUCE_REPR          REDREP         Ir          [  0]    ***   
       REFERENCE            IREFNC         RHF         [  0]    ***   
       RELATIVIST           IRELAT         OFF         [  0]    ***   
       RELAX_DENS           IRDENS         ON          [  1]    ***   
       RESET_FLAGS          IRESET         OFF         [  0]    ***   
       RESTART_CC           ICCRES         OFF         [  0]    ***   
       ROT_EVEC             ROTVEC              0               ***   
       SAVE_INTS            ISVINT         OFF         [  0]    ***   
       SCALE_ON             ISTCRT              0               ***   
       SCF_CONV             ISCFCV          10D- 10             ***   
       SCF_DAMPING          IDAMP               0             x 10-3  
       SCF_EXPORDE          IRPPOR              6               ***   
       SCF_EXPSTAR          IRPPLS              8               ***   
       SCF_EXTRAPO          IRPP           ON          [  1]    ***   
       SCF_MAXCYC           ISCFCY            150              cycles 
       SCF_NOSTOP           ISCFST         OFF         [  0]    ***   
       SCF_PRINT            ISCFPR              0               ***   
       SCF_PROG             ISCFPR         SCF         [  0]    ***   
       SD_FIELD             IFINSD              0             x 10-6  
       SOPERT               IPERSO         OFF         [  0]    ***   
       SPHERICAL            IDFGHI         ON          [  1]    ***   
       SPINORBIT            ISOCAL         OFF         [  0]    ***   
       SPINROTATIO          ISRCON         OFF         [  0]    ***   
       SPIN_FLIP            ISPFLP         OFF         [  0]    ***   
       SPIN_ORBIT           ISPORB         OFF         [  0]    ***   
       SPIN_SCAL            ISCSMP         OFF         [  0]    ***   
       STEEPSCALE           ISTPSC              1000          x 10-3  
       SUBGROUP             ISUBGP         DEFAULT     [  0]    ***   
       SUBGRPAXIS           ISBXYZ         X           [  0]    ***   
       SYMMETRY             ISYM           ON          [  0]    ***   
       SYM_CHECK            ISYMCK         OVERRIDE    [  1]    ***   
       T3_EXTRAPOL          IT3EXT         OFF         [  0]    ***   
       T4_EXTRAPOL          IT4EXP         OFF         [  0]    ***   
       TAMP_SUM             IEVERY              5               ***   
       TESTSUITE            ITESTS         OFF         [  0]    ***   
       THERMOCH             ITHERM         OFF         [  0]    ***   
       TOL_CHOLESK          ITOLCH          10D-  4             ***   
       TRANGRAD             IRESRM         OFF         [  0]    ***   
       TRANS_INV            ITRAIN         IGNORE      [  1]    ***   
       TREAT_PERT           ITREAT         SIMULTANEOUS[  0]    ***   
       TRIP_ALGORI          ITRALG         NORMAL      [  0]    ***   
       UIJ_THRESHO          IUIJTH              1               ***   
       UNITS                IUNITS         ANGSTROM    [  0]    ***   
       UNOS                 IUNOS          OFF         [  0]    ***   
       UPDATE_HESS          IHUPDT         ON          [  1]    ***   
       VIBPHASE             ISETPH         STANDARD    [  0]    ***   
       VIBRATION            IVIB           ANALYTIC    [  1]    ***   
       VIB_ALGORIT          IGEALG         STANDARD    [  0]    ***   
       VNATORB              IVNORB         OFF         [  0]    ***   
       VTRAN                IVTRAN         FULL/PARTIAL[  0]    ***   
       XFIELD               IXEFLD              0             x 10-6  
       XFORM_TOL            IXFTOL          10D- 11             ***   
       YFIELD               IYEFLD              0             x 10-6  
       ZFIELD               IZEFLD            ***             x 10-6  
       ZSCALE_EXP           IZEXPS         OFF         [  0]    ***   
    -------------------------------------------------------------------
   2 entries found in Z-matrix 
   Job Title : Carbon Monoxide DBOC calculation                                                
   There are  1 unique internal coordinates.
   Of these,  0 will be optimized.
   User supplied Z-matrix: 
--------------------------------------------------------------------------------
       SYMBOL    BOND      LENGTH    ANGLE     ANGLE     DIHED     ANGLE
                  TO      (ANGST)    WRT      (DEG)      WRT      (DEG)
--------------------------------------------------------------------------------
        C    
        O          1         r    
                  *Initial values for internal coordinates* 
                      Name             Value
                        r               1.5827586207
--------------------------------------------------------------------------------
  read isotopes from ZMAT file 
   Rotational constants (in cm-1): 
          0.9814838433             0.9814838433
   Rotational constants (in MHz): 
      29424.1495084016         29424.1495084016
********************************************************************************
   The full molecular point group is CXv .
   The largest Abelian subgroup of the full molecular point group is C2v .
   The computational point group is C2v .
********************************************************************************
--------------------------------------------------------------------------------
   Analysis of internal coordinates specified by Z-matrix 
--------------------------------------------------------------------------------
   *The nuclear repulsion energy is   16.048246692810455 a.u.
   *There is   1 degree of freedom within the tot. symm. molecular subspace.
   *Z-matrix requests optimization of   0 coordinates.
   *The optimization is constrained.
   *The following   1 parameters can have non-zero 
    derivatives within the totally symmetric subspace:
             r    [ 1]
   *The following   0 parameters are to be optimized:

   *The following coordinates must be varied in an  unconstrained optimization.
             r    [ 1]
--------------------------------------------------------------------------------


 ----------------------------------------------------------------
         Coordinates used in calculation (QCOMP) 
 ----------------------------------------------------------------
 Z-matrix   Atomic            Coordinates (in bohr)
  Symbol    Number           X              Y              Z
 ----------------------------------------------------------------
     C         6        -0.00000000     0.00000000     1.70889911
     O         8         0.00000000     0.00000000    -1.28208183
 ----------------------------------------------------------------
 
   Interatomic distance matrix (Angstroms) 
 
                 C             O    
                [ 1]        [ 2]
  C    [ 1]     0.00000
  O    [ 2]     1.58276     0.00000
 rotcon2
   Rotational constants (in cm-1): 
          0.9814838433             0.0000000000
   Rotational constants (in MHz): 
      29424.1495084016             0.0000000000
  ECPDATA file not present.   Using default ECPDATA. 
  @GTFLGS-I, Hessian will be transformed to curvilinear coordinates.
  There are  218 basis functions.
 @CHECKOUT-I, Total execution time (CPU/WALL):        0.12/       0.20 seconds.
--executable xjoda finished with status     0 in        0.23 seconds (walltime).
 --invoking executable--
/nfs/workspaces/public/cfour_mpi/bin/xvmol
 SERIAL VERSION OF MOLECULE STARTED
********************************************************************************
                    INPUT FROM MOL FILE
********************************************************************************
INTGRL        1    0    1    0    0    0    0    0    0                         
         *** CFOUR Program System (Release V0.1) ***                            
Carbon Monoxide DBOC calculation                                                
    2    2 X  Y       0.10E-08              0    0                              
   9999.00      3.00                                                            
          6.00000000    1    5    1    1    1    1    1                         
C #1  -0.000000000000000   0.000000000000000   1.708899114316462                
   16    9                                                                      
   33980.0000000000       9.100000000000000E-005 -1.900000000000000E-005        
  0.000000000000000E+000  0.000000000000000E+000  0.000000000000000E+000        
  0.000000000000000E+000  0.000000000000000E+000  0.000000000000000E+000        
  0.000000000000000E+000                                                        
   5089.00000000000       7.040000000000000E-004 -1.510000000000000E-004        
  0.000000000000000E+000  0.000000000000000E+000  0.000000000000000E+000        
  0.000000000000000E+000  0.000000000000000E+000  0.000000000000000E+000        
  0.000000000000000E+000                                                        
   1157.00000000000       3.693000000000000E-003 -7.850000000000000E-004        
  0.000000000000000E+000  0.000000000000000E+000  0.000000000000000E+000        
  0.000000000000000E+000  0.000000000000000E+000  0.000000000000000E+000        
  0.000000000000000E+000                                                        
   326.600000000000       1.536000000000000E-002 -3.324000000000000E-003        
  0.000000000000000E+000  0.000000000000000E+000  0.000000000000000E+000        
  0.000000000000000E+000  0.000000000000000E+000  0.000000000000000E+000        
  0.000000000000000E+000                                                        
   106.100000000000       5.292900000000000E-002 -1.151200000000000E-002        
  0.000000000000000E+000  0.000000000000000E+000  0.000000000000000E+000        
  0.000000000000000E+000  0.000000000000000E+000  0.000000000000000E+000        
  0.000000000000000E+000                                                        
   38.1100000000000       0.147043000000000      -3.416000000000000E-002        
  0.000000000000000E+000  0.000000000000000E+000  0.000000000000000E+000        
  0.000000000000000E+000  0.000000000000000E+000  0.000000000000000E+000        
  0.000000000000000E+000                                                        
   14.7500000000000       0.305631000000000      -7.717300000000001E-002        
  0.000000000000000E+000  0.000000000000000E+000  0.000000000000000E+000        
  0.000000000000000E+000  0.000000000000000E+000  0.000000000000000E+000        
  0.000000000000000E+000                                                        
   6.03500000000000       0.399345000000000      -0.141493000000000             
  0.000000000000000E+000  0.000000000000000E+000  0.000000000000000E+000        
  0.000000000000000E+000  0.000000000000000E+000  0.000000000000000E+000        
  0.000000000000000E+000                                                        
   2.53000000000000       0.217051000000000      -0.118019000000000             
  0.000000000000000E+000  0.000000000000000E+000  0.000000000000000E+000        
  0.000000000000000E+000  0.000000000000000E+000  0.000000000000000E+000        
  0.000000000000000E+000                                                        
  0.735500000000000       1.589400000000000E-002  0.273806000000000             
   1.00000000000000       0.000000000000000E+000  0.000000000000000E+000        
  0.000000000000000E+000  0.000000000000000E+000  0.000000000000000E+000        
  0.000000000000000E+000                                                        
  0.290500000000000      -3.084000000000000E-003  0.586510000000000             
  0.000000000000000E+000   1.00000000000000       0.000000000000000E+000        
  0.000000000000000E+000  0.000000000000000E+000  0.000000000000000E+000        
  0.000000000000000E+000                                                        
  0.111100000000000       9.779999999999999E-004  0.285430000000000             
  0.000000000000000E+000  0.000000000000000E+000   1.00000000000000             
  0.000000000000000E+000  0.000000000000000E+000  0.000000000000000E+000        
  0.000000000000000E+000                                                        
   7.21600000000000       0.000000000000000E+000  0.000000000000000E+000        
  0.000000000000000E+000  0.000000000000000E+000  0.000000000000000E+000        
   1.00000000000000       0.000000000000000E+000  0.000000000000000E+000        
  0.000000000000000E+000                                                        
   19.5700000000000       0.000000000000000E+000  0.000000000000000E+000        
  0.000000000000000E+000  0.000000000000000E+000  0.000000000000000E+000        
  0.000000000000000E+000   1.00000000000000       0.000000000000000E+000        
  0.000000000000000E+000                                                        
   53.0730000000000       0.000000000000000E+000  0.000000000000000E+000        
  0.000000000000000E+000  0.000000000000000E+000  0.000000000000000E+000        
  0.000000000000000E+000  0.000000000000000E+000   1.00000000000000             
  0.000000000000000E+000                                                        
  4.145000000000000E-002  0.000000000000000E+000  0.000000000000000E+000        
  0.000000000000000E+000  0.000000000000000E+000  0.000000000000000E+000        
  0.000000000000000E+000  0.000000000000000E+000  0.000000000000000E+000        
   1.00000000000000                                                             
   10    8                                                                      
   34.5100000000000       5.378000000000000E-003  0.000000000000000E+000        
  0.000000000000000E+000  0.000000000000000E+000  0.000000000000000E+000        
  0.000000000000000E+000  0.000000000000000E+000  0.000000000000000E+000        
   7.91500000000000       3.613200000000000E-002  0.000000000000000E+000        
  0.000000000000000E+000  0.000000000000000E+000  0.000000000000000E+000        
  0.000000000000000E+000  0.000000000000000E+000  0.000000000000000E+000        
   2.36800000000000       0.142493000000000       0.000000000000000E+000        
  0.000000000000000E+000  0.000000000000000E+000  0.000000000000000E+000        
  0.000000000000000E+000  0.000000000000000E+000  0.000000000000000E+000        
  0.813200000000000       0.342150000000000        1.00000000000000             
  0.000000000000000E+000  0.000000000000000E+000  0.000000000000000E+000        
  0.000000000000000E+000  0.000000000000000E+000  0.000000000000000E+000        
  0.289000000000000       0.463864000000000       0.000000000000000E+000        
   1.00000000000000       0.000000000000000E+000  0.000000000000000E+000        
  0.000000000000000E+000  0.000000000000000E+000  0.000000000000000E+000        
  0.100700000000000       0.250028000000000       0.000000000000000E+000        
  0.000000000000000E+000   1.00000000000000       0.000000000000000E+000        
  0.000000000000000E+000  0.000000000000000E+000  0.000000000000000E+000        
   8.18200000000000       0.000000000000000E+000  0.000000000000000E+000        
  0.000000000000000E+000  0.000000000000000E+000   1.00000000000000             
  0.000000000000000E+000  0.000000000000000E+000  0.000000000000000E+000        
   24.1860000000000       0.000000000000000E+000  0.000000000000000E+000        
  0.000000000000000E+000  0.000000000000000E+000  0.000000000000000E+000        
   1.00000000000000       0.000000000000000E+000  0.000000000000000E+000        
   71.4940000000000       0.000000000000000E+000  0.000000000000000E+000        
  0.000000000000000E+000  0.000000000000000E+000  0.000000000000000E+000        
  0.000000000000000E+000   1.00000000000000       0.000000000000000E+000        
  3.218000000000000E-002  0.000000000000000E+000  0.000000000000000E+000        
  0.000000000000000E+000  0.000000000000000E+000  0.000000000000000E+000        
  0.000000000000000E+000  0.000000000000000E+000   1.00000000000000             
    6    6                                                                      
   1.84800000000000        1.00000000000000       0.000000000000000E+000        
  0.000000000000000E+000  0.000000000000000E+000  0.000000000000000E+000        
  0.000000000000000E+000                                                        
  0.649000000000000       0.000000000000000E+000   1.00000000000000             
  0.000000000000000E+000  0.000000000000000E+000  0.000000000000000E+000        
  0.000000000000000E+000                                                        
  0.228000000000000       0.000000000000000E+000  0.000000000000000E+000        
   1.00000000000000       0.000000000000000E+000  0.000000000000000E+000        
  0.000000000000000E+000                                                        
   8.65600000000000       0.000000000000000E+000  0.000000000000000E+000        
  0.000000000000000E+000   1.00000000000000       0.000000000000000E+000        
  0.000000000000000E+000                                                        
   33.2130000000000       0.000000000000000E+000  0.000000000000000E+000        
  0.000000000000000E+000  0.000000000000000E+000   1.00000000000000             
  0.000000000000000E+000                                                        
  7.660000000000000E-002  0.000000000000000E+000  0.000000000000000E+000        
  0.000000000000000E+000  0.000000000000000E+000  0.000000000000000E+000        
   1.00000000000000                                                             
    4    4                                                                      
   1.41900000000000        1.00000000000000       0.000000000000000E+000        
  0.000000000000000E+000  0.000000000000000E+000                                
  0.485000000000000       0.000000000000000E+000   1.00000000000000             
  0.000000000000000E+000  0.000000000000000E+000                                
   24.6940000000000       0.000000000000000E+000  0.000000000000000E+000        
   1.00000000000000       0.000000000000000E+000                                
  0.187000000000000       0.000000000000000E+000  0.000000000000000E+000        
  0.000000000000000E+000   1.00000000000000                                     
    2    2                                                                      
   1.01100000000000        1.00000000000000       0.000000000000000E+000        
  0.424000000000000       0.000000000000000E+000   1.00000000000000             
          8.00000000    1    5    1    1    1    1    1                         
O #2   0.000000000000000   0.000000000000000  -1.282081827016138                
   16    9                                                                      
   61420.0000000000       9.000000000000001E-005 -2.000000000000000E-005        
  0.000000000000000E+000  0.000000000000000E+000  0.000000000000000E+000        
  0.000000000000000E+000  0.000000000000000E+000  0.000000000000000E+000        
  0.000000000000000E+000                                                        
   9199.00000000000       6.980000000000001E-004 -1.590000000000000E-004        
  0.000000000000000E+000  0.000000000000000E+000  0.000000000000000E+000        
  0.000000000000000E+000  0.000000000000000E+000  0.000000000000000E+000        
  0.000000000000000E+000                                                        
   2091.00000000000       3.664000000000000E-003 -8.290000000000000E-004        
  0.000000000000000E+000  0.000000000000000E+000  0.000000000000000E+000        
  0.000000000000000E+000  0.000000000000000E+000  0.000000000000000E+000        
  0.000000000000000E+000                                                        
   590.900000000000       1.521800000000000E-002 -3.508000000000000E-003        
  0.000000000000000E+000  0.000000000000000E+000  0.000000000000000E+000        
  0.000000000000000E+000  0.000000000000000E+000  0.000000000000000E+000        
  0.000000000000000E+000                                                        
   192.300000000000       5.242300000000000E-002 -1.215600000000000E-002        
  0.000000000000000E+000  0.000000000000000E+000  0.000000000000000E+000        
  0.000000000000000E+000  0.000000000000000E+000  0.000000000000000E+000        
  0.000000000000000E+000                                                        
   69.3200000000000       0.145921000000000      -3.626100000000000E-002        
  0.000000000000000E+000  0.000000000000000E+000  0.000000000000000E+000        
  0.000000000000000E+000  0.000000000000000E+000  0.000000000000000E+000        
  0.000000000000000E+000                                                        
   26.9700000000000       0.305258000000000      -8.299200000000000E-002        
  0.000000000000000E+000  0.000000000000000E+000  0.000000000000000E+000        
  0.000000000000000E+000  0.000000000000000E+000  0.000000000000000E+000        
  0.000000000000000E+000                                                        
   11.1000000000000       0.398508000000000      -0.152090000000000             
  0.000000000000000E+000  0.000000000000000E+000  0.000000000000000E+000        
  0.000000000000000E+000  0.000000000000000E+000  0.000000000000000E+000        
  0.000000000000000E+000                                                        
   4.68200000000000       0.216980000000000      -0.115331000000000             
  0.000000000000000E+000  0.000000000000000E+000  0.000000000000000E+000        
  0.000000000000000E+000  0.000000000000000E+000  0.000000000000000E+000        
  0.000000000000000E+000                                                        
   1.42800000000000       1.759400000000000E-002  0.288979000000000             
   1.00000000000000       0.000000000000000E+000  0.000000000000000E+000        
  0.000000000000000E+000  0.000000000000000E+000  0.000000000000000E+000        
  0.000000000000000E+000                                                        
  0.554700000000000      -2.502000000000000E-003  0.586128000000000             
  0.000000000000000E+000   1.00000000000000       0.000000000000000E+000        
  0.000000000000000E+000  0.000000000000000E+000  0.000000000000000E+000        
  0.000000000000000E+000                                                        
  0.206700000000000       9.540000000000000E-004  0.277624000000000             
  0.000000000000000E+000  0.000000000000000E+000   1.00000000000000             
  0.000000000000000E+000  0.000000000000000E+000  0.000000000000000E+000        
  0.000000000000000E+000                                                        
   12.9740000000000       0.000000000000000E+000  0.000000000000000E+000        
  0.000000000000000E+000  0.000000000000000E+000  0.000000000000000E+000        
   1.00000000000000       0.000000000000000E+000  0.000000000000000E+000        
  0.000000000000000E+000                                                        
   34.9000000000000       0.000000000000000E+000  0.000000000000000E+000        
  0.000000000000000E+000  0.000000000000000E+000  0.000000000000000E+000        
  0.000000000000000E+000   1.00000000000000       0.000000000000000E+000        
  0.000000000000000E+000                                                        
   93.8810000000000       0.000000000000000E+000  0.000000000000000E+000        
  0.000000000000000E+000  0.000000000000000E+000  0.000000000000000E+000        
  0.000000000000000E+000  0.000000000000000E+000   1.00000000000000             
  0.000000000000000E+000                                                        
  6.959000000000000E-002  0.000000000000000E+000  0.000000000000000E+000        
  0.000000000000000E+000  0.000000000000000E+000  0.000000000000000E+000        
  0.000000000000000E+000  0.000000000000000E+000  0.000000000000000E+000        
   1.00000000000000                                                             
   10    8                                                                      
   63.4200000000000       6.044000000000000E-003  0.000000000000000E+000        
  0.000000000000000E+000  0.000000000000000E+000  0.000000000000000E+000        
  0.000000000000000E+000  0.000000000000000E+000  0.000000000000000E+000        
   14.6600000000000       4.179900000000000E-002  0.000000000000000E+000        
  0.000000000000000E+000  0.000000000000000E+000  0.000000000000000E+000        
  0.000000000000000E+000  0.000000000000000E+000  0.000000000000000E+000        
   4.45900000000000       0.161143000000000       0.000000000000000E+000        
  0.000000000000000E+000  0.000000000000000E+000  0.000000000000000E+000        
  0.000000000000000E+000  0.000000000000000E+000  0.000000000000000E+000        
   1.53100000000000       0.356731000000000        1.00000000000000             
  0.000000000000000E+000  0.000000000000000E+000  0.000000000000000E+000        
  0.000000000000000E+000  0.000000000000000E+000  0.000000000000000E+000        
  0.530200000000000       0.448309000000000       0.000000000000000E+000        
   1.00000000000000       0.000000000000000E+000  0.000000000000000E+000        
  0.000000000000000E+000  0.000000000000000E+000  0.000000000000000E+000        
  0.175000000000000       0.244940000000000       0.000000000000000E+000        
  0.000000000000000E+000   1.00000000000000       0.000000000000000E+000        
  0.000000000000000E+000  0.000000000000000E+000  0.000000000000000E+000        
   14.4750000000000       0.000000000000000E+000  0.000000000000000E+000        
  0.000000000000000E+000  0.000000000000000E+000   1.00000000000000             
  0.000000000000000E+000  0.000000000000000E+000  0.000000000000000E+000        
   42.7300000000000       0.000000000000000E+000  0.000000000000000E+000        
  0.000000000000000E+000  0.000000000000000E+000  0.000000000000000E+000        
   1.00000000000000       0.000000000000000E+000  0.000000000000000E+000        
   126.140000000000       0.000000000000000E+000  0.000000000000000E+000        
  0.000000000000000E+000  0.000000000000000E+000  0.000000000000000E+000        
  0.000000000000000E+000   1.00000000000000       0.000000000000000E+000        
  5.348000000000000E-002  0.000000000000000E+000  0.000000000000000E+000        
  0.000000000000000E+000  0.000000000000000E+000  0.000000000000000E+000        
  0.000000000000000E+000  0.000000000000000E+000   1.00000000000000             
    6    6                                                                      
   3.77500000000000        1.00000000000000       0.000000000000000E+000        
  0.000000000000000E+000  0.000000000000000E+000  0.000000000000000E+000        
  0.000000000000000E+000                                                        
   1.30000000000000       0.000000000000000E+000   1.00000000000000             
  0.000000000000000E+000  0.000000000000000E+000  0.000000000000000E+000        
  0.000000000000000E+000                                                        
  0.444000000000000       0.000000000000000E+000  0.000000000000000E+000        
   1.00000000000000       0.000000000000000E+000  0.000000000000000E+000        
  0.000000000000000E+000                                                        
   14.9270000000000       0.000000000000000E+000  0.000000000000000E+000        
  0.000000000000000E+000   1.00000000000000       0.000000000000000E+000        
  0.000000000000000E+000                                                        
   57.5440000000000       0.000000000000000E+000  0.000000000000000E+000        
  0.000000000000000E+000  0.000000000000000E+000   1.00000000000000             
  0.000000000000000E+000                                                        
  0.154000000000000       0.000000000000000E+000  0.000000000000000E+000        
  0.000000000000000E+000  0.000000000000000E+000  0.000000000000000E+000        
   1.00000000000000                                                             
    4    4                                                                      
   2.66600000000000        1.00000000000000       0.000000000000000E+000        
  0.000000000000000E+000  0.000000000000000E+000                                
  0.859000000000000       0.000000000000000E+000   1.00000000000000             
  0.000000000000000E+000  0.000000000000000E+000                                
   26.4830000000000       0.000000000000000E+000  0.000000000000000E+000        
   1.00000000000000       0.000000000000000E+000                                
  0.324000000000000       0.000000000000000E+000  0.000000000000000E+000        
  0.000000000000000E+000   1.00000000000000                                     
    2    2                                                                      
   1.84600000000000        1.00000000000000       0.000000000000000E+000        
  0.714000000000000       0.000000000000000E+000   1.00000000000000             
FINISH                                                                          
 
********************************************************************************
 ONE- AND TWO-ELECTRON INTEGRALS OVER SYMMETRY-ADAPTED AOS ARE CALCULATED.

  SPHERICAL HARMONICS ARE USED.
  
  INTEGRALS LESS THAN  0.10E-13 ARE NEGLECTED.

  NUCLEAR REPULSION ENERGY :   16.0482466928 A.U.
  @MOLECU-I, ONE ELECTRON INTEGRALS (CPU/WALL):        0.06/       0.06 SECONDS.
  @TWOEL-I,    4439032 INTEGRALS OF SYMMETRY TYPE  I I I I
  @TWOEL-I,   19151585 INTEGRALS OF SYMMETRY TYPE  I J I J
  @TWOEL-I,   10083574 INTEGRALS OF SYMMETRY TYPE  I I J J
  @TWOEL-I,   14156000 INTEGRALS OF SYMMETRY TYPE  I J K L
  @TWOEL-I, TOTAL NUMBER OF 2-E INTEGRALS   47830191.
  @MOLECU-I, TWO ELECTRON INTEGRALS (CPU/WALL):      160.89/      24.42 SECONDS.
 @CHECKOUT-I, Total execution time (CPU/WALL):      160.97/      24.53 seconds.

Running with 14 threads/proc

--executable xvmol finished with status     0 in       24.57 seconds (walltime).
 --invoking executable--
/nfs/workspaces/public/cfour_mpi/bin/xvmol2ja
 @GETMEM-I,  Allocated    3814 MB of main memory.
 @CHECKOUT-I, Total execution time (CPU/WALL):        0.14/       0.04 seconds.
--executable xvmol2ja finished with status     0 in        0.08 seconds (walltime).
 --invoking executable--
/nfs/workspaces/public/cfour_mpi/bin/xvprop
 @GETMEM-I,  Allocated    3814 MB of main memory.
   Property integrals will be calculated.
    --------------------------------------------------------------
                                   Property evaluated at 
    Property type                X             Y             Z
    --------------------------------------------------------------
    Dipole moment               ----          ----          ----  
    Quadrupole moment           ----          ----          ----  
    Octopole moment             ----          ----          ----  
    Relativisitic corr.         ----          ----          ----  
    Second moment            0.0000000     0.0000000     0.0000000
    Electron density         0.0000000     0.0000000     1.7088991
    Electron density         0.0000000     0.0000000    -1.2820818
    Field gradient           0.0000000     0.0000000     1.7088991
    Field gradient           0.0000000     0.0000000    -1.2820818
    Potential                0.0000000     0.0000000     1.7088991
    Potential                0.0000000     0.0000000    -1.2820818
    --------------------------------------------------------------
 @CHECKOUT-I, Total execution time (CPU/WALL):        1.29/       1.31 seconds.
--executable xvprop finished with status     0 in        1.34 seconds (walltime).
 --invoking executable--
/nfs/workspaces/public/cfour_mpi/bin/xvscf
  There are  218 functions in the AO basis.

  There are 4 irreducible representations.

       Irrep        # of functions
         1                 86
         2                 52
         3                 52
         4                 28


  Parameters for SCF calculation: 
        SCF reference function:  RHF  
  Maximum number of iterations:  150
     Full symmetry point group: CXv 
     Computational point group: C2v 
        Initial density matrix: MOREAD                 
     SCF convergence tolerance: 10**(-10)
  DIIS convergence acceleration:  ON
          Latest start for DIIS:   8
                     DIIS order:   6

  Memory information:    2523578 words required.
  Fock matrices are constructed from AO integral file.
 @GETMEM-I,  Allocated      19 MB of main memory.
  Initialization and symmetry analysis required      0.002 seconds.

  Adding electric field perturbation to one-electron Hamiltonian.
  Field direction     : Z
  Field strength      : -0.0002000 a.u.

  @INITGES-I, Occupancies from core Hamiltonian:

          Alpha population by irrep:   5    1    1    0
           Beta population by irrep:   5    1    1    0


 total no. of electrons in initial guess :  0.000000000000000E+000
  --------------------------------------------------------------------
  Iteration         Total Energy            Largest Density Difference
  --------------------------------------------------------------------
       0            16.048246040824409              0.0000000000D+00
   current occupation vector 
     5  1  1  0
     5  1  1  0
       1           -93.567377959791173              0.1754659633D+02
   current occupation vector 
     5  1  1  0
     5  1  1  0
       2           -98.047542003116590              0.1754657916D+02
   current occupation vector 
     5  1  1  0
     5  1  1  0
       3          -100.524828773802184              0.6606116738D+01
   current occupation vector 
     5  1  1  0
     5  1  1  0
       4           -95.473569231811737              0.6601042655D+01
   current occupation vector 
     5  1  1  0
     5  1  1  0
       5          -100.344991343223228              0.6941979431D+01
   current occupation vector 
     5  1  1  0
     5  1  1  0
       6           -95.214282147101827              0.6942516856D+01
   current occupation vector 
     5  1  1  0
     5  1  1  0
       7          -100.332757506924793              0.6961569816D+01
   current occupation vector 
     5  1  1  0
     5  1  1  0
       8           -95.205767364674131              0.6961611286D+01
   current occupation vector 
     5  1  1  0
     5  1  1  0
       9          -107.474541612686465              0.5797296632D+01
   current occupation vector 
     5  1  1  0
     5  1  1  0
      10          -110.437766178297693              0.1308129213D+01
   current occupation vector 
     5  1  1  0
     5  1  1  0
      11          -112.388531176404655              0.1101003744D+01
   current occupation vector 
     5  1  1  0
     5  1  1  0
      12          -112.527312854268331              0.4821686803D+00
   current occupation vector 
     5  1  1  0
     5  1  1  0
      13          -112.539815922999878              0.1263287701D+00
   current occupation vector 
     5  1  1  0
     5  1  1  0
      14          -112.543756857515319              0.7526672093D-01
   current occupation vector 
     5  1  1  0
     5  1  1  0
      15          -112.544034796240084              0.2059576278D-01
   current occupation vector 
     5  1  1  0
     5  1  1  0
      16          -112.544252508696871              0.2684210620D-01
   current occupation vector 
     5  1  1  0
     5  1  1  0
      17          -112.544331330992691              0.1879104505D-01
   current occupation vector 
     5  1  1  0
     5  1  1  0
      18          -112.544346680586415              0.1079948582D-01
   current occupation vector 
     5  1  1  0
     5  1  1  0
      19          -112.544346813344362              0.9430087789D-03
   current occupation vector 
     5  1  1  0
     5  1  1  0
      20          -112.544346814289668              0.4432369287D-04
   current occupation vector 
     5  1  1  0
     5  1  1  0
      21          -112.544346814362200              0.1129678915D-04
   current occupation vector 
     5  1  1  0
     5  1  1  0
      22          -112.544346814362399              0.1782824016D-05
   current occupation vector 
     5  1  1  0
     5  1  1  0
      23          -112.544346814362427              0.4500684994D-06
   current occupation vector 
     5  1  1  0
     5  1  1  0
      24          -112.544346814362001              0.1832442327D-06
   current occupation vector 
     5  1  1  0
     5  1  1  0
      25          -112.544346814360409              0.5041219464D-07
   current occupation vector 
     5  1  1  0
     5  1  1  0
      26          -112.544346814362115              0.1048498977D-07
   current occupation vector 
     5  1  1  0
     5  1  1  0
      27          -112.544346814364019              0.4482504368D-08
   current occupation vector 
     5  1  1  0
     5  1  1  0
      28          -112.544346814363394              0.7691522974D-09
   current occupation vector 
     5  1  1  0
     5  1  1  0

  SCF has converged.

 Density matrix saved to file den.dat
 total electron number:   14.0000000000002     
     E(SCF)=      -112.544346814362939              0.8306066945D-10

  Eigenvector printing suppressed.

 @PUTMOS-I, Writing converged MOs to NEWMOS. 
 @PUTMOS-I, Symmetry   1 Full Blocks 21 Partial Blocksize   2
 @PUTMOS-I, Symmetry   2 Full Blocks 13 Partial Blocksize   0
 @PUTMOS-I, Symmetry   3 Full Blocks 13 Partial Blocksize   0
 @PUTMOS-I, Symmetry   4 Full Blocks  7 Partial Blocksize   0
 @PUTFOCK-I, Writing converged Fock matrix to NEWFOCK. 
 @PUTFOCK-I, Symmetry   1 Full Blocks 21 Partial Blocksize   2
 @PUTFOCK-I, Symmetry   2 Full Blocks 13 Partial Blocksize   0
 @PUTFOCK-I, Symmetry   3 Full Blocks 13 Partial Blocksize   0
 @PUTFOCK-I, Symmetry   4 Full Blocks  7 Partial Blocksize   0


 
  ORBITAL EIGENVALUES (ALPHA)  (1H = 27.2113834 eV)

       MO #        E(hartree)               E(eV)           FULLSYM    COMPSYM
       ----   --------------------   --------------------   -------   ---------
    1     1         -20.6471187376        -561.8366640748     SG+        A1 (1)
    2     2         -11.5189184875        -313.4457073168     SG+        A1 (1)
    3     3          -1.2831610794         -34.9165880969     SG+        A1 (1)
    4     4          -0.8039066111         -21.8754110131     SG+        A1 (1)
    5     5          -0.5342997709         -14.5390359168     SG+        A1 (1)
    6    87          -0.5006576868         -13.6235882689      PI        B1 (2)
    7   139          -0.5006576868         -13.6235882689      PI        B2 (3)
  +++++++++++++++++++++++++++++++++++++++++++++++++++++++++++++++++++++++++++++
    8   140          -0.0039334351          -0.1070342102      PI        B2 (3)
    9    88          -0.0039334351          -0.1070342102      PI        B1 (2)
   10     6           0.0594144044           1.6167481383     SG+        A1 (1)
   11     7           0.0690041498           1.8776983758     SG+        A1 (1)
   12   141           0.0817641285           2.2249150494      PI        B2 (3)
   13    89           0.0817641285           2.2249150494      PI        B1 (2)
   14     8           0.1574197499           4.2836091680     SG+        A1 (1)
   15   142           0.1795364547           4.8854353037      PI        B2 (3)
   16    90           0.1795364547           4.8854353037      PI        B1 (2)
   17     9           0.2012914148           5.4774178632     SG+        A1 (1)
   18    10           0.2219285315           6.0389823587      DE        A1 (1)
   19   191           0.2219285315           6.0389823587      DE        A2 (4)
   20   143           0.2855029175           7.7689293506      PI        B2 (3)
   21    91           0.2855029175           7.7689293506      PI        B1 (2)
   22    11           0.3009010110           8.1879327751     SG+        A1 (1)
   23    12           0.3160141378           8.5991818638     SG+        A1 (1)
   24   144           0.4044897918          11.0067268073      PI        B2 (3)
   25    92           0.4044897918          11.0067268073      PI        B1 (2)
   26    13           0.4220229537          11.4838283954     SG+        A1 (1)
   27    14           0.5135461035          13.9742999170     SG+        A1 (1)
   28    15           0.5499510742          14.9649295319      DE        A1 (1)
   29   192           0.5499510742          14.9649295319      DE        A2 (4)
   30   145           0.6234714761          16.9655213747      PI        B2 (3)
   31    93           0.6234714761          16.9655213747      PI        B1 (2)
   32    16           0.7061853984          19.2162816287     SG+        A1 (1)
   33   146           0.7318723386          19.9152588050      PH        B2 (3)
   34    94           0.7318723386          19.9152588051      PH        B1 (2)
   35   193           0.7392160906          20.1150924560      DE        A2 (4)
   36    17           0.7392160906          20.1150924560      DE        A1 (1)
   37   147           0.7769235564          21.1411647652      PI        B2 (3)
   38    95           0.7769235564          21.1411647652      PI        B1 (2)
   39    18           0.8196005277          22.3024641954     SG+        A1 (1)
   40   194           0.8600310945          23.4026358472      DE        A2 (4)
   41    19           0.8600310945          23.4026358472      DE        A1 (1)
   42    20           0.8835847565          24.0435635747     SG+        A1 (1)
   43   148           0.8854113234          24.0932669872      PI        B2 (3)
   44    96           0.8854113234          24.0932669872      PI        B1 (2)
   45   149           1.0389350069          28.2708587994      PI        B2 (3)
   46    97           1.0389350069          28.2708587995      PI        B1 (2)
   47    21           1.1321364612          30.8069993061     SG+        A1 (1)
   48    22           1.3630728616          37.0910982386     SG+        A1 (1)
   49    98           1.4213219414          38.6761362823      PH        B1 (2)
   50   150           1.4213219414          38.6761362823      PH        B2 (3)
   51    99           1.4922816984          40.6070494350      PI        B1 (2)
   52   151           1.4922816984          40.6070494350      PI        B2 (3)
   53    23           1.5841142430          43.1059400153      DE        A1 (1)
   54   195           1.5841142430          43.1059400153      DE        A2 (4)
   55    24           1.5927938944          43.3421253389     SG+        A1 (1)
   56   100           1.6385123642          44.5861881486      PI        B1 (2)
   57   152           1.6385123642          44.5861881486      PI        B2 (3)
   58   196           1.6792388535          45.6944122621      DE        A2 (4)
   59    25           1.6792388535          45.6944122621      DE        A1 (1)
   60    26           1.9184838750          52.2046002685     SG+        A1 (1)
   61    27           1.9546127164          53.1877160233     SG+        A1 (1)
   62   197           2.0684903823          56.2864848531      PI        A2 (4)
   63    28           2.0684903823          56.2864848531      PI        A1 (1)
   64   153           2.0735919499          56.4253055648      PI        B2 (3)
   65   101           2.0735919499          56.4253055648      PI        B1 (2)
   66    29           2.1268859504          57.8755090437      DE        A1 (1)
   67   198           2.1268859504          57.8755090437      DE        A2 (4)
   68   154           2.2040398195          59.9749725559      PH        B2 (3)
   69   102           2.2040398195          59.9749725559      PH        B1 (2)
   70   155           2.2125887397          60.2076005033      PH        B2 (3)
   71   103           2.2125887397          60.2076005033      PH        B1 (2)
   72    30           2.2222080103          60.4693541626     SG+        A1 (1)
   73   104           2.2249813983          60.5448218869      PI        B1 (2)
   74   156           2.2249813983          60.5448218869      PI        B2 (3)
   75   199           2.2850457225          62.1792552409      DE        A2 (4)
   76    31           2.2850457225          62.1792552409      DE        A1 (1)
   77    32           2.4019170082          65.3594846049     SG+        A1 (1)
   78   157           2.5103986830          68.3114210501      PI        B2 (3)
   79   105           2.5103986830          68.3114210501      PI        B1 (2)
   80   106           2.5943343674          70.5954271378      PI        B1 (2)
   81   158           2.5943343674          70.5954271378      PI        B2 (3)
   82    33           2.6323464117          71.6297874491     SG+        A1 (1)
   83    34           2.6449658095          71.9731787227      DE        A1 (1)
   84   200           2.6449658095          71.9731787228      DE        A2 (4)
   85    35           2.9376815536          79.9383790623     SG+        A1 (1)
   86   107           3.3960932399          92.4123952135      PI        B1 (2)
   87   159           3.3960932399          92.4123952135      PI        B2 (3)
   88   201           3.7085051078         100.9135543303      PI        A2 (4)
   89    36           3.7085051078         100.9135543303      PI        A1 (1)
   90    37           3.8955024496         106.0020106920     SG+        A1 (1)
   91   160           3.9183613815         106.6240338526      PH        B2 (3)
   92   108           3.9183613815         106.6240338526      PH        B1 (2)
   93    38           4.1242554657         112.2266967176     SG+        A1 (1)
   94   109           4.1383241161         112.6095241570      PH        B1 (2)
   95   161           4.1383241161         112.6095241570      PH        B2 (3)
   96   110           4.1566697901         113.1087353259      PI        B1 (2)
   97   162           4.1566697901         113.1087353259      PI        B2 (3)
   98   202           4.1839354414         113.8506714158      DE        A2 (4)
   99    39           4.1839354414         113.8506714158      DE        A1 (1)
  100   203           4.2922080937         116.7969200695      DE        A2 (4)
  101    40           4.2922080937         116.7969200695      DE        A1 (1)
  102    41           4.4070646694         119.9223263882     SG+        A1 (1)
  103   163           4.5375768365         123.4737430039      PI        B2 (3)
  104   111           4.5375768365         123.4737430039      PI        B1 (2)
  105    42           4.6814600169         127.3890033920      DE        A1 (1)
  106   204           4.6814600169         127.3890033921      DE        A2 (4)
  107    43           4.7748030979         129.9289977572     SG+        A1 (1)
  108   112           5.1582127506         140.3621048144      PI        B1 (2)
  109   164           5.1582127506         140.3621048144      PI        B2 (3)
  110    44           5.2254998691         142.1930803956     SG+        A1 (1)
  111   113           5.3439502160         145.4162781986      PI        B1 (2)
  112   165           5.3439502160         145.4162781987      PI        B2 (3)
  113   205           5.8279045479         158.5853450708      PI        A2 (4)
  114    45           5.8279045479         158.5853450708      PI        A1 (1)
  115   166           5.8998987270         160.5444062816      PH        B2 (3)
  116   114           5.8998987270         160.5444062816      PH        B1 (2)
  117    46           6.0411023531         164.3867522881     SG+        A1 (1)
  118    47           6.1019031148         166.0412251253      DE        A1 (1)
  119   206           6.1019031148         166.0412251253      DE        A2 (4)
  120   167           6.1298605645         166.8019860100      PI        B2 (3)
  121   115           6.1298605645         166.8019860100      PI        B1 (2)
  122    48           6.1853867663         168.3129307761     SG+        A1 (1)
  123    49           6.3156948004         171.8587926501      DE        A1 (1)
  124   207           6.3156948004         171.8587926501      DE        A2 (4)
  125   168           6.3545824537         172.9169794957      PH        B2 (3)
  126   116           6.3545824537         172.9169794957      PH        B1 (2)
  127    50           6.4886539302         176.5652498456      DE        A1 (1)
  128   208           6.4886539302         176.5652498456      DE        A2 (4)
  129   117           6.7895586617         184.7532838614      PI        B1 (2)
  130   169           6.7895586617         184.7532838614      PI        B2 (3)
  131    51           7.0951967815         193.0701199208     SG+        A1 (1)
  132   118           7.2575466024         197.4878831422      PI        B1 (2)
  133   170           7.2575466024         197.4878831422      PI        B2 (3)
  134    52           7.8211895027         212.8253862032     SG+        A1 (1)
  135    53           9.5593952564         260.1243693947     SG+        A1 (1)
  136   119           9.7336125715         264.8650635509      PI        B1 (2)
  137   171           9.7336125715         264.8650635510      PI        B2 (3)
  138   209          10.6544406258         289.9220687810      PI        A2 (4)
  139    54          10.6544406258         289.9220687810      PI        A1 (1)
  140    55          10.6834891299         290.7125187625     SG+        A1 (1)
  141   172          10.7371203106         292.1718973829      PH        B2 (3)
  142   120          10.7371203106         292.1718973829      PH        B1 (2)
  143   210          10.9630485147         298.3197163669      DE        A2 (4)
  144    56          10.9630485147         298.3197163669      DE        A1 (1)
  145   121          10.9760248539         298.6728205083      PI        B1 (2)
  146   173          10.9760248539         298.6728205083      PI        B2 (3)
  147    57          11.1610318463         303.7071167079     SG+        A1 (1)
  148   174          11.8915942256         323.5867297093      PH        B2 (3)
  149   122          11.8915942256         323.5867297093      PH        B1 (2)
  150    58          11.9919586355         326.3177841486      DE        A1 (1)
  151   211          11.9919586356         326.3177841489      DE        A2 (4)
  152   123          12.3554308297         336.2083653781      PI        B1 (2)
  153   175          12.3554308297         336.2083653781      PI        B2 (3)
  154    59          12.5910683780         342.6203890489     SG+        A1 (1)
  155    60          12.7282741219         346.3539471506      DE        A1 (1)
  156   212          12.7282741219         346.3539471506      DE        A2 (4)
  157   124          13.1042510182         356.5847986267      PI        B1 (2)
  158   176          13.1042510182         356.5847986267      PI        B2 (3)
  159    61          13.5175932100         367.8324114821     SG+        A1 (1)
  160    62          17.3464374626         472.0205604189     SG+        A1 (1)
  161   125          18.7230171571         509.4791982675      PI        B1 (2)
  162   177          18.7230171571         509.4791982676      PI        B2 (3)
  163    63          19.6790786087         535.4949529793     SG+        A1 (1)
  164    64          26.2593140025         714.5522611431      DE        A1 (1)
  165   213          26.2593140025         714.5522611431      DE        A2 (4)
  166   126          26.5604289205         722.7460146230      PI        B1 (2)
  167   178          26.5604289205         722.7460146231      PI        B2 (3)
  168    65          27.0286177893         735.4860814358     SG+        A1 (1)
  169   127          33.4308723500         909.7002849125      PI        B1 (2)
  170   179          33.4308723500         909.7002849126      PI        B2 (3)
  171    66          34.3174317838         933.8247935721     SG+        A1 (1)
  172    67          35.5888924796         968.4229980449     SG+        A1 (1)
  173    68          47.0732352441        1280.9278521059      DE        A1 (1)
  174   214          47.0732352441        1280.9278521059      DE        A2 (4)
  175   180          47.2616641154        1286.0552623665      PI        B2 (3)
  176   128          47.2616641154        1286.0552623665      PI        B1 (2)
  177    69          47.5004728178        1292.5535775262     SG+        A1 (1)
  178    70          63.7671844175        1735.1933035222     SG+        A1 (1)
  179   129          66.3067691362        1804.2989169803      PI        B1 (2)
  180   181          66.3067691362        1804.2989169803      PI        B2 (3)
  181    71          67.0083942382        1823.3911066353     SG+        A1 (1)
  182   182          98.5103063304        2680.6017144081      PH        B2 (3)
  183   130          98.5103063304        2680.6017144082      PH        B1 (2)
  184   215          98.5239572680        2680.9731753058      DE        A2 (4)
  185    72          98.5239572680        2680.9731753059      DE        A1 (1)
  186   131          98.5370593408        2681.3297008316      PI        B1 (2)
  187   183          98.5370593408        2681.3297008317      PI        B2 (3)
  188    73          98.5474409800        2681.6121995954     SG+        A1 (1)
  189   132         103.3100933822        2811.2105601134      PH        B1 (2)
  190   184         103.3100933822        2811.2105601134      PH        B2 (3)
  191    74         103.3103844969        2811.2184817455      DE        A1 (1)
  192   216         103.3103844970        2811.2184817498      DE        A2 (4)
  193   133         103.3374574518        2811.9551743010      PI        B1 (2)
  194   185         103.3374574518        2811.9551743010      PI        B2 (3)
  195    75         103.3449806668        2812.1598913904     SG+        A1 (1)
  196    76         114.9619775646        3128.2744479317      DE        A1 (1)
  197   217         114.9619775646        3128.2744479317      DE        A2 (4)
  198   186         115.1081675076        3132.2524785208      PI        B2 (3)
  199   134         115.1081675076        3132.2524785208      PI        B1 (2)
  200    77         115.3295289943        3138.2760308045     SG+        A1 (1)
  201   135         116.7338440282        3176.4893856062      PI        B1 (2)
  202   187         116.7338440282        3176.4893856064      PI        B2 (3)
  203    78         117.4506974819        3195.9959597784     SG+        A1 (1)
  204    79         121.8646734279        3316.1063515630     SG+        A1 (1)
  205    80         198.5548216612        5402.9513781419      DE        A1 (1)
  206   218         198.5548216612        5402.9513781420      DE        A2 (4)
  207   188         198.6576047446        5405.7482480311      PI        B2 (3)
  208   136         198.6576047446        5405.7482480311      PI        B1 (2)
  209    81         198.7801890915        5409.0839376933     SG+        A1 (1)
  210    82         216.2916695768        5885.5955470810     SG+        A1 (1)
  211   189         224.7880496389        6116.7938024622      PI        B2 (3)
  212   137         224.7880496389        6116.7938024623      PI        B1 (2)
  213    83         225.3404221635        6131.8246230080     SG+        A1 (1)
  214   138         395.2619414482       10755.6242321740      PI        B1 (2)
  215   190         395.2619414482       10755.6242321741      PI        B2 (3)
  216    84         395.8270478943       10771.0015603413     SG+        A1 (1)
  217    85         508.5962495431       13839.6075421195     SG+        A1 (1)
  218    86         895.1068026242       24357.0943901559     SG+        A1 (1)


  VSCF finished.

 @CHECKOUT-I, Total execution time (CPU/WALL):       47.86/       8.32 seconds.
--executable xvscf finished with status     0 in        8.36 seconds (walltime).
 --invoking executable--
/nfs/workspaces/public/cfour_mpi/bin/xvtran
 @GETMEM-I,  Allocated    3814 MB of main memory.
  Full RHF integral transformation
  Transformation of IIII integrals :
  1 pass through the AO integral file was required.
     4439032 AO integrals were read.
     8616042 MO integrals were written to HF2.
  Transformation of IIJJ integrals :
  1 pass through the AO integral file was required.
    10083574 AO integrals were read.
    14369101 MO integrals were written to HF2.
  Transformation of IJIJ integrals :
  1 pass through the AO integral file was required.
    19151585 AO integrals were read.
    26687698 MO integrals were written to HF2.
  Transformation of IJKL integrals :
  1 pass through the AO integral file was required.
    14156000 AO integrals were read.
    18107418 MO integrals were written to HF2.
  Summary of active molecular orbitals: 
------------------------------------------------------------------------
 
  Index      Eigenvalue    Symmetry    Index      Eigenvalue    Symmetry
------------------------------------------------------------------------
     1       -20.6471187        1       110         4.1383241        2
     2       -11.5189185        1       111         4.1566698        2
     3        -1.2831611        1       112         4.5375768        2
     4        -0.8039066        1       113         5.1582128        2
     5        -0.5342998        1       114         5.3439502        2
     6        -0.5006577        2       115         5.8998987        2
     7        -0.5006577        3       116         6.1298606        2
     8         0.0594144        1       117         6.3545825        2
     9         0.0690041        1       118         6.7895587        2
    10         0.1574197        1       119         7.2575466        2
    11         0.2012914        1       120         9.7336126        2
    12         0.2219285        1       121        10.7371203        2
    13         0.3009010        1       122        10.9760249        2
    14         0.3160141        1       123        11.8915942        2
    15         0.4220230        1       124        12.3554308        2
    16         0.5135461        1       125        13.1042510        2
    17         0.5499511        1       126        18.7230172        2
    18         0.7061854        1       127        26.5604289        2
    19         0.7392161        1       128        33.4308724        2
    20         0.8196005        1       129        47.2616641        2
    21         0.8600311        1       130        66.3067691        2
    22         0.8835848        1       131        98.5103063        2
    23         1.1321365        1       132        98.5370593        2
    24         1.3630729        1       133       103.3100934        2
    25         1.5841142        1       134       103.3374575        2
    26         1.5927939        1       135       115.1081675        2
    27         1.6792389        1       136       116.7338440        2
    28         1.9184839        1       137       198.6576047        2
    29         1.9546127        1       138       224.7880496        2
    30         2.0684904        1       139       395.2619414        2
    31         2.1268860        1       140        -0.0039334        3
    32         2.2222080        1       141         0.0817641        3
    33         2.2850457        1       142         0.1795365        3
    34         2.4019170        1       143         0.2855029        3
    35         2.6323464        1       144         0.4044898        3
    36         2.6449658        1       145         0.6234715        3
    37         2.9376816        1       146         0.7318723        3
    38         3.7085051        1       147         0.7769236        3
    39         3.8955024        1       148         0.8854113        3
    40         4.1242555        1       149         1.0389350        3
    41         4.1839354        1       150         1.4213219        3
    42         4.2922081        1       151         1.4922817        3
    43         4.4070647        1       152         1.6385124        3
    44         4.6814600        1       153         2.0735919        3
    45         4.7748031        1       154         2.2040398        3
    46         5.2254999        1       155         2.2125887        3
    47         5.8279045        1       156         2.2249814        3
    48         6.0411024        1       157         2.5103987        3
    49         6.1019031        1       158         2.5943344        3
    50         6.1853868        1       159         3.3960932        3
    51         6.3156948        1       160         3.9183614        3
    52         6.4886539        1       161         4.1383241        3
    53         7.0951968        1       162         4.1566698        3
    54         7.8211895        1       163         4.5375768        3
    55         9.5593953        1       164         5.1582128        3
    56        10.6544406        1       165         5.3439502        3
    57        10.6834891        1       166         5.8998987        3
    58        10.9630485        1       167         6.1298606        3
    59        11.1610318        1       168         6.3545825        3
    60        11.9919586        1       169         6.7895587        3
    61        12.5910684        1       170         7.2575466        3
    62        12.7282741        1       171         9.7336126        3
    63        13.5175932        1       172        10.7371203        3
    64        17.3464375        1       173        10.9760249        3
    65        19.6790786        1       174        11.8915942        3
    66        26.2593140        1       175        12.3554308        3
    67        27.0286178        1       176        13.1042510        3
    68        34.3174318        1       177        18.7230172        3
    69        35.5888925        1       178        26.5604289        3
    70        47.0732352        1       179        33.4308724        3
    71        47.5004728        1       180        47.2616641        3
    72        63.7671844        1       181        66.3067691        3
    73        67.0083942        1       182        98.5103063        3
    74        98.5239573        1       183        98.5370593        3
    75        98.5474410        1       184       103.3100934        3
    76       103.3103845        1       185       103.3374575        3
    77       103.3449807        1       186       115.1081675        3
    78       114.9619776        1       187       116.7338440        3
    79       115.3295290        1       188       198.6576047        3
    80       117.4506975        1       189       224.7880496        3
    81       121.8646734        1       190       395.2619414        3
    82       198.5548217        1       191         0.2219285        4
    83       198.7801891        1       192         0.5499511        4
    84       216.2916696        1       193         0.7392161        4
    85       225.3404222        1       194         0.8600311        4
    86       395.8270479        1       195         1.5841142        4
    87       508.5962495        1       196         1.6792389        4
    88       895.1068026        1       197         2.0684904        4
    89        -0.0039334        2       198         2.1268860        4
    90         0.0817641        2       199         2.2850457        4
    91         0.1795365        2       200         2.6449658        4
    92         0.2855029        2       201         3.7085051        4
    93         0.4044898        2       202         4.1839354        4
    94         0.6234715        2       203         4.2922081        4
    95         0.7318723        2       204         4.6814600        4
    96         0.7769236        2       205         5.8279045        4
    97         0.8854113        2       206         6.1019031        4
    98         1.0389350        2       207         6.3156948        4
    99         1.4213219        2       208         6.4886539        4
   100         1.4922817        2       209        10.6544406        4
   101         1.6385124        2       210        10.9630485        4
   102         2.0735919        2       211        11.9919586        4
   103         2.2040398        2       212        12.7282741        4
   104         2.2125887        2       213        26.2593140        4
   105         2.2249814        2       214        47.0732352        4
   106         2.5103987        2       215        98.5239573        4
   107         2.5943344        2       216       103.3103845        4
   108         3.3960932        2       217       114.9619776        4
   109         3.9183614        2       218       198.5548217        4
------------------------------------------------------------------------
  -20.6471187376218       -11.5189184875040       -1.28316107944998     
 -0.803906611125977      -0.534299770910905      -0.500657686844114     
 -0.500657686844109       5.941440442536355E-002  6.900414977843243E-002
  0.157419749852505       0.201291414799602       0.221928531524831     
  0.300901010975522       0.316014137811619       0.422022953650792     
  0.513546103540474       0.549951074223079       0.706185398448217     
  0.739216090572787       0.819600527746606       0.860031094456020     
  0.883584756471727        1.13213646117239        1.36307286158128     
   1.58411424298562        1.59279389444243        1.67923885347682     
   1.91848387496742        1.95461271635516        2.06849038234290     
   2.12688595037468        2.22220801029149        2.28504572248060     
   2.40191700819193        2.63234641165192        2.64496580951978     
   2.93768155360787        3.70850510784086        3.89550244961021     
   4.12425546573334        4.18393544136255        4.29220809367127     
   4.40706466942015        4.68146001691461        4.77480309792615     
   5.22549986913117        5.82790454787503        6.04110235307212     
   6.10190311475669        6.18538676633926        6.31569480036343     
   6.48865393023739        7.09519678153521        7.82118950274235     
   9.55939525642431        10.6544406257949        10.6834891298656     
   10.9630485147227        11.1610318462511        11.9919586355409     
[...]
 Convergence information after    13 iterations: 
 Largest element of residual vector : -0.19122657E-05.
 Largest element of DIIS residual   : -0.14939746E-05.
 Convergence information after    14 iterations: 
 Largest element of residual vector : -0.96028086E-06.
 Largest element of DIIS residual   : -0.86507731E-06.
 Convergence information after    15 iterations: 
 Largest element of residual vector : -0.40501975E-06.
 Largest element of DIIS residual   : -0.28469761E-06.
 Convergence information after    16 iterations: 
 Largest element of residual vector : -0.26079237E-06.
 Largest element of DIIS residual   : -0.14611257E-06.
 Convergence information after    17 iterations: 
 Largest element of residual vector : -0.12357509E-06.
 Largest element of DIIS residual   : -0.79719311E-07.
 Perturbed amplitude equations converged in    17 iterations.
  Dominant contributions to perturbed wavefunction:
    7    7  140   45  -0.2349430491 ABAB
    7    7   45  140  -0.2349430491 ABAB
    7    7  140   22  -0.2168798821 ABAB
    7    7   22  140  -0.2168798821 ABAB
    7    7  140   39  -0.2048335196 ABAB
    7    7   39  140  -0.2048335196 ABAB
    7    7  140   28   0.1900770134 ABAB
    7    7   28  140   0.1900770134 ABAB
    7    0   35    0   0.1749815737 AA  
    7    7  140   29  -0.1611850942 ABAB
    7    7   29  140  -0.1611850942 ABAB
    7    7  140   57  -0.1601777689 ABAB
    7    7   57  140  -0.1601777689 ABAB
    7    6   45   89  -0.1466317407 ABAB
    6    7   89   45  -0.1466317407 ABAB
    7    0   39    0   0.1436130465 AA  
    7    7  140   32  -0.1429440171 ABAB
    7    7   32  140  -0.1429440171 ABAB
    7    0   45    0   0.1425778952 AA  
    7    7  140   54   0.1411909638 ABAB
  norm of converged amps    1.67411753755144     
 Starting iterative solution of the perturbed Lambda equations.
 The DIIS procedure is used to accelerate convergence.
 Convergence criterion is 10**(-7).
 Maximum number of iterations is 100.
 Convergence information after     1 iterations: 
 Largest element of residual vector :  0.78090615E-01.
 Largest element of DIIS residual   :  0.78090615E-01.
 Convergence information after     2 iterations: 
 Largest element of residual vector :  0.16426071E-01.
 Largest element of DIIS residual   :  0.12385487E-01.
 Convergence information after     3 iterations: 
 Largest element of residual vector :  0.65872122E-02.
 Largest element of DIIS residual   : -0.62478416E-02.
 Convergence information after     4 iterations: 
 Largest element of residual vector : -0.37901679E-02.
 Largest element of DIIS residual   : -0.34354289E-02.
 Convergence information after     5 iterations: 
 Largest element of residual vector : -0.32645193E-02.
 Largest element of DIIS residual   : -0.25911260E-02.
 Convergence information after     6 iterations: 
 Largest element of residual vector : -0.16903785E-02.
 Largest element of DIIS residual   : -0.75017248E-03.
 Convergence information after     7 iterations: 
 Largest element of residual vector : -0.78182595E-03.
 Largest element of DIIS residual   : -0.37958282E-03.
 Convergence information after     8 iterations: 
 Largest element of residual vector : -0.27205481E-03.
 Largest element of DIIS residual   : -0.17446065E-03.
 Convergence information after     9 iterations: 
 Largest element of residual vector : -0.11634307E-03.
 Largest element of DIIS residual   : -0.59277426E-04.
 Convergence information after    10 iterations: 
 Largest element of residual vector : -0.52914844E-04.
 Largest element of DIIS residual   : -0.24212164E-04.
 Convergence information after    11 iterations: 
 Largest element of residual vector : -0.11461818E-04.
 Largest element of DIIS residual   : -0.56634920E-05.
 Convergence information after    12 iterations: 
 Largest element of residual vector : -0.34524902E-05.
 Largest element of DIIS residual   : -0.21300525E-05.
 Convergence information after    13 iterations: 
 Largest element of residual vector : -0.16932909E-05.
 Largest element of DIIS residual   : -0.14672976E-05.
 Convergence information after    14 iterations: 
 Largest element of residual vector : -0.68782115E-06.
 Largest element of DIIS residual   : -0.56352137E-06.
 Convergence information after    15 iterations: 
 Largest element of residual vector : -0.41018869E-06.
 Largest element of DIIS residual   : -0.19342374E-06.
 Convergence information after    16 iterations: 
 Largest element of residual vector : -0.16006740E-06.
 Largest element of DIIS residual   : -0.98621428E-07.
 Perturbed Lambda equations converged in    16 iterations.
  Dominant contributions to perturbed wavefunction:
    7    7  140   45  -0.1940708656 ABAB
    7    7   45  140  -0.1940708656 ABAB
    7    7  140   22  -0.1786271479 ABAB
    7    7   22  140  -0.1786271479 ABAB
    7    7  140   39  -0.1673669635 ABAB
    7    7   39  140  -0.1673669635 ABAB
    7    7  140   28   0.1593175946 ABAB
    7    7   28  140   0.1593175946 ABAB
    7    7  140   57  -0.1312388368 ABAB
    7    7   57  140  -0.1312388368 ABAB
    7    7  140   29  -0.1298413019 ABAB
    7    7   29  140  -0.1298413019 ABAB
    7    6   45   89  -0.1198290312 ABAB
    6    7   89   45  -0.1198290312 ABAB
    7    7  140   32  -0.1182904602 ABAB
    7    7   32  140  -0.1182904602 ABAB
    7    7  140   54   0.1167434433 ABAB
    7    7   54  140   0.1167434433 ABAB
    7    6   22   89  -0.1094498778 ABAB
    6    7   89   22  -0.1094498778 ABAB
        The DBOC first-order density matrix is being calculated 
             (Symmetry block 3, perturbation   2)
 term   2.94877833817588     
 final tnorm  0.797378633370958     
  norm contr. I: |<0|L dT/dx|0>|^2   0.000000000000000E+000
  norm contr. II: <0|[nabla(1+L)e-T][nabla e^T]|0>   2.94877833817588     
  total norm contribution   2.94877833817588     
 oo  9.223028092778267E-003
 vv  -22.0685766064932     
 vo  6.553916810750023E-002
  Correlated perturbed 1-el contribution to DBOC  -21.9938144102929       cm**-1
  SUM_I |dc_I/dx|^2 contribution to DBOC   11.1012941398650       cm**-1
 
 
  The total diagonal Born-Oppenheimer correction (DBOC) is:      0.0041411644 a.u.
  The total diagonal Born-Oppenheimer correction (DBOC) is:        908.880539 cm-1
 
 Total CC energy including DBOC  -113.086393491967     
 First-order density matrix is being calculated  (Symmetry block 3, perturbation   2)
 Calculation of the contributions of <pq||rs> to dI(i,j)/dx required   4.6 seconds.
 Calculation of the contributions of <pq||rs> to dI(a,b)/dx required  14.0 seconds.
 Calculation of the contributions of <pq||rs> to dI(i,a)/dx required   7.3 seconds.
 First-order Z-vector equations are solved for 1 perturbation.
 Convergence reached after  19 iterations.
        U*G(pq,rs) contribution is being calculated
             (Symmetry block 3, perturbation   2)

 CCSD contribution to force constants 

        0.0000000000        0.0000000000        0.0000000000
        0.0000000000        0.0000000000        0.0000000000
        0.0000000000        0.0000000000        0.0000000000
        0.0000000000        0.0000000000        0.0000000000
        0.0000000000        0.0000000000        0.0000000000
        0.0000000000        0.0000000000        0.0000000000
        0.0000000000        0.0000000000        0.0000000000
        0.0000000000        0.0000000000        0.0000000000
        0.0000000000        0.0000000000        0.0000000000
        0.0000000000        0.0000000000        0.0000000000
        0.0000000000        0.0000000000        0.0000000000
        0.0000000000       -4.1655222872        4.1655222872

 CCSD contribution to dipole derivatives 

        0.0000000000        0.0000000000        0.0000000000
        0.0000000000        0.0000000000        0.0000000000
        0.0000000000        0.0000000000        0.0000000000
        0.0000000000        0.0000000000       -0.0572836884
        0.0000000000        0.0000000000        0.0000000000
        0.0000000000        0.0000000000        0.0000000000
 @CHECKOUT-I, Total execution time (CPU/WALL):     1126.33/    1071.20 seconds.
--executable xsdcc finished with status     0 in     1071.61 seconds (walltime).
 --invoking executable--
/nfs/workspaces/public/cfour_mpi/bin/xanti
 @GETMEM-I,  Allocated    3814 MB of main memory.
 CCSD MO derivative gammas will be sorted to Mulliken order.
 @CHECKOUT-I, Total execution time (CPU/WALL):       10.89/      40.91 seconds.
--executable xanti finished with status     0 in       41.06 seconds (walltime).
 --invoking executable--
/nfs/workspaces/public/cfour_mpi/bin/xbcktrn
 @GETMEM-I,  Allocated    3814 MB of main memory.
 CCSD MO derivative gammas will be transformed to the AO basis.
 @CHECKOUT-I, Total execution time (CPU/WALL):       21.65/      11.33 seconds.
--executable xbcktrn finished with status     0 in       11.42 seconds (walltime).
 --invoking executable--
/nfs/workspaces/public/cfour_mpi/bin/xvdint
 @GETMEM-I,  Allocated    3814 MB of main memory.
 One- and two-electron integral derivatives are calculated
 for RHF-CC/MBPT hessians and dipole derivatives.
 Spherical gaussians are used.
  magnet F F
                    8722  records have been written to the Sort file.
  Total length of Sort file :             178609116  words.
 Evaluation of 2el integral derivatives

                      Two-electron integral gradient
                      ------------------------------

                         C #1 z     0.0000000000
                         O #2 z     0.0000000000


 C #1       0.0000000000            0.0679724771            0.0000000000
 O #2       0.0000000000           -0.0679724771            0.0000000000


 Evaluation of 2e integral derivatives required  408.34 seconds.
  contribution to Hessian
        0.0000000000        0.0000000000        0.0000000000
        0.0000000000        0.0679724771       -0.0679724771
 @CHECKOUT-I, Total execution time (CPU/WALL):      408.33/     234.64 seconds.
--executable xvdint finished with status     0 in      235.04 seconds (walltime).
 --invoking executable--
/nfs/workspaces/public/cfour_mpi/bin/xanti
 @GETMEM-I,  Allocated    3814 MB of main memory.
 CCSD MO gammas will be sorted to Mulliken order.
 @CHECKOUT-I, Total execution time (CPU/WALL):       14.71/      88.39 seconds.
--executable xanti finished with status     0 in       88.55 seconds (walltime).
 --invoking executable--
/nfs/workspaces/public/cfour_mpi/bin/xbcktrn
 @GETMEM-I,  Allocated    3814 MB of main memory.
 CCSD MO gammas will be transformed to the AO basis.
 @CHECKOUT-I, Total execution time (CPU/WALL):       73.72/      36.44 seconds.
--executable xbcktrn finished with status     0 in       36.52 seconds (walltime).
 --invoking executable--
/nfs/workspaces/public/cfour_mpi/bin/xvdint
 @GETMEM-I,  Allocated    3814 MB of main memory.
 One- and two-electron integral derivatives are calculated
 for RHF-CC/MBPT hessians and dipole derivatives.
 Spherical gaussians are used.
  magnet F F

                     Kinetic energy integral gradient
                     --------------------------------

                         C #1 z    -0.5480857761
                         O #2 z     0.5480857761


 C #1       0.0000000000            0.0000000000           -0.5480857761
 O #2       0.0000000000            0.0000000000            0.5480857761



                   Nuclear attraction integral gradient
                   ------------------------------------

                         C #1 z    13.9170435431
                         O #2 z   -13.9170435431


 C #1       0.0000000000            0.0000000000           13.9170435431
 O #2       0.0000000000            0.0000000000          -13.9170435431



                      Reorthonormalization gradient
                      -----------------------------

                         C #1 z     0.0000000000
                         O #2 z     0.0000000000


 C #1       0.0000000000            0.0000000000            0.0000000000
 O #2       0.0000000000            0.0000000000            0.0000000000



                     Kinetic energy integral Hessian
                     -------------------------------


           Symmetry 1

           C #1 z      O #2 z

 C #1 z    0.575609
 O #2 z   -0.575609    0.575609


           Symmetry 2

           C #1 x      O #2 x

 C #1 x   -0.423442
 O #2 x    0.423442   -0.423442


           Symmetry 3

           C #1 y      O #2 y

 C #1 y   -0.423442
 O #2 y    0.423442   -0.423442




           C #1 x      C #1 y      C #1 z      O #2 x      O #2 y      O #2 z

 C #1 x   -0.423442
 C #1 y    0.000000   -0.423442
 C #1 z    0.000000    0.000000    0.575609

 O #2 x    0.423442    0.000000    0.000000   -0.423442
 O #2 y    0.000000    0.423442    0.000000    0.000000   -0.423442
 O #2 z    0.000000    0.000000   -0.575609    0.000000    0.000000    0.575609




                   Nuclear attraction integral Hessian
                   -----------------------------------


           Symmetry 1

           C #1 z      O #2 z

 C #1 z   -8.477171
 O #2 z    8.477171   -8.477171


           Symmetry 2

           C #1 x      O #2 x

 C #1 x    7.533258
 O #2 x   -7.533258    7.533258


           Symmetry 3

           C #1 y      O #2 y

 C #1 y    7.533258
 O #2 y   -7.533258    7.533258




           C #1 x      C #1 y      C #1 z      O #2 x      O #2 y      O #2 z

 C #1 x    7.533258
 C #1 y    0.000000    7.533258
 C #1 z    0.000000    0.000000   -8.477171

 O #2 x   -7.533258    0.000000    0.000000    7.533258
 O #2 y    0.000000   -7.533258    0.000000    0.000000    7.533258
 O #2 z    0.000000    0.000000    8.477171    0.000000    0.000000   -8.477171




                Highest order reorthonormalization Hessian
                ------------------------------------------


           Symmetry 1

           C #1 z      O #2 z

 C #1 z    0.000000
 O #2 z    0.000000    0.000000


           Symmetry 2

           C #1 x      O #2 x

 C #1 x    0.000000
 O #2 x    0.000000    0.000000


           Symmetry 3

           C #1 y      O #2 y

 C #1 y    0.000000
 O #2 y    0.000000    0.000000




           C #1 x      C #1 y      C #1 z      O #2 x      O #2 y      O #2 z




                Electronic contributions to dipole moment
                -----------------------------------------

                               au             Debye

                    z      0.46512407      1.18222768

  Conversion factor used: 1 a.u. =   2.54174691 Debye 



   Electronic contributions to static part of dipole moment derivatives
   --------------------------------------------------------------------


                     Total dipole moment derivatives
                     -------------------------------


           Symmetry 1
                              Ez

               C #1 z    -5.65522824
               O #2 z    -8.34477176

           Symmetry 2
                              Ex

               C #1 x    -5.67413456
               O #2 x    -8.32586544

           Symmetry 3
                              Ey

               C #1 y    -5.67413456
               O #2 y    -8.32586544



                       Ex          Ey          Ez

      C #1    x   -5.674135    0.000000    0.000000
      C #1    y    0.000000   -5.674135    0.000000
      C #1    z    0.000000    0.000000   -5.655228

      O #2    x   -8.325865    0.000000    0.000000
      O #2    y    0.000000   -8.325865    0.000000
      O #2    z    0.000000    0.000000   -8.344772

 Evaluation of 1e integral derivatives required    0.82 seconds.
                    8815  records have been written to the Sort file.
  Total length of Sort file :             180513570  words.
 Evaluation of 2el integral derivatives

                      Two-electron integral gradient
                      ------------------------------

                         C #1 z    -7.4098210099
                         O #2 z     7.4098210099


 C #1       0.0000000000            0.0000000000           -7.4098210099
 O #2       0.0000000000            0.0000000000            7.4098210099


 Evaluation of 2e integral derivatives required  678.70 seconds.

                            Molecular gradient
                            ------------------

                         C #1 z     0.5935904672
                         O #2 z    -0.5935904672


 C #1       0.0000000000            0.0000000000            0.5935904672
 O #2       0.0000000000            0.0000000000           -0.5935904672


  Molecular gradient norm 0.839E+00

                            Molecular hessian
                            -----------------


           Symmetry 1

           C #1 z      O #2 z

 C #1 z   16.607836
 O #2 z  -16.607836   16.607836


           Symmetry 2

           C #1 x      O #2 x

 C #1 x    4.351877
 O #2 x   -4.351877    4.351877


           Symmetry 3

           C #1 y      O #2 y

 C #1 y    4.351877
 O #2 y   -4.351877    4.351877




           C #1 x      C #1 y      C #1 z      O #2 x      O #2 y      O #2 z

 C #1 x    4.351877
 C #1 y    0.000000    4.351877
 C #1 z    0.000000    0.000000   16.607836

 O #2 x   -4.351877    0.000000    0.000000    4.351877
 O #2 y    0.000000   -4.351877    0.000000    0.000000    4.351877
 O #2 z    0.000000    0.000000  -16.607836    0.000000    0.000000   16.607836




                           Total dipole moment
                           -------------------

                               au             Debye

                    z      0.46186414      1.17394176

  Conversion factor used: 1 a.u. =   2.54174691 Debye 



                     Total dipole moment derivatives
                     -------------------------------


           Symmetry 1
                              Ez

               C #1 z     0.58682200
               O #2 z    -0.58682200

           Symmetry 2
                              Ex

               C #1 x     0.16291347
               O #2 x    -0.16291347

           Symmetry 3
                              Ey

               C #1 y     0.16291347
               O #2 y    -0.16291347



                       Ex          Ey          Ez

      C #1    x    0.162913    0.000000    0.000000
      C #1    y    0.000000    0.162913    0.000000
      C #1    z    0.000000    0.000000    0.586822

      O #2    x   -0.162913    0.000000    0.000000
      O #2    y    0.000000   -0.162913    0.000000
      O #2    z    0.000000    0.000000   -0.586822

 @CHECKOUT-I, Total execution time (CPU/WALL):      679.52/     450.65 seconds.
--executable xvdint finished with status     0 in      451.10 seconds (walltime).
 --invoking executable--
/nfs/workspaces/public/cfour_mpi/bin/xjoda
  @GTFLGS-I, Hessian will be transformed to curvilinear coordinates.
  @GTFLGS-I, Hessian will be transformed to curvilinear coordinates.
  igrd and ihes are                      0                     1
  gradient from JOBARC 
   0.000000000000000   0.000000000000000   0.593590467152271
   0.000000000000000   0.000000000000000  -0.593590467152271
 
  @PROJFCM-I, Projecting force constant matrix onto totally symmetric subspace.
  Largest difference between matrix elements of symmetrized
  and unsymmetrized FCM :    -0.1225686219E-11.
  read isotopes from ZMAT file 
 
  Summary of diagonal Born-Oppenheimer correction at the correlated level
  The total diagonal Born-Oppenheimer correction (DBOC) is:      0.0041411644 a.u.
  The total diagonal Born-Oppenheimer correction (DBOC) is:        908.880539 cm-1
  The total diagonal Born-Oppenheimer correction (DBOC) is:            10.873 kJ/mole
  hellooooooo 
  readis is  F
 
 @CHECKOUT-I, Total execution time (CPU/WALL):        0.01/       0.14 seconds.
--executable xjoda finished with status     0 in        0.30 seconds (walltime).
  The final electronic energy is      -113.086393491966959 a.u. 
  This computation required                         5617.42 seconds (walltime).
