 --invoking executable--
/nfs/workspaces/public/cfour_mpi/bin/xjoda


   *************************************************************************
         <<<     CCCCCC     CCCCCC   |||     CCCCCC     CCCCCC   >>>
       <<<      CCC        CCC       |||    CCC        CCC         >>>
      <<<      CCC        CCC        |||   CCC        CCC            >>>
    <<<        CCC        CCC        |||   CCC        CCC              >>>
      <<<      CCC        CCC        |||   CCC        CCC            >>>
       <<<      CCC        CCC       |||    CCC        CCC         >>>
         <<<     CCCCCC     CCCCCC   |||     CCCCCC     CCCCCC   >>>
   *************************************************************************

     ****************************************************************
     * CFOUR Coupled-Cluster techniques for Computational Chemistry *
     ****************************************************************
 

   Department of Chemistry                Institut fuer Physikalische Chemie
   University of Florida                  Universitaet Mainz
   Gainesville, FL 32611, USA             D-55099 Mainz, Germany

   Department of Chemistry                Fakultaet fuer Chemie und Biowiss.
   Johns Hopkins University               Karlsruher Institut fuer Technologie
   Baltimore, MD 21218, USA               D-76131 Karlsruhe, Germany

   Department of Chemistry                Department of Physical Chemistry
   Southern Methodist University          Eotvos Lorand University
   Dallas, TX 75275, USA                  H-1053 Budapest, Hungary

 
                       Version 2.1
 
                     vincent.theory.phys.ucl.ac.uk                     
                     Tue 25 Feb 16:33:48 GMT 2025                      
                     integer*8 version is running
 
********************************************************************************
*                          Input from ZMAT file                                *
********************************************************************************
Carbon Monoxide DBOC calculation                                                
C                                                                               
O 1 r                                                                           
                                                                                
r=1.4896551724137932                                                            
                                                                                
                                                                                
*CFOUR(CALC=CCSD,BASIS=AUG-PCVQZ,SCF_CONV=10                                    
CC_CONV=14,DBOC=ON,MEMORY=500000000                                             
ZFIELD=-200)                                                                    
                                                                                
%isotopes                                                                       
12                                                                              
16                                                                              
********************************************************************************
  @GTFLGS-I, Hessian will be transformed to curvilinear coordinates.
    -------------------------------------------------------------------
                    CFOUR Control Parameters 
    -------------------------------------------------------------------
        External           Internal           Value            Units
          Name               Name
    -------------------------------------------------------------------
       ABCDTYPE             IABCDT         STANDARD    [  0]    ***   
       ANHARMONIC           IANHAR         OFF         [  0]    ***   
       ANH_ALGORIT          IANALG         STANDARD    [  0]    ***   
       ANH_DERIVAT          IANDER         SECOND      [  1]    ***   
       ANH_MODE             ANHMOD         VIBRATION   [  0]    ***   
       ANH_STEPSIZ          ICUBST             50000          x 10-6  
       ANH_SYMMETR          IANHSM         ABELIAN     [  0]    ***   
       AO_LADDERS           IAOLAD         SINGLEPASS  [  1]    ***   
       AV_SCF               IAVSCF         OFF         [  0]    ***   
       BASIS                IBASIS         AUG-PCVQZ   [ 52]    ***   
       BOTHVECTORS          BOTHVC         OFF         [  0]    ***   
       BOX_POTENT           IPIAB          OFF         [  0]    ***   
       BREIT                IBREIT         OFF         [  0]    ***   
       BRUCK_CONV           IBRTOL          10D-  4             ***   
       BRUECKNER            IBRKNR         OFF         [  0]    ***   
       BUFFERSIZE           IBUFFS              4096            ***   
       CACHE_RECS           ICHREC             10               ***   
       CALCLEVEL            ICLLVL         CCSD        [ 10]    ***   
       CCORBOPT             ICCORB         OFF         [  0]  x 0.01  
       CC_CONV              ICCCNV          10D- 14             ***   
       CC_EXPORDER          ICCEOR              5               ***   
       CC_EXTRAPOL          ICCEXT         DIIS        [  1]    ***   
       CC_GUESS             ICCGES         MP2         [  0]    ***   
       CC_MAXCYC            ICCCYC            100              cycles 
       CC_PROGRAM           ICCPRO         VCC         [  0]    ***   
       CHARGE               ICHRGE              0               ***   
       CHOLESKY             ICHOLE         OFF         [  0]    ***   
       CIS_CONV             ICISTL              5               ***   
       COMM_SIZE            IPSIZE            ***               ***   
       CONSTANT             ICONST         OLD         [  1]    ***   
       CONTINUUM            ICONTU         NONE        [  0]    ***   
       CONTRACTION          ICNTYP         GENERAL     [  1]    ***   
       COORDINATES          ICOORD         INTERNAL    [  0]    ***   
       CPHF_CONVER          ICPHFT          10D- 16             ***   
       CPHF_MAXCYC          ICPHFC             64              cycles 
       CUBIC                ICUBIC         OFF         [  0]    ***   
       CURVILINEAR          ICURVY         ON          [  1]    ***   
       DBOC                 IDBOC          ON          [  1]    ***   
       DCT                  IDCT           OFF         [  0]    ***   
       DERIV_LEV            IDRLVL         SECOND      [  2]    ***   
       DEVMEM_SIZE          IDVMEM          50000000           MByte  
       DIAG_MRCC            IEOMST          10D-  0             ***   
       DIFF_TYPE            IDIFTY         RELAXED     [  0]    ***   
       DIRECT               IDIRCT         OFF         [  0]    ***   
       DROPMO               IDRPMO      NONE         
       ECP                  IECP           OFF         [  0]    ***   
       EIGENVECTOR          IVEC                1               ***   
       EL_ANHARM            IELANH         OFF         [  0]    ***   
       EOMFOLLOW            IEOMSR         ENERGY      [  0]    ***   
       EOMIP                IEOMIP         OFF         [  0]    ***   
       EOMLEVEL             HBARFM         SAME        [  0]    ***   
       EOM_MRCC             IMRCCE         NEW         [  1]    ***   
       EOM_NONIT            EOMNON         OFF         [  0]    ***   
       EOM_NSING            IEOMSI          10D-  0             ***   
       EOM_NSTATES          IMRCCD         DAVIDSON    [  0]    ***   
       EOM_NTRIP            IEOMTR          10D-  0             ***   
       EOM_ORDER            IEXORD         ENERGY      [  0]    ***   
       EOM_PROPSTA          IEOMST              0               ***   
       ESTATE_CONV          IEXTOL          10D-  5             ***   
       ESTATE_DIAG          IEXDIG         ITERATIVE   [  0]    ***   
       ESTATE_LOCK          IESLOC         ON          [  1]    ***   
       ESTATE_MAXC          IEXMXC             40               ***   
       ESTATE_PROP          IEXPRP         OFF         [  0]    ***   
       EVAL_HESS            IRECAL              0            # of cyc.
       EXCITATION           IEXCIT              0               ***   
       EXCITE               IEXCIT         NONE        [  0]    ***   
       EXTERN_POT           IEXPOT         OFF         [  0]    ***   
       FCGRADNEW            IFCGNW         OFF         [  0]    ***   
       FC_FIELD             IFINFC              0             x 10-6  
       FD_CALTYPE           IFDCAL         GRADONLY    [  0]    ***   
       FD_PROJECT           IFDPRJ         OFF         [  1]    ***   
       FD_STEPSIZE          IDISFD              0            10-4 bohr
       FD_USEGROUP          IFDGRP         FULL        [  0]    ***   
       FILE_RECSIZ          IFLREC              4096           words  
       FINITE_PERT          IFIPER              0             x 10-6  
       FIXGEOM              IFIXGM         OFF         [  0]    ***   
       FOCK                 IFOCK          AO          [  1]    ***   
       FREQ_ALGORI          IVIALG         STANDARD    [  0]    ***   
       FROZEN_CORE          IFROCO         OFF         [  0]    ***   
       GAMMA_ABCD           IGABCD         STORE       [  0]    ***   
       GAMMA_ABCI           IGABCI         STORE       [  0]    ***   
       GENBAS_1             IGNBS1              0               ***   
       GENBAS_2             IGNBS2              0               ***   
       GENBAS_3             IGNBS3              0               ***   
       GENBAS_4             IGNBS4              0               ***   
       GEO_CONV             ICONTL              5              H/bohr 
       GEO_MAXCYC           IOPTCY             50               ***   
       GEO_MAXSTEP          IMXSTP            300            millibohr
       GEO_METHOD           INR            SINGLE_POINT[  5]    ***   
       GIAO                 IGIAO          OFF         [  1]    ***   
       GIMIC                IGIMIC         OFF         [  0]    ***   
       GRID                 IGRID          OFF         [  0]    ***   
       GRID_ALGO            IGALGO         SERIAL      [  0]    ***   
       GUESS                IGUESS         MOREAD      [  0]    ***   
       HBAR                 IHBAR          OFF         [  0]    ***   
       HESS_TYPE            IHESTP         SCF         [  0]    ***   
       HF2_FILE             IHF2Fl         USE         [  1]    ***   
       HFSTABILITY          ISTABL         OFF         [  0]    ***   
       INCORE               INCORE         OFF         [  0]    ***   
       INPUT_MRCC           IMRCC          ON          [  1]    ***   
       INTEGRALS            INTTYP         VMOL        [  1]    ***   
       JODA_PRINT           IJPRNT              0               ***   
       KEYWORD_OUT          IDMPKW         NO          [  0]    ***   
       LINDEP_TOL           ILINDP              8               ***   
       LINEQ_CONV           IZTACN          10D-  7           cycles  
       LINEQ_EXPOR          ILMAXD              5               ***   
       LINEQ_MAXCY          ILMAXC            100               ***   
       LINEQ_TYPE           ILTYPE         DIIS        [  1]    ***   
       LOCK_ORBOCC          ILOCOC         OFF         [  0]    ***   
       MEMORY_SIZE          IMEMSZ         500000000           words  
       MEM_UNIT             IMEMU          INTEGERWORDS[  0]    ***   
       MRCC                 IMRCCC         OFF         [  0]    ***   
       MULTIPLICTY          IMULTP              1               ***   
       NACOUPLING           IVCOUP         OFF         [  0]    ***   
       NEGEVAL              IDIE           ABORT       [  0]    ***   
       NEWNORM              INEWNO         OFF         [  0]    ***   
       NON-HF               INONHF         OFF         [  0]    ***   
       NTOP_TAMP            ITOPT2             15               ***   
       NUC_MODEL            INUCMO         POINT       [  0]    ***   
       OCCUPATION           IOCCU   ESTIMATED BY SCF 
       OPEN-SHELL           IOPEN          SPIN-ORBITAL[  0]    ***   
       OPTVIB               IOPTVB         OFF         [  0]    ***   
       ORBITALS             IORBTP         STANDARD    [  0]    ***   
       PARALLEL             IPARAL         ON          [  1]    ***   
       PARA_INT             IPINTS         ON          [  1]    ***   
       PARA_PRINT           IPPRIN              0               ***   
       PERT_ORB             IPTORB         STANDARD    [  0]    ***   
       POINTS               IGRDFD              0               ***   
       PRINT                IPRNT               0               ***   
       PROPS                IPROPS         OFF         [  0]    ***   
       PROP_INTEGR          IINTYP         INTERNAL    [  0]    ***   
       PSI                  IPSI           OFF         [  0]    ***   
       QC_ALG               IQCALG         FLM         [  0]    ***   
       QC_LINALG            IQCLIN         TRIDIAG     [  2]    ***   
       QC_MAXCYC            IQCMAX          10D-100           cycles  
       QC_MAXSCFCY          IQCMSC          10D- 15           cycles  
       QC_RTRUST            IQCRTR          10D-  0           x 10-3  
       QC_SKIPSCF           IQCSKI         OFF         [  0]    ***   
       QC_START             IQCSTA          10D-  1             ***   
       QRHFGUESS            IQGUES         OFF         [  0]    ***   
       QUARTIC              IQUART         OFF         [  0]    ***   
       RAMAN_INT            IRAMIN         OFF         [  0]    ***   
       RAMAN_ORB            IRAMRE         UNRELAXED   [  0]    ***   
       RDO                  IRDOFM         ON          [  1]    ***   
       REDUCE_REPR          REDREP         Ir          [  0]    ***   
       REFERENCE            IREFNC         RHF         [  0]    ***   
       RELATIVIST           IRELAT         OFF         [  0]    ***   
       RELAX_DENS           IRDENS         ON          [  1]    ***   
       RESET_FLAGS          IRESET         OFF         [  0]    ***   
       RESTART_CC           ICCRES         OFF         [  0]    ***   
       ROT_EVEC             ROTVEC              0               ***   
       SAVE_INTS            ISVINT         OFF         [  0]    ***   
       SCALE_ON             ISTCRT              0               ***   
       SCF_CONV             ISCFCV          10D- 10             ***   
       SCF_DAMPING          IDAMP               0             x 10-3  
       SCF_EXPORDE          IRPPOR              6               ***   
       SCF_EXPSTAR          IRPPLS              8               ***   
       SCF_EXTRAPO          IRPP           ON          [  1]    ***   
       SCF_MAXCYC           ISCFCY            150              cycles 
       SCF_NOSTOP           ISCFST         OFF         [  0]    ***   
       SCF_PRINT            ISCFPR              0               ***   
       SCF_PROG             ISCFPR         SCF         [  0]    ***   
       SD_FIELD             IFINSD              0             x 10-6  
       SOPERT               IPERSO         OFF         [  0]    ***   
       SPHERICAL            IDFGHI         ON          [  1]    ***   
       SPINORBIT            ISOCAL         OFF         [  0]    ***   
       SPINROTATIO          ISRCON         OFF         [  0]    ***   
       SPIN_FLIP            ISPFLP         OFF         [  0]    ***   
       SPIN_ORBIT           ISPORB         OFF         [  0]    ***   
       SPIN_SCAL            ISCSMP         OFF         [  0]    ***   
       STEEPSCALE           ISTPSC              1000          x 10-3  
       SUBGROUP             ISUBGP         DEFAULT     [  0]    ***   
       SUBGRPAXIS           ISBXYZ         X           [  0]    ***   
       SYMMETRY             ISYM           ON          [  0]    ***   
       SYM_CHECK            ISYMCK         OVERRIDE    [  1]    ***   
       T3_EXTRAPOL          IT3EXT         OFF         [  0]    ***   
       T4_EXTRAPOL          IT4EXP         OFF         [  0]    ***   
       TAMP_SUM             IEVERY              5               ***   
       TESTSUITE            ITESTS         OFF         [  0]    ***   
       THERMOCH             ITHERM         OFF         [  0]    ***   
       TOL_CHOLESK          ITOLCH          10D-  4             ***   
       TRANGRAD             IRESRM         OFF         [  0]    ***   
       TRANS_INV            ITRAIN         IGNORE      [  1]    ***   
       TREAT_PERT           ITREAT         SIMULTANEOUS[  0]    ***   
       TRIP_ALGORI          ITRALG         NORMAL      [  0]    ***   
       UIJ_THRESHO          IUIJTH              1               ***   
       UNITS                IUNITS         ANGSTROM    [  0]    ***   
       UNOS                 IUNOS          OFF         [  0]    ***   
       UPDATE_HESS          IHUPDT         ON          [  1]    ***   
       VIBPHASE             ISETPH         STANDARD    [  0]    ***   
       VIBRATION            IVIB           ANALYTIC    [  1]    ***   
       VIB_ALGORIT          IGEALG         STANDARD    [  0]    ***   
       VNATORB              IVNORB         OFF         [  0]    ***   
       VTRAN                IVTRAN         FULL/PARTIAL[  0]    ***   
       XFIELD               IXEFLD              0             x 10-6  
       XFORM_TOL            IXFTOL          10D- 11             ***   
       YFIELD               IYEFLD              0             x 10-6  
       ZFIELD               IZEFLD            ***             x 10-6  
       ZSCALE_EXP           IZEXPS         OFF         [  0]    ***   
    -------------------------------------------------------------------
   2 entries found in Z-matrix 
   Job Title : Carbon Monoxide DBOC calculation                                                
   There are  1 unique internal coordinates.
   Of these,  0 will be optimized.
   User supplied Z-matrix: 
--------------------------------------------------------------------------------
       SYMBOL    BOND      LENGTH    ANGLE     ANGLE     DIHED     ANGLE
                  TO      (ANGST)    WRT      (DEG)      WRT      (DEG)
--------------------------------------------------------------------------------
        C    
        O          1         r    
                  *Initial values for internal coordinates* 
                      Name             Value
                        r               1.4896551724
--------------------------------------------------------------------------------
  read isotopes from ZMAT file 
   Rotational constants (in cm-1): 
          1.1080032449             1.1080032449
   Rotational constants (in MHz): 
      33217.1062809690         33217.1062809690
********************************************************************************
   The full molecular point group is CXv .
   The largest Abelian subgroup of the full molecular point group is C2v .
   The computational point group is C2v .
********************************************************************************
--------------------------------------------------------------------------------
   Analysis of internal coordinates specified by Z-matrix 
--------------------------------------------------------------------------------
   *The nuclear repulsion energy is   17.051262111111111 a.u.
   *There is   1 degree of freedom within the tot. symm. molecular subspace.
   *Z-matrix requests optimization of   0 coordinates.
   *The optimization is constrained.
   *The following   1 parameters can have non-zero 
    derivatives within the totally symmetric subspace:
             r    [ 1]
   *The following   0 parameters are to be optimized:

   *The following coordinates must be varied in an  unconstrained optimization.
             r    [ 1]
--------------------------------------------------------------------------------


 ----------------------------------------------------------------
         Coordinates used in calculation (QCOMP) 
 ----------------------------------------------------------------
 Z-matrix   Atomic            Coordinates (in bohr)
  Symbol    Number           X              Y              Z
 ----------------------------------------------------------------
     C         6        -0.00000000     0.00000000     1.60837564
     O         8         0.00000000     0.00000000    -1.20666525
 ----------------------------------------------------------------
 
   Interatomic distance matrix (Angstroms) 
 
                 C             O    
                [ 1]        [ 2]
  C    [ 1]     0.00000
  O    [ 2]     1.48966     0.00000
 rotcon2
   Rotational constants (in cm-1): 
          1.1080032449             0.0000000000
   Rotational constants (in MHz): 
      33217.1062809690             0.0000000000
  ECPDATA file not present.   Using default ECPDATA. 
  @GTFLGS-I, Hessian will be transformed to curvilinear coordinates.
  There are  218 basis functions.
 @CHECKOUT-I, Total execution time (CPU/WALL):        0.12/       0.15 seconds.
--executable xjoda finished with status     0 in        0.17 seconds (walltime).
 --invoking executable--
/nfs/workspaces/public/cfour_mpi/bin/xvmol
 SERIAL VERSION OF MOLECULE STARTED
********************************************************************************
                    INPUT FROM MOL FILE
********************************************************************************
INTGRL        1    0    1    0    0    0    0    0    0                         
         *** CFOUR Program System (Release V0.1) ***                            
Carbon Monoxide DBOC calculation                                                
    2    2 X  Y       0.10E-08              0    0                              
   9999.00      3.00                                                            
          6.00000000    1    5    1    1    1    1    1                         
C #1  -0.000000000000000   0.000000000000000   1.608375637003729                
   16    9                                                                      
   33980.0000000000       9.100000000000000E-005 -1.900000000000000E-005        
  0.000000000000000E+000  0.000000000000000E+000  0.000000000000000E+000        
  0.000000000000000E+000  0.000000000000000E+000  0.000000000000000E+000        
  0.000000000000000E+000                                                        
   5089.00000000000       7.040000000000000E-004 -1.510000000000000E-004        
  0.000000000000000E+000  0.000000000000000E+000  0.000000000000000E+000        
  0.000000000000000E+000  0.000000000000000E+000  0.000000000000000E+000        
  0.000000000000000E+000                                                        
   1157.00000000000       3.693000000000000E-003 -7.850000000000000E-004        
  0.000000000000000E+000  0.000000000000000E+000  0.000000000000000E+000        
  0.000000000000000E+000  0.000000000000000E+000  0.000000000000000E+000        
  0.000000000000000E+000                                                        
   326.600000000000       1.536000000000000E-002 -3.324000000000000E-003        
  0.000000000000000E+000  0.000000000000000E+000  0.000000000000000E+000        
  0.000000000000000E+000  0.000000000000000E+000  0.000000000000000E+000        
  0.000000000000000E+000                                                        
   106.100000000000       5.292900000000000E-002 -1.151200000000000E-002        
  0.000000000000000E+000  0.000000000000000E+000  0.000000000000000E+000        
  0.000000000000000E+000  0.000000000000000E+000  0.000000000000000E+000        
  0.000000000000000E+000                                                        
   38.1100000000000       0.147043000000000      -3.416000000000000E-002        
  0.000000000000000E+000  0.000000000000000E+000  0.000000000000000E+000        
  0.000000000000000E+000  0.000000000000000E+000  0.000000000000000E+000        
  0.000000000000000E+000                                                        
   14.7500000000000       0.305631000000000      -7.717300000000001E-002        
  0.000000000000000E+000  0.000000000000000E+000  0.000000000000000E+000        
  0.000000000000000E+000  0.000000000000000E+000  0.000000000000000E+000        
  0.000000000000000E+000                                                        
   6.03500000000000       0.399345000000000      -0.141493000000000             
  0.000000000000000E+000  0.000000000000000E+000  0.000000000000000E+000        
  0.000000000000000E+000  0.000000000000000E+000  0.000000000000000E+000        
  0.000000000000000E+000                                                        
   2.53000000000000       0.217051000000000      -0.118019000000000             
  0.000000000000000E+000  0.000000000000000E+000  0.000000000000000E+000        
  0.000000000000000E+000  0.000000000000000E+000  0.000000000000000E+000        
  0.000000000000000E+000                                                        
  0.735500000000000       1.589400000000000E-002  0.273806000000000             
   1.00000000000000       0.000000000000000E+000  0.000000000000000E+000        
  0.000000000000000E+000  0.000000000000000E+000  0.000000000000000E+000        
  0.000000000000000E+000                                                        
  0.290500000000000      -3.084000000000000E-003  0.586510000000000             
  0.000000000000000E+000   1.00000000000000       0.000000000000000E+000        
  0.000000000000000E+000  0.000000000000000E+000  0.000000000000000E+000        
  0.000000000000000E+000                                                        
  0.111100000000000       9.779999999999999E-004  0.285430000000000             
  0.000000000000000E+000  0.000000000000000E+000   1.00000000000000             
  0.000000000000000E+000  0.000000000000000E+000  0.000000000000000E+000        
  0.000000000000000E+000                                                        
   7.21600000000000       0.000000000000000E+000  0.000000000000000E+000        
  0.000000000000000E+000  0.000000000000000E+000  0.000000000000000E+000        
   1.00000000000000       0.000000000000000E+000  0.000000000000000E+000        
  0.000000000000000E+000                                                        
   19.5700000000000       0.000000000000000E+000  0.000000000000000E+000        
  0.000000000000000E+000  0.000000000000000E+000  0.000000000000000E+000        
  0.000000000000000E+000   1.00000000000000       0.000000000000000E+000        
  0.000000000000000E+000                                                        
   53.0730000000000       0.000000000000000E+000  0.000000000000000E+000        
  0.000000000000000E+000  0.000000000000000E+000  0.000000000000000E+000        
  0.000000000000000E+000  0.000000000000000E+000   1.00000000000000             
  0.000000000000000E+000                                                        
  4.145000000000000E-002  0.000000000000000E+000  0.000000000000000E+000        
  0.000000000000000E+000  0.000000000000000E+000  0.000000000000000E+000        
  0.000000000000000E+000  0.000000000000000E+000  0.000000000000000E+000        
   1.00000000000000                                                             
   10    8                                                                      
   34.5100000000000       5.378000000000000E-003  0.000000000000000E+000        
  0.000000000000000E+000  0.000000000000000E+000  0.000000000000000E+000        
  0.000000000000000E+000  0.000000000000000E+000  0.000000000000000E+000        
   7.91500000000000       3.613200000000000E-002  0.000000000000000E+000        
  0.000000000000000E+000  0.000000000000000E+000  0.000000000000000E+000        
  0.000000000000000E+000  0.000000000000000E+000  0.000000000000000E+000        
   2.36800000000000       0.142493000000000       0.000000000000000E+000        
  0.000000000000000E+000  0.000000000000000E+000  0.000000000000000E+000        
  0.000000000000000E+000  0.000000000000000E+000  0.000000000000000E+000        
  0.813200000000000       0.342150000000000        1.00000000000000             
  0.000000000000000E+000  0.000000000000000E+000  0.000000000000000E+000        
  0.000000000000000E+000  0.000000000000000E+000  0.000000000000000E+000        
  0.289000000000000       0.463864000000000       0.000000000000000E+000        
   1.00000000000000       0.000000000000000E+000  0.000000000000000E+000        
  0.000000000000000E+000  0.000000000000000E+000  0.000000000000000E+000        
  0.100700000000000       0.250028000000000       0.000000000000000E+000        
  0.000000000000000E+000   1.00000000000000       0.000000000000000E+000        
  0.000000000000000E+000  0.000000000000000E+000  0.000000000000000E+000        
   8.18200000000000       0.000000000000000E+000  0.000000000000000E+000        
  0.000000000000000E+000  0.000000000000000E+000   1.00000000000000             
  0.000000000000000E+000  0.000000000000000E+000  0.000000000000000E+000        
   24.1860000000000       0.000000000000000E+000  0.000000000000000E+000        
  0.000000000000000E+000  0.000000000000000E+000  0.000000000000000E+000        
   1.00000000000000       0.000000000000000E+000  0.000000000000000E+000        
   71.4940000000000       0.000000000000000E+000  0.000000000000000E+000        
  0.000000000000000E+000  0.000000000000000E+000  0.000000000000000E+000        
  0.000000000000000E+000   1.00000000000000       0.000000000000000E+000        
  3.218000000000000E-002  0.000000000000000E+000  0.000000000000000E+000        
  0.000000000000000E+000  0.000000000000000E+000  0.000000000000000E+000        
  0.000000000000000E+000  0.000000000000000E+000   1.00000000000000             
    6    6                                                                      
   1.84800000000000        1.00000000000000       0.000000000000000E+000        
  0.000000000000000E+000  0.000000000000000E+000  0.000000000000000E+000        
  0.000000000000000E+000                                                        
  0.649000000000000       0.000000000000000E+000   1.00000000000000             
  0.000000000000000E+000  0.000000000000000E+000  0.000000000000000E+000        
  0.000000000000000E+000                                                        
  0.228000000000000       0.000000000000000E+000  0.000000000000000E+000        
   1.00000000000000       0.000000000000000E+000  0.000000000000000E+000        
  0.000000000000000E+000                                                        
   8.65600000000000       0.000000000000000E+000  0.000000000000000E+000        
  0.000000000000000E+000   1.00000000000000       0.000000000000000E+000        
  0.000000000000000E+000                                                        
   33.2130000000000       0.000000000000000E+000  0.000000000000000E+000        
  0.000000000000000E+000  0.000000000000000E+000   1.00000000000000             
  0.000000000000000E+000                                                        
  7.660000000000000E-002  0.000000000000000E+000  0.000000000000000E+000        
  0.000000000000000E+000  0.000000000000000E+000  0.000000000000000E+000        
   1.00000000000000                                                             
    4    4                                                                      
   1.41900000000000        1.00000000000000       0.000000000000000E+000        
  0.000000000000000E+000  0.000000000000000E+000                                
  0.485000000000000       0.000000000000000E+000   1.00000000000000             
  0.000000000000000E+000  0.000000000000000E+000                                
   24.6940000000000       0.000000000000000E+000  0.000000000000000E+000        
   1.00000000000000       0.000000000000000E+000                                
  0.187000000000000       0.000000000000000E+000  0.000000000000000E+000        
  0.000000000000000E+000   1.00000000000000                                     
    2    2                                                                      
   1.01100000000000        1.00000000000000       0.000000000000000E+000        
  0.424000000000000       0.000000000000000E+000   1.00000000000000             
          8.00000000    1    5    1    1    1    1    1                         
O #2   0.000000000000000   0.000000000000000  -1.206665248956365                
   16    9                                                                      
   61420.0000000000       9.000000000000001E-005 -2.000000000000000E-005        
  0.000000000000000E+000  0.000000000000000E+000  0.000000000000000E+000        
  0.000000000000000E+000  0.000000000000000E+000  0.000000000000000E+000        
  0.000000000000000E+000                                                        
   9199.00000000000       6.980000000000001E-004 -1.590000000000000E-004        
  0.000000000000000E+000  0.000000000000000E+000  0.000000000000000E+000        
  0.000000000000000E+000  0.000000000000000E+000  0.000000000000000E+000        
  0.000000000000000E+000                                                        
   2091.00000000000       3.664000000000000E-003 -8.290000000000000E-004        
  0.000000000000000E+000  0.000000000000000E+000  0.000000000000000E+000        
  0.000000000000000E+000  0.000000000000000E+000  0.000000000000000E+000        
  0.000000000000000E+000                                                        
   590.900000000000       1.521800000000000E-002 -3.508000000000000E-003        
  0.000000000000000E+000  0.000000000000000E+000  0.000000000000000E+000        
  0.000000000000000E+000  0.000000000000000E+000  0.000000000000000E+000        
  0.000000000000000E+000                                                        
   192.300000000000       5.242300000000000E-002 -1.215600000000000E-002        
  0.000000000000000E+000  0.000000000000000E+000  0.000000000000000E+000        
  0.000000000000000E+000  0.000000000000000E+000  0.000000000000000E+000        
  0.000000000000000E+000                                                        
   69.3200000000000       0.145921000000000      -3.626100000000000E-002        
  0.000000000000000E+000  0.000000000000000E+000  0.000000000000000E+000        
  0.000000000000000E+000  0.000000000000000E+000  0.000000000000000E+000        
  0.000000000000000E+000                                                        
   26.9700000000000       0.305258000000000      -8.299200000000000E-002        
  0.000000000000000E+000  0.000000000000000E+000  0.000000000000000E+000        
  0.000000000000000E+000  0.000000000000000E+000  0.000000000000000E+000        
  0.000000000000000E+000                                                        
   11.1000000000000       0.398508000000000      -0.152090000000000             
  0.000000000000000E+000  0.000000000000000E+000  0.000000000000000E+000        
  0.000000000000000E+000  0.000000000000000E+000  0.000000000000000E+000        
  0.000000000000000E+000                                                        
   4.68200000000000       0.216980000000000      -0.115331000000000             
  0.000000000000000E+000  0.000000000000000E+000  0.000000000000000E+000        
  0.000000000000000E+000  0.000000000000000E+000  0.000000000000000E+000        
  0.000000000000000E+000                                                        
   1.42800000000000       1.759400000000000E-002  0.288979000000000             
   1.00000000000000       0.000000000000000E+000  0.000000000000000E+000        
  0.000000000000000E+000  0.000000000000000E+000  0.000000000000000E+000        
  0.000000000000000E+000                                                        
  0.554700000000000      -2.502000000000000E-003  0.586128000000000             
  0.000000000000000E+000   1.00000000000000       0.000000000000000E+000        
  0.000000000000000E+000  0.000000000000000E+000  0.000000000000000E+000        
  0.000000000000000E+000                                                        
  0.206700000000000       9.540000000000000E-004  0.277624000000000             
  0.000000000000000E+000  0.000000000000000E+000   1.00000000000000             
  0.000000000000000E+000  0.000000000000000E+000  0.000000000000000E+000        
  0.000000000000000E+000                                                        
   12.9740000000000       0.000000000000000E+000  0.000000000000000E+000        
  0.000000000000000E+000  0.000000000000000E+000  0.000000000000000E+000        
   1.00000000000000       0.000000000000000E+000  0.000000000000000E+000        
  0.000000000000000E+000                                                        
   34.9000000000000       0.000000000000000E+000  0.000000000000000E+000        
  0.000000000000000E+000  0.000000000000000E+000  0.000000000000000E+000        
  0.000000000000000E+000   1.00000000000000       0.000000000000000E+000        
  0.000000000000000E+000                                                        
   93.8810000000000       0.000000000000000E+000  0.000000000000000E+000        
  0.000000000000000E+000  0.000000000000000E+000  0.000000000000000E+000        
  0.000000000000000E+000  0.000000000000000E+000   1.00000000000000             
  0.000000000000000E+000                                                        
  6.959000000000000E-002  0.000000000000000E+000  0.000000000000000E+000        
  0.000000000000000E+000  0.000000000000000E+000  0.000000000000000E+000        
  0.000000000000000E+000  0.000000000000000E+000  0.000000000000000E+000        
   1.00000000000000                                                             
   10    8                                                                      
   63.4200000000000       6.044000000000000E-003  0.000000000000000E+000        
  0.000000000000000E+000  0.000000000000000E+000  0.000000000000000E+000        
  0.000000000000000E+000  0.000000000000000E+000  0.000000000000000E+000        
   14.6600000000000       4.179900000000000E-002  0.000000000000000E+000        
  0.000000000000000E+000  0.000000000000000E+000  0.000000000000000E+000        
  0.000000000000000E+000  0.000000000000000E+000  0.000000000000000E+000        
   4.45900000000000       0.161143000000000       0.000000000000000E+000        
  0.000000000000000E+000  0.000000000000000E+000  0.000000000000000E+000        
  0.000000000000000E+000  0.000000000000000E+000  0.000000000000000E+000        
   1.53100000000000       0.356731000000000        1.00000000000000             
  0.000000000000000E+000  0.000000000000000E+000  0.000000000000000E+000        
  0.000000000000000E+000  0.000000000000000E+000  0.000000000000000E+000        
  0.530200000000000       0.448309000000000       0.000000000000000E+000        
   1.00000000000000       0.000000000000000E+000  0.000000000000000E+000        
  0.000000000000000E+000  0.000000000000000E+000  0.000000000000000E+000        
  0.175000000000000       0.244940000000000       0.000000000000000E+000        
  0.000000000000000E+000   1.00000000000000       0.000000000000000E+000        
  0.000000000000000E+000  0.000000000000000E+000  0.000000000000000E+000        
   14.4750000000000       0.000000000000000E+000  0.000000000000000E+000        
  0.000000000000000E+000  0.000000000000000E+000   1.00000000000000             
  0.000000000000000E+000  0.000000000000000E+000  0.000000000000000E+000        
   42.7300000000000       0.000000000000000E+000  0.000000000000000E+000        
  0.000000000000000E+000  0.000000000000000E+000  0.000000000000000E+000        
   1.00000000000000       0.000000000000000E+000  0.000000000000000E+000        
   126.140000000000       0.000000000000000E+000  0.000000000000000E+000        
  0.000000000000000E+000  0.000000000000000E+000  0.000000000000000E+000        
  0.000000000000000E+000   1.00000000000000       0.000000000000000E+000        
  5.348000000000000E-002  0.000000000000000E+000  0.000000000000000E+000        
  0.000000000000000E+000  0.000000000000000E+000  0.000000000000000E+000        
  0.000000000000000E+000  0.000000000000000E+000   1.00000000000000             
    6    6                                                                      
   3.77500000000000        1.00000000000000       0.000000000000000E+000        
  0.000000000000000E+000  0.000000000000000E+000  0.000000000000000E+000        
  0.000000000000000E+000                                                        
   1.30000000000000       0.000000000000000E+000   1.00000000000000             
  0.000000000000000E+000  0.000000000000000E+000  0.000000000000000E+000        
  0.000000000000000E+000                                                        
  0.444000000000000       0.000000000000000E+000  0.000000000000000E+000        
   1.00000000000000       0.000000000000000E+000  0.000000000000000E+000        
  0.000000000000000E+000                                                        
   14.9270000000000       0.000000000000000E+000  0.000000000000000E+000        
  0.000000000000000E+000   1.00000000000000       0.000000000000000E+000        
  0.000000000000000E+000                                                        
   57.5440000000000       0.000000000000000E+000  0.000000000000000E+000        
  0.000000000000000E+000  0.000000000000000E+000   1.00000000000000             
  0.000000000000000E+000                                                        
  0.154000000000000       0.000000000000000E+000  0.000000000000000E+000        
  0.000000000000000E+000  0.000000000000000E+000  0.000000000000000E+000        
   1.00000000000000                                                             
    4    4                                                                      
   2.66600000000000        1.00000000000000       0.000000000000000E+000        
  0.000000000000000E+000  0.000000000000000E+000                                
  0.859000000000000       0.000000000000000E+000   1.00000000000000             
  0.000000000000000E+000  0.000000000000000E+000                                
   26.4830000000000       0.000000000000000E+000  0.000000000000000E+000        
   1.00000000000000       0.000000000000000E+000                                
  0.324000000000000       0.000000000000000E+000  0.000000000000000E+000        
  0.000000000000000E+000   1.00000000000000                                     
    2    2                                                                      
   1.84600000000000        1.00000000000000       0.000000000000000E+000        
  0.714000000000000       0.000000000000000E+000   1.00000000000000             
FINISH                                                                          
 
********************************************************************************
 ONE- AND TWO-ELECTRON INTEGRALS OVER SYMMETRY-ADAPTED AOS ARE CALCULATED.

  SPHERICAL HARMONICS ARE USED.
  
  INTEGRALS LESS THAN  0.10E-13 ARE NEGLECTED.

  NUCLEAR REPULSION ENERGY :   17.0512621111 A.U.
  @MOLECU-I, ONE ELECTRON INTEGRALS (CPU/WALL):        0.06/       0.06 SECONDS.
  @TWOEL-I,    4472599 INTEGRALS OF SYMMETRY TYPE  I I I I
  @TWOEL-I,   19288718 INTEGRALS OF SYMMETRY TYPE  I J I J
  @TWOEL-I,   10156670 INTEGRALS OF SYMMETRY TYPE  I I J J
  @TWOEL-I,   14267474 INTEGRALS OF SYMMETRY TYPE  I J K L
  @TWOEL-I, TOTAL NUMBER OF 2-E INTEGRALS   48185461.
  @MOLECU-I, TWO ELECTRON INTEGRALS (CPU/WALL):      148.86/      19.98 SECONDS.
 @CHECKOUT-I, Total execution time (CPU/WALL):      148.94/      20.06 seconds.

Running with 14 threads/proc

--executable xvmol finished with status     0 in       20.10 seconds (walltime).
 --invoking executable--
/nfs/workspaces/public/cfour_mpi/bin/xvmol2ja
 @GETMEM-I,  Allocated    3814 MB of main memory.
 @CHECKOUT-I, Total execution time (CPU/WALL):        0.14/       0.03 seconds.
--executable xvmol2ja finished with status     0 in        0.04 seconds (walltime).
 --invoking executable--
/nfs/workspaces/public/cfour_mpi/bin/xvprop
 @GETMEM-I,  Allocated    3814 MB of main memory.
   Property integrals will be calculated.
    --------------------------------------------------------------
                                   Property evaluated at 
    Property type                X             Y             Z
    --------------------------------------------------------------
    Dipole moment               ----          ----          ----  
    Quadrupole moment           ----          ----          ----  
    Octopole moment             ----          ----          ----  
    Relativisitic corr.         ----          ----          ----  
    Second moment            0.0000000     0.0000000     0.0000000
    Electron density         0.0000000     0.0000000     1.6083756
    Electron density         0.0000000     0.0000000    -1.2066652
    Field gradient           0.0000000     0.0000000     1.6083756
    Field gradient           0.0000000     0.0000000    -1.2066652
    Potential                0.0000000     0.0000000     1.6083756
    Potential                0.0000000     0.0000000    -1.2066652
    --------------------------------------------------------------
 @CHECKOUT-I, Total execution time (CPU/WALL):        1.29/       1.30 seconds.
--executable xvprop finished with status     0 in        1.31 seconds (walltime).
 --invoking executable--
/nfs/workspaces/public/cfour_mpi/bin/xvscf
  There are  218 functions in the AO basis.

  There are 4 irreducible representations.

       Irrep        # of functions
         1                 86
         2                 52
         3                 52
         4                 28


  Parameters for SCF calculation: 
        SCF reference function:  RHF  
  Maximum number of iterations:  150
     Full symmetry point group: CXv 
     Computational point group: C2v 
        Initial density matrix: MOREAD                 
     SCF convergence tolerance: 10**(-10)
  DIIS convergence acceleration:  ON
          Latest start for DIIS:   8
                     DIIS order:   6

  Memory information:    2523578 words required.
  Fock matrices are constructed from AO integral file.
 @GETMEM-I,  Allocated      19 MB of main memory.
  Initialization and symmetry analysis required      0.001 seconds.

  Adding electric field perturbation to one-electron Hamiltonian.
  Field direction     : Z
  Field strength      : -0.0002000 a.u.

  @INITGES-I, Occupancies from core Hamiltonian:

          Alpha population by irrep:   5    1    1    0
           Beta population by irrep:   5    1    1    0


 total no. of electrons in initial guess :  0.000000000000000E+000
  --------------------------------------------------------------------
  Iteration         Total Energy            Largest Density Difference
  --------------------------------------------------------------------
       0            17.051261497477185              0.0000000000D+00
   current occupation vector 
     5  1  1  0
     5  1  1  0
       1           -93.398978817194774              0.1752791899D+02
   current occupation vector 
     5  1  1  0
     5  1  1  0
       2           -98.252565845185458              0.1752788872D+02
   current occupation vector 
     5  1  1  0
     5  1  1  0
       3          -102.049383012051180              0.6178719051D+01
   current occupation vector 
     5  1  1  0
     5  1  1  0
       4           -97.067373809439630              0.6178600271D+01
   current occupation vector 
     5  1  1  0
     5  1  1  0
       5          -100.779254334961436              0.6739496996D+01
   current occupation vector 
     5  1  1  0
     5  1  1  0
       6           -96.019075717338779              0.6737923659D+01
   current occupation vector 
     5  1  1  0
     5  1  1  0
       7          -100.740826679190207              0.6812949024D+01
   current occupation vector 
     5  1  1  0
     5  1  1  0
       8           -95.978515892985740              0.6813144800D+01
   current occupation vector 
     5  1  1  0
     5  1  1  0
       9          -107.489626595417050              0.5436939508D+01
   current occupation vector 
     5  1  1  0
     5  1  1  0
      10          -109.479605336217247              0.9138998086D+00
   current occupation vector 
     5  1  1  0
     5  1  1  0
      11          -112.315427572767476              0.1556671644D+01
   current occupation vector 
     5  1  1  0
     5  1  1  0
      12          -112.595882563288427              0.5130015956D+00
   current occupation vector 
     5  1  1  0
     5  1  1  0
      13          -112.600581210790494              0.1255039600D+00
   current occupation vector 
     5  1  1  0
     5  1  1  0
      14          -112.602083441668867              0.5555931214D-01
   current occupation vector 
     5  1  1  0
     5  1  1  0
      15          -112.602187931584211              0.1577828720D-01
   current occupation vector 
     5  1  1  0
     5  1  1  0
      16          -112.602232523939847              0.1270761265D-01
   current occupation vector 
     5  1  1  0
     5  1  1  0
      17          -112.602242588266222              0.5650298383D-02
   current occupation vector 
     5  1  1  0
     5  1  1  0
      18          -112.602244157358456              0.3199453294D-02
   current occupation vector 
     5  1  1  0
     5  1  1  0
      19          -112.602244165806837              0.2389502449D-03
   current occupation vector 
     5  1  1  0
     5  1  1  0
      20          -112.602244166061183              0.1331591729D-04
   current occupation vector 
     5  1  1  0
     5  1  1  0
      21          -112.602244166067294              0.4489536815D-05
   current occupation vector 
     5  1  1  0
     5  1  1  0
      22          -112.602244166066640              0.4511882297D-06
   current occupation vector 
     5  1  1  0
     5  1  1  0
      23          -112.602244166066981              0.8026172060D-07
   current occupation vector 
     5  1  1  0
     5  1  1  0
      24          -112.602244166066981              0.2035309854D-07
   current occupation vector 
     5  1  1  0
     5  1  1  0
      25          -112.602244166069880              0.4457362035D-08
   current occupation vector 
     5  1  1  0
     5  1  1  0
      26          -112.602244166067067              0.7945701874D-09
   current occupation vector 
     5  1  1  0
     5  1  1  0
      27          -112.602244166067379              0.7789777712D-09
   current occupation vector 
     5  1  1  0
     5  1  1  0
      28          -112.602244166066782              0.5478728582D-09
   current occupation vector 
     5  1  1  0
     5  1  1  0

  SCF has converged.

 Density matrix saved to file den.dat
 total electron number:   13.9999999999998     
     E(SCF)=      -112.602244166067265              0.5499178890D-10

  Eigenvector printing suppressed.

 @PUTMOS-I, Writing converged MOs to NEWMOS. 
 @PUTMOS-I, Symmetry   1 Full Blocks 21 Partial Blocksize   2
 @PUTMOS-I, Symmetry   2 Full Blocks 13 Partial Blocksize   0
 @PUTMOS-I, Symmetry   3 Full Blocks 13 Partial Blocksize   0
 @PUTMOS-I, Symmetry   4 Full Blocks  7 Partial Blocksize   0
 @PUTFOCK-I, Writing converged Fock matrix to NEWFOCK. 
 @PUTFOCK-I, Symmetry   1 Full Blocks 21 Partial Blocksize   2
 @PUTFOCK-I, Symmetry   2 Full Blocks 13 Partial Blocksize   0
 @PUTFOCK-I, Symmetry   3 Full Blocks 13 Partial Blocksize   0
 @PUTFOCK-I, Symmetry   4 Full Blocks  7 Partial Blocksize   0


 
  ORBITAL EIGENVALUES (ALPHA)  (1H = 27.2113834 eV)

       MO #        E(hartree)               E(eV)           FULLSYM    COMPSYM
       ----   --------------------   --------------------   -------   ---------
    1     1         -20.6553104778        -562.0595726586     SG+        A1 (1)
    2     2         -11.4962668789        -312.8293257097     SG+        A1 (1)
    3     3          -1.3192710991         -35.8991916855     SG+        A1 (1)
    4     4          -0.7973519109         -21.6970485520     SG+        A1 (1)
    5     5          -0.5511586485         -14.9977892973     SG+        A1 (1)
    6    87          -0.5206110980         -14.1665481912      PI        B1 (2)
    7   139          -0.5206110980         -14.1665481912      PI        B2 (3)
  +++++++++++++++++++++++++++++++++++++++++++++++++++++++++++++++++++++++++++++
    8    88           0.0142077147           0.3866115723      PI        B1 (2)
    9   140           0.0142077147           0.3866115723      PI        B2 (3)
   10     6           0.0619209782           1.6849554782     SG+        A1 (1)
   11     7           0.0684674917           1.8630951679     SG+        A1 (1)
   12   141           0.0844965970           2.2992692974      PI        B2 (3)
   13    89           0.0844965970           2.2992692974      PI        B1 (2)
   14     8           0.1574379177           4.2841035401     SG+        A1 (1)
   15    90           0.1761725898           4.7938998847      PI        B1 (2)
   16   142           0.1761725898           4.7938998847      PI        B2 (3)
   17     9           0.2171696064           5.9094854215     SG+        A1 (1)
   18    10           0.2236462249           6.0857231720      DE        A1 (1)
   19   191           0.2236462249           6.0857231720      DE        A2 (4)
   20    91           0.2908579996           7.9146485430      PI        B1 (2)
   21   143           0.2908579996           7.9146485430      PI        B2 (3)
   22    11           0.2999045834           8.1608186019     SG+        A1 (1)
   23    12           0.3447837741           9.3820434684     SG+        A1 (1)
   24    92           0.4015381519          10.9264086007      PI        B1 (2)
   25   144           0.4015381519          10.9264086007      PI        B2 (3)
   26    13           0.4460619966          12.1379640097     SG+        A1 (1)
   27    14           0.5123914243          13.9428794970     SG+        A1 (1)
   28   192           0.5486492992          14.9295064331      DE        A2 (4)
   29    15           0.5486492992          14.9295064331      DE        A1 (1)
   30    93           0.6242381077          16.9863824828      PI        B1 (2)
   31   145           0.6242381077          16.9863824828      PI        B2 (3)
   32    16           0.7173598308          19.5203533919     SG+        A1 (1)
   33   146           0.7362203229          20.0335734741      PH        B2 (3)
   34    94           0.7362203229          20.0335734741      PH        B1 (2)
   35    17           0.7456832857          20.2910737822      DE        A1 (1)
   36   193           0.7456832857          20.2910737822      DE        A2 (4)
   37    95           0.7844201643          21.3451578385      PI        B1 (2)
   38   147           0.7844201643          21.3451578385      PI        B2 (3)
   39    18           0.8245950033          22.4383707837     SG+        A1 (1)
   40   194           0.8676211767          23.6091724841      DE        A2 (4)
   41    19           0.8676211767          23.6091724841      DE        A1 (1)
   42    20           0.8724345595          23.7401512903     SG+        A1 (1)
   43    96           0.8947108397          24.3463196903      PI        B1 (2)
   44   148           0.8947108397          24.3463196903      PI        B2 (3)
   45    97           1.0329264259          28.1073569980      PI        B1 (2)
   46   149           1.0329264259          28.1073569980      PI        B2 (3)
   47    21           1.1252678506          30.6200949116     SG+        A1 (1)
   48    22           1.3829821999          37.6328588780     SG+        A1 (1)
   49    98           1.4246710064          38.7672689753      PH        B1 (2)
   50   150           1.4246710064          38.7672689753      PH        B2 (3)
   51    99           1.5256962428          41.5163054154      PI        B1 (2)
   52   151           1.5256962428          41.5163054154      PI        B2 (3)
   53   195           1.5749311662          42.8560557924      DE        A2 (4)
   54    23           1.5749311662          42.8560557924      DE        A1 (1)
   55    24           1.6122724662          43.8721642229     SG+        A1 (1)
   56   100           1.6390593468          44.6010723025      PI        B1 (2)
   57   152           1.6390593468          44.6010723025      PI        B2 (3)
   58   196           1.6979940734          46.2047677428      DE        A2 (4)
   59    25           1.6979940734          46.2047677428      DE        A1 (1)
   60    26           1.9054274131          51.8493158799     SG+        A1 (1)
   61    27           1.9854080975          54.0257009474     SG+        A1 (1)
   62    28           2.0767595009          56.5114990082      PI        A1 (1)
   63   197           2.0767595009          56.5114990082      PI        A2 (4)
   64   101           2.0900033233          56.8718817368      PI        B1 (2)
   65   153           2.0900033233          56.8718817368      PI        B2 (3)
   66    29           2.1382295475          58.1841840139      DE        A1 (1)
   67   198           2.1382295475          58.1841840139      DE        A2 (4)
   68   102           2.2165020930          60.3140882582      PH        B1 (2)
   69   154           2.2165020930          60.3140882582      PH        B2 (3)
   70   103           2.2387999908          60.9208449060      PH        B1 (2)
   71   155           2.2387999908          60.9208449060      PH        B2 (3)
   72   104           2.2445136681          61.0763219701      PI        B1 (2)
   73   156           2.2445136681          61.0763219701      PI        B2 (3)
   74    30           2.2454343045          61.1013737597     SG+        A1 (1)
   75   199           2.3001943357          62.5914699634      DE        A2 (4)
   76    31           2.3001943357          62.5914699634      DE        A1 (1)
   77    32           2.4546548871          66.7945552463     SG+        A1 (1)
   78   105           2.5199709685          68.5718961812      PI        B1 (2)
   79   157           2.5199709685          68.5718961812      PI        B2 (3)
   80    33           2.6040651350          70.8602147870     SG+        A1 (1)
   81   106           2.6075197775          70.9542203876      PI        B1 (2)
   82   158           2.6075197775          70.9542203876      PI        B2 (3)
   83   200           2.7116842542          73.7886799002      DE        A2 (4)
   84    34           2.7116842542          73.7886799003      DE        A1 (1)
   85    35           3.0882504160          84.0355661041     SG+        A1 (1)
   86   107           3.4871585785          94.8904090568      PI        B1 (2)
   87   159           3.4871585785          94.8904090568      PI        B2 (3)
   88   201           3.7030984212         100.7664309079      PI        A2 (4)
   89    36           3.7030984212         100.7664309079      PI        A1 (1)
   90    37           3.9056256765         106.2774777004     SG+        A1 (1)
   91   160           3.9665118698         107.9342752490      PH        B2 (3)
   92   108           3.9665118698         107.9342752490      PH        B1 (2)
   93   161           4.1309759663         112.4095708364      PH        B2 (3)
   94   109           4.1309759663         112.4095708364      PH        B1 (2)
   95   110           4.1616651519         113.2446660312      PI        B1 (2)
   96   162           4.1616651519         113.2446660312      PI        B2 (3)
   97    38           4.1805840162         113.7594745000     SG+        A1 (1)
   98   202           4.2127317270         114.6342581848      DE        A2 (4)
   99    39           4.2127317270         114.6342581848      DE        A1 (1)
  100   203           4.2767133523         116.3752867223      DE        A2 (4)
  101    40           4.2767133523         116.3752867223      DE        A1 (1)
  102    41           4.4397318380         120.8112452381     SG+        A1 (1)
  103   111           4.6163084973         125.6161404139      PI        B1 (2)
  104   163           4.6163084973         125.6161404139      PI        B2 (3)
  105    42           4.7694124482         129.7823107211     SG+        A1 (1)
  106   204           4.7781138077         130.0190867497      DE        A2 (4)
  107    43           4.7781138077         130.0190867497      DE        A1 (1)
  108   112           5.1748191861         140.8139888979      PI        B1 (2)
  109   164           5.1748191861         140.8139888980      PI        B2 (3)
  110    44           5.3446480919         145.4352683675     SG+        A1 (1)
  111   113           5.3768846560         146.3124698733      PI        B1 (2)
  112   165           5.3768846561         146.3124698734      PI        B2 (3)
  113    45           5.8431934681         159.0013777395      PI        A1 (1)
  114   205           5.8431934681         159.0013777395      PI        A2 (4)
  115   166           5.9225080410         161.1596369938      PH        B2 (3)
  116   114           5.9225080410         161.1596369938      PH        B1 (2)
  117    46           6.1017124594         166.0360371303     SG+        A1 (1)
  118   206           6.1506693564         167.3682220246      DE        A2 (4)
  119    47           6.1506693564         167.3682220246      DE        A1 (1)
  120   115           6.1693086260         167.8754223342      PI        B1 (2)
  121   167           6.1693086260         167.8754223342      PI        B2 (3)
  122    48           6.2294352828         169.5115518454     SG+        A1 (1)
  123   168           6.3732532355         173.4250372960      PH        B2 (3)
  124   116           6.3732532355         173.4250372960      PH        B1 (2)
  125   207           6.4173531919         174.6250581169      DE        A2 (4)
  126    49           6.4173531919         174.6250581169      DE        A1 (1)
  127   208           6.5078158312         177.0866716789      DE        A2 (4)
  128    50           6.5078158312         177.0866716790      DE        A1 (1)
  129   117           6.8783417667         187.1691949712      PI        B1 (2)
  130   169           6.8783417667         187.1691949712      PI        B2 (3)
  131    51           7.1634052978         194.9261680075     SG+        A1 (1)
  132   118           7.4729527982         203.3493837227      PI        B1 (2)
  133   170           7.4729527982         203.3493837227      PI        B2 (3)
  134    52           8.1148518593         220.8163451773     SG+        A1 (1)
  135    53           9.6592954256         262.8427911990     SG+        A1 (1)
  136   171           9.8562593359         268.2024516798      PI        B2 (3)
  137   119           9.8562593359         268.2024516798      PI        B1 (2)
  138    54          10.6395880815         289.5179105028      PI        A1 (1)
  139   209          10.6395880815         289.5179105028      PI        A2 (4)
  140    55          10.7133378200         291.5247429132     SG+        A1 (1)
  141   172          10.7505065020         292.5361541708      PH        B2 (3)
  142   120          10.7505065020         292.5361541708      PH        B1 (2)
  143   210          10.9845606140         298.9050903469      DE        A2 (4)
  144    56          10.9845606140         298.9050903469      DE        A1 (1)
  145   121          10.9958381252         299.2119670300      PI        B1 (2)
  146   173          10.9958381252         299.2119670300      PI        B2 (3)
  147    57          11.2210009617         305.3389592993     SG+        A1 (1)
  148   174          11.8789114106         323.2416127672      PH        B2 (3)
  149   122          11.8789114106         323.2416127672      PH        B1 (2)
  150   211          12.0204808840         327.0939139879      DE        A2 (4)
  151    58          12.0204808840         327.0939139881      DE        A1 (1)
  152   175          12.4965642357         340.0488006005      PI        B2 (3)
  153   123          12.4965642357         340.0488006005      PI        B1 (2)
  154    59          12.7338623663         346.5060110116     SG+        A1 (1)
  155   212          12.7407358992         346.6930493506      DE        A2 (4)
  156    60          12.7407358992         346.6930493506      DE        A1 (1)
  157   124          13.0871124193         356.1184336391      PI        B1 (2)
  158   176          13.0871124193         356.1184336392      PI        B2 (3)
  159    61          13.7280945014         373.5604428290     SG+        A1 (1)
  160    62          17.4279969364         474.2399065306     SG+        A1 (1)
  161   125          18.7951399256         511.4417585709      PI        B1 (2)
  162   177          18.7951399256         511.4417585712      PI        B2 (3)
  163    63          19.9940441861         544.0656020650     SG+        A1 (1)
  164    64          26.2919304730         715.4398004280      DE        A1 (1)
  165   213          26.2919304730         715.4398004280      DE        A2 (4)
  166   126          26.6568412938         725.3695286782      PI        B1 (2)
  167   178          26.6568412938         725.3695286782      PI        B2 (3)
  168    65          27.1473315107         738.7164460243     SG+        A1 (1)
  169   179          33.5264814628         912.3019411369      PI        B2 (3)
  170   127          33.5264814628         912.3019411375      PI        B1 (2)
  171    66          34.3304028102         934.1777531438     SG+        A1 (1)
  172    67          35.7733690781         973.4428614941     SG+        A1 (1)
  173   214          47.0736722036        1280.9397423790      DE        A2 (4)
  174    68          47.0736722036        1280.9397423790      DE        A1 (1)
  175   128          47.2568453829        1285.9241379888      PI        B1 (2)
  176   180          47.2568453829        1285.9241379889      PI        B2 (3)
  177    69          47.6331204513        1296.1631031398     SG+        A1 (1)
  178    70          63.8457232007        1737.3304524635     SG+        A1 (1)
  179   129          66.3648331973        1805.8789204101      PI        B1 (2)
  180   181          66.3648331974        1805.8789204103      PI        B2 (3)
  181    71          67.2282882736        1829.3747275385     SG+        A1 (1)
  182   182          98.5340226819        2681.2470691406      PH        B2 (3)
  183   130          98.5340226819        2681.2470691407      PH        B1 (2)
  184   215          98.5474042417        2681.6111998959      DE        A2 (4)
  185    72          98.5474042417        2681.6111998959      DE        A1 (1)
  186   131          98.5624222575        2682.0198608811      PI        B1 (2)
  187   183          98.5624222575        2682.0198608811      PI        B2 (3)
  188    73          98.5772296724        2682.4227911244     SG+        A1 (1)
  189   184         103.2987100581        2810.9008041171      PH        B2 (3)
  190   132         103.2987100581        2810.9008041171      PH        B1 (2)
  191    74         103.3064997697        2811.1127729451      DE        A1 (1)
  192   216         103.3064997698        2811.1127729471      DE        A2 (4)
  193   185         103.3447564847        2812.1537910850      PI        B2 (3)
  194   133         103.3447564847        2812.1537910850      PI        B1 (2)
  195    75         103.3478104947        2812.2368949205     SG+        A1 (1)
  196    76         114.9898743522        3129.0335581147      DE        A1 (1)
  197   217         114.9898743522        3129.0335581147      DE        A2 (4)
  198   186         115.1655441120        3133.8137753017      PI        B2 (3)
  199   134         115.1655441120        3133.8137753017      PI        B1 (2)
  200    77         115.4258768775        3140.8977899953     SG+        A1 (1)
  201   187         116.8144426705        3178.6825861642      PI        B2 (3)
  202   135         116.8144426705        3178.6825861650      PI        B1 (2)
  203    78         117.4669318145        3196.4377184248     SG+        A1 (1)
  204    79         122.0032061772        3319.8760193180     SG+        A1 (1)
  205   218         198.5515800817        5402.8631702777      DE        A2 (4)
  206    80         198.5515800817        5402.8631702779      DE        A1 (1)
  207   136         198.6511910132        5405.5737215278      PI        B1 (2)
  208   188         198.6511910132        5405.5737215281      PI        B2 (3)
  209    81         198.8466198303        5410.8916099957     SG+        A1 (1)
  210    82         216.3751978079        5887.8684658005     SG+        A1 (1)
  211   137         224.8379987377        6118.1529865404      PI        B1 (2)
  212   189         224.8379987377        6118.1529865406      PI        B2 (3)
  213    83         225.5106646879        6136.4571576109     SG+        A1 (1)
  214   190         395.3185033865       10757.1633607645      PI        B2 (3)
  215   138         395.3185033865       10757.1633607653      PI        B1 (2)
  216    84         395.8640518776       10772.0084899198     SG+        A1 (1)
  217    85         508.6942348292       13842.2738573071     SG+        A1 (1)
  218    86         895.1993488773       24359.6127017295     SG+        A1 (1)


  VSCF finished.

 @CHECKOUT-I, Total execution time (CPU/WALL):       47.87/       8.35 seconds.
--executable xvscf finished with status     0 in        8.38 seconds (walltime).
 --invoking executable--
/nfs/workspaces/public/cfour_mpi/bin/xvtran
 @GETMEM-I,  Allocated    3814 MB of main memory.
  Full RHF integral transformation
  Transformation of IIII integrals :
  1 pass through the AO integral file was required.
     4472599 AO integrals were read.
     8678955 MO integrals were written to HF2.
  Transformation of IIJJ integrals :
  1 pass through the AO integral file was required.
    10156670 AO integrals were read.
    14447649 MO integrals were written to HF2.
  Transformation of IJIJ integrals :
  1 pass through the AO integral file was required.
    19288718 AO integrals were read.
    26908616 MO integrals were written to HF2.
  Transformation of IJKL integrals :
  1 pass through the AO integral file was required.
    14267474 AO integrals were read.
    18187157 MO integrals were written to HF2.
  Summary of active molecular orbitals: 
------------------------------------------------------------------------
 
  Index      Eigenvalue    Symmetry    Index      Eigenvalue    Symmetry
------------------------------------------------------------------------
     1       -20.6553105        1       110         4.1309760        2
     2       -11.4962669        1       111         4.1616652        2
     3        -1.3192711        1       112         4.6163085        2
     4        -0.7973519        1       113         5.1748192        2
     5        -0.5511586        1       114         5.3768847        2
     6        -0.5206111        2       115         5.9225080        2
     7        -0.5206111        3       116         6.1693086        2
     8         0.0619210        1       117         6.3732532        2
     9         0.0684675        1       118         6.8783418        2
    10         0.1574379        1       119         7.4729528        2
    11         0.2171696        1       120         9.8562593        2
    12         0.2236462        1       121        10.7505065        2
    13         0.2999046        1       122        10.9958381        2
    14         0.3447838        1       123        11.8789114        2
    15         0.4460620        1       124        12.4965642        2
    16         0.5123914        1       125        13.0871124        2
    17         0.5486493        1       126        18.7951399        2
    18         0.7173598        1       127        26.6568413        2
    19         0.7456833        1       128        33.5264815        2
    20         0.8245950        1       129        47.2568454        2
    21         0.8676212        1       130        66.3648332        2
    22         0.8724346        1       131        98.5340227        2
    23         1.1252679        1       132        98.5624223        2
    24         1.3829822        1       133       103.2987101        2
    25         1.5749312        1       134       103.3447565        2
    26         1.6122725        1       135       115.1655441        2
    27         1.6979941        1       136       116.8144427        2
    28         1.9054274        1       137       198.6511910        2
    29         1.9854081        1       138       224.8379987        2
    30         2.0767595        1       139       395.3185034        2
    31         2.1382295        1       140         0.0142077        3
    32         2.2454343        1       141         0.0844966        3
    33         2.3001943        1       142         0.1761726        3
    34         2.4546549        1       143         0.2908580        3
    35         2.6040651        1       144         0.4015382        3
    36         2.7116843        1       145         0.6242381        3
    37         3.0882504        1       146         0.7362203        3
    38         3.7030984        1       147         0.7844202        3
    39         3.9056257        1       148         0.8947108        3
    40         4.1805840        1       149         1.0329264        3
    41         4.2127317        1       150         1.4246710        3
    42         4.2767134        1       151         1.5256962        3
    43         4.4397318        1       152         1.6390593        3
    44         4.7694124        1       153         2.0900033        3
    45         4.7781138        1       154         2.2165021        3
    46         5.3446481        1       155         2.2388000        3
    47         5.8431935        1       156         2.2445137        3
    48         6.1017125        1       157         2.5199710        3
    49         6.1506694        1       158         2.6075198        3
    50         6.2294353        1       159         3.4871586        3
    51         6.4173532        1       160         3.9665119        3
    52         6.5078158        1       161         4.1309760        3
    53         7.1634053        1       162         4.1616652        3
    54         8.1148519        1       163         4.6163085        3
    55         9.6592954        1       164         5.1748192        3
    56        10.6395881        1       165         5.3768847        3
    57        10.7133378        1       166         5.9225080        3
    58        10.9845606        1       167         6.1693086        3
    59        11.2210010        1       168         6.3732532        3
    60        12.0204809        1       169         6.8783418        3
    61        12.7338624        1       170         7.4729528        3
    62        12.7407359        1       171         9.8562593        3
    63        13.7280945        1       172        10.7505065        3
    64        17.4279969        1       173        10.9958381        3
    65        19.9940442        1       174        11.8789114        3
    66        26.2919305        1       175        12.4965642        3
    67        27.1473315        1       176        13.0871124        3
    68        34.3304028        1       177        18.7951399        3
    69        35.7733691        1       178        26.6568413        3
    70        47.0736722        1       179        33.5264815        3
    71        47.6331205        1       180        47.2568454        3
    72        63.8457232        1       181        66.3648332        3
    73        67.2282883        1       182        98.5340227        3
    74        98.5474042        1       183        98.5624223        3
    75        98.5772297        1       184       103.2987101        3
    76       103.3064998        1       185       103.3447565        3
    77       103.3478105        1       186       115.1655441        3
    78       114.9898744        1       187       116.8144427        3
    79       115.4258769        1       188       198.6511910        3
    80       117.4669318        1       189       224.8379987        3
    81       122.0032062        1       190       395.3185034        3
    82       198.5515801        1       191         0.2236462        4
    83       198.8466198        1       192         0.5486493        4
    84       216.3751978        1       193         0.7456833        4
    85       225.5106647        1       194         0.8676212        4
    86       395.8640519        1       195         1.5749312        4
    87       508.6942348        1       196         1.6979941        4
    88       895.1993489        1       197         2.0767595        4
    89         0.0142077        2       198         2.1382295        4
    90         0.0844966        2       199         2.3001943        4
    91         0.1761726        2       200         2.7116843        4
    92         0.2908580        2       201         3.7030984        4
    93         0.4015382        2       202         4.2127317        4
    94         0.6242381        2       203         4.2767134        4
    95         0.7362203        2       204         4.7781138        4
    96         0.7844202        2       205         5.8431935        4
    97         0.8947108        2       206         6.1506694        4
    98         1.0329264        2       207         6.4173532        4
    99         1.4246710        2       208         6.5078158        4
   100         1.5256962        2       209        10.6395881        4
   101         1.6390593        2       210        10.9845606        4
   102         2.0900033        2       211        12.0204809        4
   103         2.2165021        2       212        12.7407359        4
   104         2.2388000        2       213        26.2919305        4
   105         2.2445137        2       214        47.0736722        4
   106         2.5199710        2       215        98.5474042        4
   107         2.6075198        2       216       103.3064998        4
   108         3.4871586        2       217       114.9898744        4
   109         3.9665119        2       218       198.5515801        4
------------------------------------------------------------------------
  -20.6553104778425       -11.4962668788702       -1.31927109907523     
 -0.797351910891219      -0.551158648454866      -0.520611098043385     
 -0.520611098043360       6.192097819800942E-002  6.846749172921800E-002
  0.157437917693854       0.217169606360244       0.223646224909711     
  0.299904583384457       0.344783774147815       0.446061996601079     
  0.512391424280276       0.548649299215029       0.717359830809139     
  0.745683285700920       0.824595003268708       0.867621176662823     
  0.872434559511214        1.12526785064373        1.38298219994064     
   1.57493116621360        1.61227246619421        1.69799407342174     
   1.90542741314288        1.98540809753279        2.07675950088732     
   2.13822954748719        2.24543430451636        2.30019433570583     
   2.45465488705359        2.60406513499926        2.71168425418170     
   3.08825041596918        3.70309842122598        3.90562567651158     
   4.18058401617153        4.21273172700100        4.27671335233677     
   4.43973183803991        4.76941244821519        4.77811380768491     
   5.34464809192853        5.84319346805084        6.10171245943738     
   6.15066935643654        6.22943528278639        6.41735319186084     
   6.50781583118474        7.16340529777991        8.11485185928700     
   9.65929542556949        10.6395880814631        10.7133378199805     
   10.9845606139573        11.2210009616511        12.0204808840458     
[...]
 Convergence information after    14 iterations: 
 Largest element of residual vector :  0.12869760E-05.
 Largest element of DIIS residual   :  0.88580801E-06.
 Convergence information after    15 iterations: 
 Largest element of residual vector :  0.98915511E-06.
 Largest element of DIIS residual   :  0.71496084E-06.
 Convergence information after    16 iterations: 
 Largest element of residual vector :  0.52918941E-06.
 Largest element of DIIS residual   :  0.25491428E-06.
 Convergence information after    17 iterations: 
 Largest element of residual vector :  0.27160352E-06.
 Largest element of DIIS residual   :  0.90495085E-07.
 Perturbed amplitude equations converged in    17 iterations.
  Dominant contributions to perturbed wavefunction:
    7    7  140   28   0.2308510583 ABAB
    7    7   28  140   0.2308510583 ABAB
    7    7  140   39  -0.2201137211 ABAB
    7    7   39  140  -0.2201137211 ABAB
    7    7  140   22  -0.1964836401 ABAB
    7    7   22  140  -0.1964836401 ABAB
    7    7  140   44  -0.1955239249 ABAB
    7    7   44  140  -0.1955239249 ABAB
    7    7  140   54   0.1601138637 ABAB
    7    7   54  140   0.1601138637 ABAB
    7    7  140   29  -0.1518476391 ABAB
    7    7   29  140  -0.1518476391 ABAB
    7    7  140   57   0.1503192203 ABAB
    7    7   57  140   0.1503192203 ABAB
    7    6   28   89   0.1448097946 ABAB
    6    7   89   28   0.1448097946 ABAB
    7    0   35    0  -0.1447733969 AA  
    7    6   39   89  -0.1389627783 ABAB
    6    7   89   39  -0.1389627783 ABAB
    7    7  140   24  -0.1332010325 ABAB
  norm of converged amps    1.78216797448831     
 Starting iterative solution of the perturbed Lambda equations.
 The DIIS procedure is used to accelerate convergence.
 Convergence criterion is 10**(-7).
 Maximum number of iterations is 100.
 Convergence information after     1 iterations: 
 Largest element of residual vector :  0.73120042E-01.
 Largest element of DIIS residual   :  0.73120042E-01.
 Convergence information after     2 iterations: 
 Largest element of residual vector :  0.13353842E-01.
 Largest element of DIIS residual   :  0.98526347E-02.
 Convergence information after     3 iterations: 
 Largest element of residual vector : -0.63439900E-02.
 Largest element of DIIS residual   : -0.59365280E-02.
 Convergence information after     4 iterations: 
 Largest element of residual vector : -0.38789668E-02.
 Largest element of DIIS residual   : -0.34466119E-02.
 Convergence information after     5 iterations: 
 Largest element of residual vector : -0.30601683E-02.
 Largest element of DIIS residual   : -0.21566458E-02.
 Convergence information after     6 iterations: 
 Largest element of residual vector : -0.14114152E-02.
 Largest element of DIIS residual   : -0.62488862E-03.
 Convergence information after     7 iterations: 
 Largest element of residual vector : -0.62970114E-03.
 Largest element of DIIS residual   : -0.26760741E-03.
 Convergence information after     8 iterations: 
 Largest element of residual vector : -0.17871467E-03.
 Largest element of DIIS residual   : -0.11811291E-03.
 Convergence information after     9 iterations: 
 Largest element of residual vector : -0.72218922E-04.
 Largest element of DIIS residual   : -0.29569821E-04.
 Convergence information after    10 iterations: 
 Largest element of residual vector : -0.24302154E-04.
 Largest element of DIIS residual   : -0.10983355E-04.
 Convergence information after    11 iterations: 
 Largest element of residual vector : -0.50281337E-05.
 Largest element of DIIS residual   : -0.35652169E-05.
 Convergence information after    12 iterations: 
 Largest element of residual vector : -0.20531786E-05.
 Largest element of DIIS residual   : -0.14386661E-05.
 Convergence information after    13 iterations: 
 Largest element of residual vector : -0.13487279E-05.
 Largest element of DIIS residual   :  0.13121927E-05.
 Convergence information after    14 iterations: 
 Largest element of residual vector :  0.81570605E-06.
 Largest element of DIIS residual   :  0.61633652E-06.
 Convergence information after    15 iterations: 
 Largest element of residual vector :  0.66599347E-06.
 Largest element of DIIS residual   :  0.50739934E-06.
 Convergence information after    16 iterations: 
 Largest element of residual vector :  0.36632104E-06.
 Largest element of DIIS residual   :  0.20736329E-06.
 Convergence information after    17 iterations: 
 Largest element of residual vector :  0.20192115E-06.
 Largest element of DIIS residual   :  0.81186419E-07.
 Perturbed Lambda equations converged in    17 iterations.
  Dominant contributions to perturbed wavefunction:
    7    7  140   28   0.2018445229 ABAB
    7    7   28  140   0.2018445229 ABAB
    7    7  140   39  -0.1890487222 ABAB
    7    7   39  140  -0.1890487222 ABAB
    7    7  140   22  -0.1699191551 ABAB
    7    7   22  140  -0.1699191551 ABAB
    7    7  140   44  -0.1688136795 ABAB
    7    7   44  140  -0.1688136795 ABAB
    7    7  140   54   0.1400984390 ABAB
    7    7   54  140   0.1400984390 ABAB
    7    7  140   57   0.1287409697 ABAB
    7    7   57  140   0.1287409697 ABAB
    7    7  140   29  -0.1286958644 ABAB
    7    7   29  140  -0.1286958644 ABAB
    7    6   28   89   0.1245206093 ABAB
    6    7   89   28   0.1245206093 ABAB
    7    6   39   89  -0.1175116105 ABAB
    6    7   89   39  -0.1175116105 ABAB
    7    7  140   24  -0.1112283673 ABAB
    7    7   24  140  -0.1112283673 ABAB
        The DBOC first-order density matrix is being calculated 
             (Symmetry block 3, perturbation   2)
 term   3.43385376792568     
 final tnorm  0.826491702918753     
  norm contr. I: |<0|L dT/dx|0>|^2   0.000000000000000E+000
  norm contr. II: <0|[nabla(1+L)e-T][nabla e^T]|0>   3.43385376792568     
  total norm contribution   3.43385376792568     
 oo  8.237941737298950E-003
 vv  -25.7205425260067     
 vo  7.259391743887826E-002
  Correlated perturbed 1-el contribution to DBOC  -25.6397106668305       cm**-1
  SUM_I |dc_I/dx|^2 contribution to DBOC   12.9274622705645       cm**-1
 
 
  The total diagonal Born-Oppenheimer correction (DBOC) is:      0.0041402579 a.u.
  The total diagonal Born-Oppenheimer correction (DBOC) is:        908.681566 cm-1
 
 Total CC energy including DBOC  -113.134670881787     
 First-order density matrix is being calculated  (Symmetry block 3, perturbation   2)
 Calculation of the contributions of <pq||rs> to dI(i,j)/dx required   1.3 seconds.
 Calculation of the contributions of <pq||rs> to dI(a,b)/dx required  12.9 seconds.
 Calculation of the contributions of <pq||rs> to dI(i,a)/dx required   9.2 seconds.
 First-order Z-vector equations are solved for 1 perturbation.
 Convergence reached after  19 iterations.
        U*G(pq,rs) contribution is being calculated
             (Symmetry block 3, perturbation   2)

 CCSD contribution to force constants 

        0.0000000000        0.0000000000        0.0000000000
        0.0000000000        0.0000000000        0.0000000000
        0.0000000000        0.0000000000        0.0000000000
        0.0000000000        0.0000000000        0.0000000000
        0.0000000000        0.0000000000        0.0000000000
        0.0000000000        0.0000000000        0.0000000000
        0.0000000000        0.0000000000        0.0000000000
        0.0000000000        0.0000000000        0.0000000000
        0.0000000000        0.0000000000        0.0000000000
        0.0000000000        0.0000000000        0.0000000000
        0.0000000000        0.0000000000        0.0000000000
        0.0000000000       -1.6962724444        1.6962724444

 CCSD contribution to dipole derivatives 

        0.0000000000        0.0000000000        0.0000000000
        0.0000000000        0.0000000000        0.0000000000
        0.0000000000        0.0000000000        0.0000000000
        0.0000000000        0.0000000000       -0.0562223098
        0.0000000000        0.0000000000        0.0000000000
        0.0000000000        0.0000000000        0.0000000000
 @CHECKOUT-I, Total execution time (CPU/WALL):      982.51/     198.50 seconds.
--executable xsdcc finished with status     0 in      198.55 seconds (walltime).
 --invoking executable--
/nfs/workspaces/public/cfour_mpi/bin/xanti
 @GETMEM-I,  Allocated    3814 MB of main memory.
 CCSD MO derivative gammas will be sorted to Mulliken order.
 @CHECKOUT-I, Total execution time (CPU/WALL):        8.25/       9.31 seconds.
--executable xanti finished with status     0 in        9.33 seconds (walltime).
 --invoking executable--
/nfs/workspaces/public/cfour_mpi/bin/xbcktrn
 @GETMEM-I,  Allocated    3814 MB of main memory.
 CCSD MO derivative gammas will be transformed to the AO basis.
 @CHECKOUT-I, Total execution time (CPU/WALL):       16.32/       5.22 seconds.
--executable xbcktrn finished with status     0 in        5.25 seconds (walltime).
 --invoking executable--
/nfs/workspaces/public/cfour_mpi/bin/xvdint
 @GETMEM-I,  Allocated    3814 MB of main memory.
 One- and two-electron integral derivatives are calculated
 for RHF-CC/MBPT hessians and dipole derivatives.
 Spherical gaussians are used.
  magnet F F
                    8722  records have been written to the Sort file.
  Total length of Sort file :             178609116  words.
 Evaluation of 2el integral derivatives

                      Two-electron integral gradient
                      ------------------------------

                         C #1 z     0.0000000000
                         O #2 z     0.0000000000


 C #1       0.0000000000            0.0202035455            0.0000000000
 O #2       0.0000000000           -0.0202035455            0.0000000000


 Evaluation of 2e integral derivatives required  251.67 seconds.
  contribution to Hessian
        0.0000000000        0.0000000000        0.0000000000
        0.0000000000        0.0202035455       -0.0202035455
 @CHECKOUT-I, Total execution time (CPU/WALL):      251.65/      56.42 seconds.
--executable xvdint finished with status     0 in       56.45 seconds (walltime).
 --invoking executable--
/nfs/workspaces/public/cfour_mpi/bin/xanti
 @GETMEM-I,  Allocated    3814 MB of main memory.
 CCSD MO gammas will be sorted to Mulliken order.
 @CHECKOUT-I, Total execution time (CPU/WALL):       10.21/       8.80 seconds.
--executable xanti finished with status     0 in        8.83 seconds (walltime).
 --invoking executable--
/nfs/workspaces/public/cfour_mpi/bin/xbcktrn
 @GETMEM-I,  Allocated    3814 MB of main memory.
 CCSD MO gammas will be transformed to the AO basis.
 @CHECKOUT-I, Total execution time (CPU/WALL):       22.71/       3.75 seconds.
--executable xbcktrn finished with status     0 in        3.77 seconds (walltime).
 --invoking executable--
/nfs/workspaces/public/cfour_mpi/bin/xvdint
 @GETMEM-I,  Allocated    3814 MB of main memory.
 One- and two-electron integral derivatives are calculated
 for RHF-CC/MBPT hessians and dipole derivatives.
 Spherical gaussians are used.
  magnet F F

                     Kinetic energy integral gradient
                     --------------------------------

                         C #1 z    -0.6713003431
                         O #2 z     0.6713003431


 C #1       0.0000000000            0.0000000000           -0.6713003431
 O #2       0.0000000000            0.0000000000            0.6713003431



                   Nuclear attraction integral gradient
                   ------------------------------------

                         C #1 z    15.4374053113
                         O #2 z   -15.4374053113


 C #1       0.0000000000            0.0000000000           15.4374053113
 O #2       0.0000000000            0.0000000000          -15.4374053113



                      Reorthonormalization gradient
                      -----------------------------

                         C #1 z     0.0000000000
                         O #2 z     0.0000000000


 C #1       0.0000000000            0.0000000000            0.0000000000
 O #2       0.0000000000            0.0000000000            0.0000000000



                     Kinetic energy integral Hessian
                     -------------------------------


           Symmetry 1

           C #1 z      O #2 z

 C #1 z    0.693994
 O #2 z   -0.693994    0.693994


           Symmetry 2

           C #1 x      O #2 x

 C #1 x   -0.569503
 O #2 x    0.569503   -0.569503


           Symmetry 3

           C #1 y      O #2 y

 C #1 y   -0.569503
 O #2 y    0.569503   -0.569503




           C #1 x      C #1 y      C #1 z      O #2 x      O #2 y      O #2 z

 C #1 x   -0.569503
 C #1 y    0.000000   -0.569503
 C #1 z    0.000000    0.000000    0.693994

 O #2 x    0.569503    0.000000    0.000000   -0.569503
 O #2 y    0.000000    0.569503    0.000000    0.000000   -0.569503
 O #2 z    0.000000    0.000000   -0.693994    0.000000    0.000000    0.693994




                   Nuclear attraction integral Hessian
                   -----------------------------------


           Symmetry 1

           C #1 z      O #2 z

 C #1 z   -9.527376
 O #2 z    9.527376   -9.527376


           Symmetry 2

           C #1 x      O #2 x

 C #1 x    9.127101
 O #2 x   -9.127101    9.127101


           Symmetry 3

           C #1 y      O #2 y

 C #1 y    9.127101
 O #2 y   -9.127101    9.127101




           C #1 x      C #1 y      C #1 z      O #2 x      O #2 y      O #2 z

 C #1 x    9.127101
 C #1 y    0.000000    9.127101
 C #1 z    0.000000    0.000000   -9.527376

 O #2 x   -9.127101    0.000000    0.000000    9.127101
 O #2 y    0.000000   -9.127101    0.000000    0.000000    9.127101
 O #2 z    0.000000    0.000000    9.527376    0.000000    0.000000   -9.527376




                Highest order reorthonormalization Hessian
                ------------------------------------------


           Symmetry 1

           C #1 z      O #2 z

 C #1 z    0.000000
 O #2 z    0.000000    0.000000


           Symmetry 2

           C #1 x      O #2 x

 C #1 x    0.000000
 O #2 x    0.000000    0.000000


           Symmetry 3

           C #1 y      O #2 y

 C #1 y    0.000000
 O #2 y    0.000000    0.000000




           C #1 x      C #1 y      C #1 z      O #2 x      O #2 y      O #2 z




                Electronic contributions to dipole moment
                -----------------------------------------

                               au             Debye

                    z      0.37583534      0.95527833

  Conversion factor used: 1 a.u. =   2.54174691 Debye 



   Electronic contributions to static part of dipole moment derivatives
   --------------------------------------------------------------------


                     Total dipole moment derivatives
                     -------------------------------


           Symmetry 1
                              Ez

               C #1 z    -5.64704688
               O #2 z    -8.35295312

           Symmetry 2
                              Ex

               C #1 x    -5.67223719
               O #2 x    -8.32776281

           Symmetry 3
                              Ey

               C #1 y    -5.67223719
               O #2 y    -8.32776281



                       Ex          Ey          Ez

      C #1    x   -5.672237    0.000000    0.000000
      C #1    y    0.000000   -5.672237    0.000000
      C #1    z    0.000000    0.000000   -5.647047

      O #2    x   -8.327763    0.000000    0.000000
      O #2    y    0.000000   -8.327763    0.000000
      O #2    z    0.000000    0.000000   -8.352953

 Evaluation of 1e integral derivatives required    1.62 seconds.
                    8815  records have been written to the Sort file.
  Total length of Sort file :             180513570  words.
 Evaluation of 2el integral derivatives

                      Two-electron integral gradient
                      ------------------------------

                         C #1 z    -8.0697797069
                         O #2 z     8.0697797069


 C #1       0.0000000000            0.0000000000           -8.0697797069
 O #2       0.0000000000            0.0000000000            8.0697797069


 Evaluation of 2e integral derivatives required  540.11 seconds.

                            Molecular gradient
                            ------------------

                         C #1 z     0.6391265200
                         O #2 z    -0.6391265200


 C #1       0.0000000000            0.0000000000            0.6391265200
 O #2       0.0000000000            0.0000000000           -0.6391265200


  Molecular gradient norm 0.904E+00

                            Molecular hessian
                            -----------------


           Symmetry 1

           C #1 z      O #2 z

 C #1 z   23.178585
 O #2 z  -23.178585   23.178585


           Symmetry 2

           C #1 x      O #2 x

 C #1 x    1.948016
 O #2 x   -1.948016    1.948016


           Symmetry 3

           C #1 y      O #2 y

 C #1 y    1.948016
 O #2 y   -1.948016    1.948016




           C #1 x      C #1 y      C #1 z      O #2 x      O #2 y      O #2 z

 C #1 x    1.948016
 C #1 y    0.000000    1.948016
 C #1 z    0.000000    0.000000   23.178585

 O #2 x   -1.948016    0.000000    0.000000    1.948016
 O #2 y    0.000000   -1.948016    0.000000    0.000000    1.948016
 O #2 z    0.000000    0.000000  -23.178585    0.000000    0.000000   23.178585




                           Total dipole moment
                           -------------------

                               au             Debye

                    z      0.37276717      0.94747982

  Conversion factor used: 1 a.u. =   2.54174691 Debye 



                     Total dipole moment derivatives
                     -------------------------------


           Symmetry 1
                              Ez

               C #1 z     0.63090499
               O #2 z    -0.63090499

           Symmetry 2
                              Ex

               C #1 x     0.13820821
               O #2 x    -0.13820821

           Symmetry 3
                              Ey

               C #1 y     0.13820821
               O #2 y    -0.13820821



                       Ex          Ey          Ez

      C #1    x    0.138208    0.000000    0.000000
      C #1    y    0.000000    0.138208    0.000000
      C #1    z    0.000000    0.000000    0.630905

      O #2    x   -0.138208    0.000000    0.000000
      O #2    y    0.000000   -0.138208    0.000000
      O #2    z    0.000000    0.000000   -0.630905

 @CHECKOUT-I, Total execution time (CPU/WALL):      541.72/      93.53 seconds.
--executable xvdint finished with status     0 in       93.56 seconds (walltime).
 --invoking executable--
/nfs/workspaces/public/cfour_mpi/bin/xjoda
  @GTFLGS-I, Hessian will be transformed to curvilinear coordinates.
  @GTFLGS-I, Hessian will be transformed to curvilinear coordinates.
  igrd and ihes are                      0                     1
  gradient from JOBARC 
   0.000000000000000   0.000000000000000   0.639126520035544
   0.000000000000000   0.000000000000000  -0.639126520035544
 
  @PROJFCM-I, Projecting force constant matrix onto totally symmetric subspace.
  Largest difference between matrix elements of symmetrized
  and unsymmetrized FCM :    -0.2794875442E-11.
  read isotopes from ZMAT file 
 
  Summary of diagonal Born-Oppenheimer correction at the correlated level
  The total diagonal Born-Oppenheimer correction (DBOC) is:      0.0041402579 a.u.
  The total diagonal Born-Oppenheimer correction (DBOC) is:        908.681566 cm-1
  The total diagonal Born-Oppenheimer correction (DBOC) is:            10.870 kJ/mole
  hellooooooo 
  readis is  F
 
 @CHECKOUT-I, Total execution time (CPU/WALL):        0.01/       0.01 seconds.
--executable xjoda finished with status     0 in        0.04 seconds (walltime).
  The final electronic energy is      -113.134670881786761 a.u. 
  This computation required                         2104.43 seconds (walltime).
