 --invoking executable--
/nfs/workspaces/public/cfour_mpi/bin/xjoda


   *************************************************************************
         <<<     CCCCCC     CCCCCC   |||     CCCCCC     CCCCCC   >>>
       <<<      CCC        CCC       |||    CCC        CCC         >>>
      <<<      CCC        CCC        |||   CCC        CCC            >>>
    <<<        CCC        CCC        |||   CCC        CCC              >>>
      <<<      CCC        CCC        |||   CCC        CCC            >>>
       <<<      CCC        CCC       |||    CCC        CCC         >>>
         <<<     CCCCCC     CCCCCC   |||     CCCCCC     CCCCCC   >>>
   *************************************************************************

     ****************************************************************
     * CFOUR Coupled-Cluster techniques for Computational Chemistry *
     ****************************************************************
 

   Department of Chemistry                Institut fuer Physikalische Chemie
   University of Florida                  Universitaet Mainz
   Gainesville, FL 32611, USA             D-55099 Mainz, Germany

   Department of Chemistry                Fakultaet fuer Chemie und Biowiss.
   Johns Hopkins University               Karlsruher Institut fuer Technologie
   Baltimore, MD 21218, USA               D-76131 Karlsruhe, Germany

   Department of Chemistry                Department of Physical Chemistry
   Southern Methodist University          Eotvos Lorand University
   Dallas, TX 75275, USA                  H-1053 Budapest, Hungary

 
                       Version 2.1
 
                     vincent.theory.phys.ucl.ac.uk                     
                     Tue 25 Feb 03:44:38 GMT 2025                      
                     integer*8 version is running
 
********************************************************************************
*                          Input from ZMAT file                                *
********************************************************************************
Carbon Monoxide DBOC calculation                                                
C                                                                               
O 1 r                                                                           
                                                                                
r=1.210344827586207                                                             
                                                                                
                                                                                
*CFOUR(CALC=CCSD,BASIS=AUG-PCVQZ,SCF_CONV=10                                    
CC_CONV=14,DBOC=ON,MEMORY=500000000                                             
ZFIELD=200)                                                                     
                                                                                
%isotopes                                                                       
12                                                                              
16                                                                              
********************************************************************************
  @GTFLGS-I, Hessian will be transformed to curvilinear coordinates.
    -------------------------------------------------------------------
                    CFOUR Control Parameters 
    -------------------------------------------------------------------
        External           Internal           Value            Units
          Name               Name
    -------------------------------------------------------------------
       ABCDTYPE             IABCDT         STANDARD    [  0]    ***   
       ANHARMONIC           IANHAR         OFF         [  0]    ***   
       ANH_ALGORIT          IANALG         STANDARD    [  0]    ***   
       ANH_DERIVAT          IANDER         SECOND      [  1]    ***   
       ANH_MODE             ANHMOD         VIBRATION   [  0]    ***   
       ANH_STEPSIZ          ICUBST             50000          x 10-6  
       ANH_SYMMETR          IANHSM         ABELIAN     [  0]    ***   
       AO_LADDERS           IAOLAD         SINGLEPASS  [  1]    ***   
       AV_SCF               IAVSCF         OFF         [  0]    ***   
       BASIS                IBASIS         AUG-PCVQZ   [ 52]    ***   
       BOTHVECTORS          BOTHVC         OFF         [  0]    ***   
       BOX_POTENT           IPIAB          OFF         [  0]    ***   
       BREIT                IBREIT         OFF         [  0]    ***   
       BRUCK_CONV           IBRTOL          10D-  4             ***   
       BRUECKNER            IBRKNR         OFF         [  0]    ***   
       BUFFERSIZE           IBUFFS              4096            ***   
       CACHE_RECS           ICHREC             10               ***   
       CALCLEVEL            ICLLVL         CCSD        [ 10]    ***   
       CCORBOPT             ICCORB         OFF         [  0]  x 0.01  
       CC_CONV              ICCCNV          10D- 14             ***   
       CC_EXPORDER          ICCEOR              5               ***   
       CC_EXTRAPOL          ICCEXT         DIIS        [  1]    ***   
       CC_GUESS             ICCGES         MP2         [  0]    ***   
       CC_MAXCYC            ICCCYC            100              cycles 
       CC_PROGRAM           ICCPRO         VCC         [  0]    ***   
       CHARGE               ICHRGE              0               ***   
       CHOLESKY             ICHOLE         OFF         [  0]    ***   
       CIS_CONV             ICISTL              5               ***   
       COMM_SIZE            IPSIZE            ***               ***   
       CONSTANT             ICONST         OLD         [  1]    ***   
       CONTINUUM            ICONTU         NONE        [  0]    ***   
       CONTRACTION          ICNTYP         GENERAL     [  1]    ***   
       COORDINATES          ICOORD         INTERNAL    [  0]    ***   
       CPHF_CONVER          ICPHFT          10D- 16             ***   
       CPHF_MAXCYC          ICPHFC             64              cycles 
       CUBIC                ICUBIC         OFF         [  0]    ***   
       CURVILINEAR          ICURVY         ON          [  1]    ***   
       DBOC                 IDBOC          ON          [  1]    ***   
       DCT                  IDCT           OFF         [  0]    ***   
       DERIV_LEV            IDRLVL         SECOND      [  2]    ***   
       DEVMEM_SIZE          IDVMEM          50000000           MByte  
       DIAG_MRCC            IEOMST          10D-  0             ***   
       DIFF_TYPE            IDIFTY         RELAXED     [  0]    ***   
       DIRECT               IDIRCT         OFF         [  0]    ***   
       DROPMO               IDRPMO      NONE         
       ECP                  IECP           OFF         [  0]    ***   
       EIGENVECTOR          IVEC                1               ***   
       EL_ANHARM            IELANH         OFF         [  0]    ***   
       EOMFOLLOW            IEOMSR         ENERGY      [  0]    ***   
       EOMIP                IEOMIP         OFF         [  0]    ***   
       EOMLEVEL             HBARFM         SAME        [  0]    ***   
       EOM_MRCC             IMRCCE         NEW         [  1]    ***   
       EOM_NONIT            EOMNON         OFF         [  0]    ***   
       EOM_NSING            IEOMSI          10D-  0             ***   
       EOM_NSTATES          IMRCCD         DAVIDSON    [  0]    ***   
       EOM_NTRIP            IEOMTR          10D-  0             ***   
       EOM_ORDER            IEXORD         ENERGY      [  0]    ***   
       EOM_PROPSTA          IEOMST              0               ***   
       ESTATE_CONV          IEXTOL          10D-  5             ***   
       ESTATE_DIAG          IEXDIG         ITERATIVE   [  0]    ***   
       ESTATE_LOCK          IESLOC         ON          [  1]    ***   
       ESTATE_MAXC          IEXMXC             40               ***   
       ESTATE_PROP          IEXPRP         OFF         [  0]    ***   
       EVAL_HESS            IRECAL              0            # of cyc.
       EXCITATION           IEXCIT              0               ***   
       EXCITE               IEXCIT         NONE        [  0]    ***   
       EXTERN_POT           IEXPOT         OFF         [  0]    ***   
       FCGRADNEW            IFCGNW         OFF         [  0]    ***   
       FC_FIELD             IFINFC              0             x 10-6  
       FD_CALTYPE           IFDCAL         GRADONLY    [  0]    ***   
       FD_PROJECT           IFDPRJ         OFF         [  1]    ***   
       FD_STEPSIZE          IDISFD              0            10-4 bohr
       FD_USEGROUP          IFDGRP         FULL        [  0]    ***   
       FILE_RECSIZ          IFLREC              4096           words  
       FINITE_PERT          IFIPER              0             x 10-6  
       FIXGEOM              IFIXGM         OFF         [  0]    ***   
       FOCK                 IFOCK          AO          [  1]    ***   
       FREQ_ALGORI          IVIALG         STANDARD    [  0]    ***   
       FROZEN_CORE          IFROCO         OFF         [  0]    ***   
       GAMMA_ABCD           IGABCD         STORE       [  0]    ***   
       GAMMA_ABCI           IGABCI         STORE       [  0]    ***   
       GENBAS_1             IGNBS1              0               ***   
       GENBAS_2             IGNBS2              0               ***   
       GENBAS_3             IGNBS3              0               ***   
       GENBAS_4             IGNBS4              0               ***   
       GEO_CONV             ICONTL              5              H/bohr 
       GEO_MAXCYC           IOPTCY             50               ***   
       GEO_MAXSTEP          IMXSTP            300            millibohr
       GEO_METHOD           INR            SINGLE_POINT[  5]    ***   
       GIAO                 IGIAO          OFF         [  1]    ***   
       GIMIC                IGIMIC         OFF         [  0]    ***   
       GRID                 IGRID          OFF         [  0]    ***   
       GRID_ALGO            IGALGO         SERIAL      [  0]    ***   
       GUESS                IGUESS         MOREAD      [  0]    ***   
       HBAR                 IHBAR          OFF         [  0]    ***   
       HESS_TYPE            IHESTP         SCF         [  0]    ***   
       HF2_FILE             IHF2Fl         USE         [  1]    ***   
       HFSTABILITY          ISTABL         OFF         [  0]    ***   
       INCORE               INCORE         OFF         [  0]    ***   
       INPUT_MRCC           IMRCC          ON          [  1]    ***   
       INTEGRALS            INTTYP         VMOL        [  1]    ***   
       JODA_PRINT           IJPRNT              0               ***   
       KEYWORD_OUT          IDMPKW         NO          [  0]    ***   
       LINDEP_TOL           ILINDP              8               ***   
       LINEQ_CONV           IZTACN          10D-  7           cycles  
       LINEQ_EXPOR          ILMAXD              5               ***   
       LINEQ_MAXCY          ILMAXC            100               ***   
       LINEQ_TYPE           ILTYPE         DIIS        [  1]    ***   
       LOCK_ORBOCC          ILOCOC         OFF         [  0]    ***   
       MEMORY_SIZE          IMEMSZ         500000000           words  
       MEM_UNIT             IMEMU          INTEGERWORDS[  0]    ***   
       MRCC                 IMRCCC         OFF         [  0]    ***   
       MULTIPLICTY          IMULTP              1               ***   
       NACOUPLING           IVCOUP         OFF         [  0]    ***   
       NEGEVAL              IDIE           ABORT       [  0]    ***   
       NEWNORM              INEWNO         OFF         [  0]    ***   
       NON-HF               INONHF         OFF         [  0]    ***   
       NTOP_TAMP            ITOPT2             15               ***   
       NUC_MODEL            INUCMO         POINT       [  0]    ***   
       OCCUPATION           IOCCU   ESTIMATED BY SCF 
       OPEN-SHELL           IOPEN          SPIN-ORBITAL[  0]    ***   
       OPTVIB               IOPTVB         OFF         [  0]    ***   
       ORBITALS             IORBTP         STANDARD    [  0]    ***   
       PARALLEL             IPARAL         ON          [  1]    ***   
       PARA_INT             IPINTS         ON          [  1]    ***   
       PARA_PRINT           IPPRIN              0               ***   
       PERT_ORB             IPTORB         STANDARD    [  0]    ***   
       POINTS               IGRDFD              0               ***   
       PRINT                IPRNT               0               ***   
       PROPS                IPROPS         OFF         [  0]    ***   
       PROP_INTEGR          IINTYP         INTERNAL    [  0]    ***   
       PSI                  IPSI           OFF         [  0]    ***   
       QC_ALG               IQCALG         FLM         [  0]    ***   
       QC_LINALG            IQCLIN         TRIDIAG     [  2]    ***   
       QC_MAXCYC            IQCMAX          10D-100           cycles  
       QC_MAXSCFCY          IQCMSC          10D- 15           cycles  
       QC_RTRUST            IQCRTR          10D-  0           x 10-3  
       QC_SKIPSCF           IQCSKI         OFF         [  0]    ***   
       QC_START             IQCSTA          10D-  1             ***   
       QRHFGUESS            IQGUES         OFF         [  0]    ***   
       QUARTIC              IQUART         OFF         [  0]    ***   
       RAMAN_INT            IRAMIN         OFF         [  0]    ***   
       RAMAN_ORB            IRAMRE         UNRELAXED   [  0]    ***   
       RDO                  IRDOFM         ON          [  1]    ***   
       REDUCE_REPR          REDREP         Ir          [  0]    ***   
       REFERENCE            IREFNC         RHF         [  0]    ***   
       RELATIVIST           IRELAT         OFF         [  0]    ***   
       RELAX_DENS           IRDENS         ON          [  1]    ***   
       RESET_FLAGS          IRESET         OFF         [  0]    ***   
       RESTART_CC           ICCRES         OFF         [  0]    ***   
       ROT_EVEC             ROTVEC              0               ***   
       SAVE_INTS            ISVINT         OFF         [  0]    ***   
       SCALE_ON             ISTCRT              0               ***   
       SCF_CONV             ISCFCV          10D- 10             ***   
       SCF_DAMPING          IDAMP               0             x 10-3  
       SCF_EXPORDE          IRPPOR              6               ***   
       SCF_EXPSTAR          IRPPLS              8               ***   
       SCF_EXTRAPO          IRPP           ON          [  1]    ***   
       SCF_MAXCYC           ISCFCY            150              cycles 
       SCF_NOSTOP           ISCFST         OFF         [  0]    ***   
       SCF_PRINT            ISCFPR              0               ***   
       SCF_PROG             ISCFPR         SCF         [  0]    ***   
       SD_FIELD             IFINSD              0             x 10-6  
       SOPERT               IPERSO         OFF         [  0]    ***   
       SPHERICAL            IDFGHI         ON          [  1]    ***   
       SPINORBIT            ISOCAL         OFF         [  0]    ***   
       SPINROTATIO          ISRCON         OFF         [  0]    ***   
       SPIN_FLIP            ISPFLP         OFF         [  0]    ***   
       SPIN_ORBIT           ISPORB         OFF         [  0]    ***   
       SPIN_SCAL            ISCSMP         OFF         [  0]    ***   
       STEEPSCALE           ISTPSC              1000          x 10-3  
       SUBGROUP             ISUBGP         DEFAULT     [  0]    ***   
       SUBGRPAXIS           ISBXYZ         X           [  0]    ***   
       SYMMETRY             ISYM           ON          [  0]    ***   
       SYM_CHECK            ISYMCK         OVERRIDE    [  1]    ***   
       T3_EXTRAPOL          IT3EXT         OFF         [  0]    ***   
       T4_EXTRAPOL          IT4EXP         OFF         [  0]    ***   
       TAMP_SUM             IEVERY              5               ***   
       TESTSUITE            ITESTS         OFF         [  0]    ***   
       THERMOCH             ITHERM         OFF         [  0]    ***   
       TOL_CHOLESK          ITOLCH          10D-  4             ***   
       TRANGRAD             IRESRM         OFF         [  0]    ***   
       TRANS_INV            ITRAIN         IGNORE      [  1]    ***   
       TREAT_PERT           ITREAT         SIMULTANEOUS[  0]    ***   
       TRIP_ALGORI          ITRALG         NORMAL      [  0]    ***   
       UIJ_THRESHO          IUIJTH              1               ***   
       UNITS                IUNITS         ANGSTROM    [  0]    ***   
       UNOS                 IUNOS          OFF         [  0]    ***   
       UPDATE_HESS          IHUPDT         ON          [  1]    ***   
       VIBPHASE             ISETPH         STANDARD    [  0]    ***   
       VIBRATION            IVIB           ANALYTIC    [  1]    ***   
       VIB_ALGORIT          IGEALG         STANDARD    [  0]    ***   
       VNATORB              IVNORB         OFF         [  0]    ***   
       VTRAN                IVTRAN         FULL/PARTIAL[  0]    ***   
       XFIELD               IXEFLD              0             x 10-6  
       XFORM_TOL            IXFTOL          10D- 11             ***   
       YFIELD               IYEFLD              0             x 10-6  
       ZFIELD               IZEFLD            200             x 10-6  
       ZSCALE_EXP           IZEXPS         OFF         [  0]    ***   
    -------------------------------------------------------------------
   2 entries found in Z-matrix 
   Job Title : Carbon Monoxide DBOC calculation                                                
   There are  1 unique internal coordinates.
   Of these,  0 will be optimized.
   User supplied Z-matrix: 
--------------------------------------------------------------------------------
       SYMBOL    BOND      LENGTH    ANGLE     ANGLE     DIHED     ANGLE
                  TO      (ANGST)    WRT      (DEG)      WRT      (DEG)
--------------------------------------------------------------------------------
        C    
        O          1         r    
                  *Initial values for internal coordinates* 
                      Name             Value
                        r               1.2103448276
--------------------------------------------------------------------------------
  read isotopes from ZMAT file 
   Rotational constants (in cm-1): 
          1.6783954480             1.6783954480
   Rotational constants (in MHz): 
      50317.0367333021         50317.0367333021
********************************************************************************
   The full molecular point group is CXv .
   The largest Abelian subgroup of the full molecular point group is C2v .
   The computational point group is C2v .
********************************************************************************
--------------------------------------------------------------------------------
   Analysis of internal coordinates specified by Z-matrix 
--------------------------------------------------------------------------------
   *The nuclear repulsion energy is   20.986168752136749 a.u.
   *There is   1 degree of freedom within the tot. symm. molecular subspace.
   *Z-matrix requests optimization of   0 coordinates.
   *The optimization is constrained.
   *The following   1 parameters can have non-zero 
    derivatives within the totally symmetric subspace:
             r    [ 1]
   *The following   0 parameters are to be optimized:

   *The following coordinates must be varied in an  unconstrained optimization.
             r    [ 1]
--------------------------------------------------------------------------------


 ----------------------------------------------------------------
         Coordinates used in calculation (QCOMP) 
 ----------------------------------------------------------------
 Z-matrix   Atomic            Coordinates (in bohr)
  Symbol    Number           X              Y              Z
 ----------------------------------------------------------------
     C         6        -0.00000000     0.00000000     1.30680521
     O         8         0.00000000     0.00000000    -0.98041551
 ----------------------------------------------------------------
 
   Interatomic distance matrix (Angstroms) 
 
                 C             O    
                [ 1]        [ 2]
  C    [ 1]     0.00000
  O    [ 2]     1.21035     0.00000
 rotcon2
   Rotational constants (in cm-1): 
          1.6783954480             0.0000000000
   Rotational constants (in MHz): 
      50317.0367333021             0.0000000000
  ECPDATA file not present.   Using default ECPDATA. 
  @GTFLGS-I, Hessian will be transformed to curvilinear coordinates.
  There are  218 basis functions.
 @CHECKOUT-I, Total execution time (CPU/WALL):        0.09/       0.12 seconds.
--executable xjoda finished with status     0 in        0.13 seconds (walltime).
 --invoking executable--
/nfs/workspaces/public/cfour_mpi/bin/xvmol
 SERIAL VERSION OF MOLECULE STARTED
********************************************************************************
                    INPUT FROM MOL FILE
********************************************************************************
INTGRL        1    0    1    0    0    0    0    0    0                         
         *** CFOUR Program System (Release V0.1) ***                            
Carbon Monoxide DBOC calculation                                                
    2    2 X  Y       0.10E-08              0    0                              
   9999.00      3.00                                                            
          6.00000000    1    5    1    1    1    1    1                         
C #1  -0.000000000000000   0.000000000000000   1.306805205065530                
   16    9                                                                      
   33980.0000000000       9.100000000000000E-005 -1.900000000000000E-005        
  0.000000000000000E+000  0.000000000000000E+000  0.000000000000000E+000        
  0.000000000000000E+000  0.000000000000000E+000  0.000000000000000E+000        
  0.000000000000000E+000                                                        
   5089.00000000000       7.040000000000000E-004 -1.510000000000000E-004        
  0.000000000000000E+000  0.000000000000000E+000  0.000000000000000E+000        
  0.000000000000000E+000  0.000000000000000E+000  0.000000000000000E+000        
  0.000000000000000E+000                                                        
   1157.00000000000       3.693000000000000E-003 -7.850000000000000E-004        
  0.000000000000000E+000  0.000000000000000E+000  0.000000000000000E+000        
  0.000000000000000E+000  0.000000000000000E+000  0.000000000000000E+000        
  0.000000000000000E+000                                                        
   326.600000000000       1.536000000000000E-002 -3.324000000000000E-003        
  0.000000000000000E+000  0.000000000000000E+000  0.000000000000000E+000        
  0.000000000000000E+000  0.000000000000000E+000  0.000000000000000E+000        
  0.000000000000000E+000                                                        
   106.100000000000       5.292900000000000E-002 -1.151200000000000E-002        
  0.000000000000000E+000  0.000000000000000E+000  0.000000000000000E+000        
  0.000000000000000E+000  0.000000000000000E+000  0.000000000000000E+000        
  0.000000000000000E+000                                                        
   38.1100000000000       0.147043000000000      -3.416000000000000E-002        
  0.000000000000000E+000  0.000000000000000E+000  0.000000000000000E+000        
  0.000000000000000E+000  0.000000000000000E+000  0.000000000000000E+000        
  0.000000000000000E+000                                                        
   14.7500000000000       0.305631000000000      -7.717300000000001E-002        
  0.000000000000000E+000  0.000000000000000E+000  0.000000000000000E+000        
  0.000000000000000E+000  0.000000000000000E+000  0.000000000000000E+000        
  0.000000000000000E+000                                                        
   6.03500000000000       0.399345000000000      -0.141493000000000             
  0.000000000000000E+000  0.000000000000000E+000  0.000000000000000E+000        
  0.000000000000000E+000  0.000000000000000E+000  0.000000000000000E+000        
  0.000000000000000E+000                                                        
   2.53000000000000       0.217051000000000      -0.118019000000000             
  0.000000000000000E+000  0.000000000000000E+000  0.000000000000000E+000        
  0.000000000000000E+000  0.000000000000000E+000  0.000000000000000E+000        
  0.000000000000000E+000                                                        
  0.735500000000000       1.589400000000000E-002  0.273806000000000             
   1.00000000000000       0.000000000000000E+000  0.000000000000000E+000        
  0.000000000000000E+000  0.000000000000000E+000  0.000000000000000E+000        
  0.000000000000000E+000                                                        
  0.290500000000000      -3.084000000000000E-003  0.586510000000000             
  0.000000000000000E+000   1.00000000000000       0.000000000000000E+000        
  0.000000000000000E+000  0.000000000000000E+000  0.000000000000000E+000        
  0.000000000000000E+000                                                        
  0.111100000000000       9.779999999999999E-004  0.285430000000000             
  0.000000000000000E+000  0.000000000000000E+000   1.00000000000000             
  0.000000000000000E+000  0.000000000000000E+000  0.000000000000000E+000        
  0.000000000000000E+000                                                        
   7.21600000000000       0.000000000000000E+000  0.000000000000000E+000        
  0.000000000000000E+000  0.000000000000000E+000  0.000000000000000E+000        
   1.00000000000000       0.000000000000000E+000  0.000000000000000E+000        
  0.000000000000000E+000                                                        
   19.5700000000000       0.000000000000000E+000  0.000000000000000E+000        
  0.000000000000000E+000  0.000000000000000E+000  0.000000000000000E+000        
  0.000000000000000E+000   1.00000000000000       0.000000000000000E+000        
  0.000000000000000E+000                                                        
   53.0730000000000       0.000000000000000E+000  0.000000000000000E+000        
  0.000000000000000E+000  0.000000000000000E+000  0.000000000000000E+000        
  0.000000000000000E+000  0.000000000000000E+000   1.00000000000000             
  0.000000000000000E+000                                                        
  4.145000000000000E-002  0.000000000000000E+000  0.000000000000000E+000        
  0.000000000000000E+000  0.000000000000000E+000  0.000000000000000E+000        
  0.000000000000000E+000  0.000000000000000E+000  0.000000000000000E+000        
   1.00000000000000                                                             
   10    8                                                                      
   34.5100000000000       5.378000000000000E-003  0.000000000000000E+000        
  0.000000000000000E+000  0.000000000000000E+000  0.000000000000000E+000        
  0.000000000000000E+000  0.000000000000000E+000  0.000000000000000E+000        
   7.91500000000000       3.613200000000000E-002  0.000000000000000E+000        
  0.000000000000000E+000  0.000000000000000E+000  0.000000000000000E+000        
  0.000000000000000E+000  0.000000000000000E+000  0.000000000000000E+000        
   2.36800000000000       0.142493000000000       0.000000000000000E+000        
  0.000000000000000E+000  0.000000000000000E+000  0.000000000000000E+000        
  0.000000000000000E+000  0.000000000000000E+000  0.000000000000000E+000        
  0.813200000000000       0.342150000000000        1.00000000000000             
  0.000000000000000E+000  0.000000000000000E+000  0.000000000000000E+000        
  0.000000000000000E+000  0.000000000000000E+000  0.000000000000000E+000        
  0.289000000000000       0.463864000000000       0.000000000000000E+000        
   1.00000000000000       0.000000000000000E+000  0.000000000000000E+000        
  0.000000000000000E+000  0.000000000000000E+000  0.000000000000000E+000        
  0.100700000000000       0.250028000000000       0.000000000000000E+000        
  0.000000000000000E+000   1.00000000000000       0.000000000000000E+000        
  0.000000000000000E+000  0.000000000000000E+000  0.000000000000000E+000        
   8.18200000000000       0.000000000000000E+000  0.000000000000000E+000        
  0.000000000000000E+000  0.000000000000000E+000   1.00000000000000             
  0.000000000000000E+000  0.000000000000000E+000  0.000000000000000E+000        
   24.1860000000000       0.000000000000000E+000  0.000000000000000E+000        
  0.000000000000000E+000  0.000000000000000E+000  0.000000000000000E+000        
   1.00000000000000       0.000000000000000E+000  0.000000000000000E+000        
   71.4940000000000       0.000000000000000E+000  0.000000000000000E+000        
  0.000000000000000E+000  0.000000000000000E+000  0.000000000000000E+000        
  0.000000000000000E+000   1.00000000000000       0.000000000000000E+000        
  3.218000000000000E-002  0.000000000000000E+000  0.000000000000000E+000        
  0.000000000000000E+000  0.000000000000000E+000  0.000000000000000E+000        
  0.000000000000000E+000  0.000000000000000E+000   1.00000000000000             
    6    6                                                                      
   1.84800000000000        1.00000000000000       0.000000000000000E+000        
  0.000000000000000E+000  0.000000000000000E+000  0.000000000000000E+000        
  0.000000000000000E+000                                                        
  0.649000000000000       0.000000000000000E+000   1.00000000000000             
  0.000000000000000E+000  0.000000000000000E+000  0.000000000000000E+000        
  0.000000000000000E+000                                                        
  0.228000000000000       0.000000000000000E+000  0.000000000000000E+000        
   1.00000000000000       0.000000000000000E+000  0.000000000000000E+000        
  0.000000000000000E+000                                                        
   8.65600000000000       0.000000000000000E+000  0.000000000000000E+000        
  0.000000000000000E+000   1.00000000000000       0.000000000000000E+000        
  0.000000000000000E+000                                                        
   33.2130000000000       0.000000000000000E+000  0.000000000000000E+000        
  0.000000000000000E+000  0.000000000000000E+000   1.00000000000000             
  0.000000000000000E+000                                                        
  7.660000000000000E-002  0.000000000000000E+000  0.000000000000000E+000        
  0.000000000000000E+000  0.000000000000000E+000  0.000000000000000E+000        
   1.00000000000000                                                             
    4    4                                                                      
   1.41900000000000        1.00000000000000       0.000000000000000E+000        
  0.000000000000000E+000  0.000000000000000E+000                                
  0.485000000000000       0.000000000000000E+000   1.00000000000000             
  0.000000000000000E+000  0.000000000000000E+000                                
   24.6940000000000       0.000000000000000E+000  0.000000000000000E+000        
   1.00000000000000       0.000000000000000E+000                                
  0.187000000000000       0.000000000000000E+000  0.000000000000000E+000        
  0.000000000000000E+000   1.00000000000000                                     
    2    2                                                                      
   1.01100000000000        1.00000000000000       0.000000000000000E+000        
  0.424000000000000       0.000000000000000E+000   1.00000000000000             
          8.00000000    1    5    1    1    1    1    1                         
O #2   0.000000000000000   0.000000000000000  -0.980415514777046                
   16    9                                                                      
   61420.0000000000       9.000000000000001E-005 -2.000000000000000E-005        
  0.000000000000000E+000  0.000000000000000E+000  0.000000000000000E+000        
  0.000000000000000E+000  0.000000000000000E+000  0.000000000000000E+000        
  0.000000000000000E+000                                                        
   9199.00000000000       6.980000000000001E-004 -1.590000000000000E-004        
  0.000000000000000E+000  0.000000000000000E+000  0.000000000000000E+000        
  0.000000000000000E+000  0.000000000000000E+000  0.000000000000000E+000        
  0.000000000000000E+000                                                        
   2091.00000000000       3.664000000000000E-003 -8.290000000000000E-004        
  0.000000000000000E+000  0.000000000000000E+000  0.000000000000000E+000        
  0.000000000000000E+000  0.000000000000000E+000  0.000000000000000E+000        
  0.000000000000000E+000                                                        
   590.900000000000       1.521800000000000E-002 -3.508000000000000E-003        
  0.000000000000000E+000  0.000000000000000E+000  0.000000000000000E+000        
  0.000000000000000E+000  0.000000000000000E+000  0.000000000000000E+000        
  0.000000000000000E+000                                                        
   192.300000000000       5.242300000000000E-002 -1.215600000000000E-002        
  0.000000000000000E+000  0.000000000000000E+000  0.000000000000000E+000        
  0.000000000000000E+000  0.000000000000000E+000  0.000000000000000E+000        
  0.000000000000000E+000                                                        
   69.3200000000000       0.145921000000000      -3.626100000000000E-002        
  0.000000000000000E+000  0.000000000000000E+000  0.000000000000000E+000        
  0.000000000000000E+000  0.000000000000000E+000  0.000000000000000E+000        
  0.000000000000000E+000                                                        
   26.9700000000000       0.305258000000000      -8.299200000000000E-002        
  0.000000000000000E+000  0.000000000000000E+000  0.000000000000000E+000        
  0.000000000000000E+000  0.000000000000000E+000  0.000000000000000E+000        
  0.000000000000000E+000                                                        
   11.1000000000000       0.398508000000000      -0.152090000000000             
  0.000000000000000E+000  0.000000000000000E+000  0.000000000000000E+000        
  0.000000000000000E+000  0.000000000000000E+000  0.000000000000000E+000        
  0.000000000000000E+000                                                        
   4.68200000000000       0.216980000000000      -0.115331000000000             
  0.000000000000000E+000  0.000000000000000E+000  0.000000000000000E+000        
  0.000000000000000E+000  0.000000000000000E+000  0.000000000000000E+000        
  0.000000000000000E+000                                                        
   1.42800000000000       1.759400000000000E-002  0.288979000000000             
   1.00000000000000       0.000000000000000E+000  0.000000000000000E+000        
  0.000000000000000E+000  0.000000000000000E+000  0.000000000000000E+000        
  0.000000000000000E+000                                                        
  0.554700000000000      -2.502000000000000E-003  0.586128000000000             
  0.000000000000000E+000   1.00000000000000       0.000000000000000E+000        
  0.000000000000000E+000  0.000000000000000E+000  0.000000000000000E+000        
  0.000000000000000E+000                                                        
  0.206700000000000       9.540000000000000E-004  0.277624000000000             
  0.000000000000000E+000  0.000000000000000E+000   1.00000000000000             
  0.000000000000000E+000  0.000000000000000E+000  0.000000000000000E+000        
  0.000000000000000E+000                                                        
   12.9740000000000       0.000000000000000E+000  0.000000000000000E+000        
  0.000000000000000E+000  0.000000000000000E+000  0.000000000000000E+000        
   1.00000000000000       0.000000000000000E+000  0.000000000000000E+000        
  0.000000000000000E+000                                                        
   34.9000000000000       0.000000000000000E+000  0.000000000000000E+000        
  0.000000000000000E+000  0.000000000000000E+000  0.000000000000000E+000        
  0.000000000000000E+000   1.00000000000000       0.000000000000000E+000        
  0.000000000000000E+000                                                        
   93.8810000000000       0.000000000000000E+000  0.000000000000000E+000        
  0.000000000000000E+000  0.000000000000000E+000  0.000000000000000E+000        
  0.000000000000000E+000  0.000000000000000E+000   1.00000000000000             
  0.000000000000000E+000                                                        
  6.959000000000000E-002  0.000000000000000E+000  0.000000000000000E+000        
  0.000000000000000E+000  0.000000000000000E+000  0.000000000000000E+000        
  0.000000000000000E+000  0.000000000000000E+000  0.000000000000000E+000        
   1.00000000000000                                                             
   10    8                                                                      
   63.4200000000000       6.044000000000000E-003  0.000000000000000E+000        
  0.000000000000000E+000  0.000000000000000E+000  0.000000000000000E+000        
  0.000000000000000E+000  0.000000000000000E+000  0.000000000000000E+000        
   14.6600000000000       4.179900000000000E-002  0.000000000000000E+000        
  0.000000000000000E+000  0.000000000000000E+000  0.000000000000000E+000        
  0.000000000000000E+000  0.000000000000000E+000  0.000000000000000E+000        
   4.45900000000000       0.161143000000000       0.000000000000000E+000        
  0.000000000000000E+000  0.000000000000000E+000  0.000000000000000E+000        
  0.000000000000000E+000  0.000000000000000E+000  0.000000000000000E+000        
   1.53100000000000       0.356731000000000        1.00000000000000             
  0.000000000000000E+000  0.000000000000000E+000  0.000000000000000E+000        
  0.000000000000000E+000  0.000000000000000E+000  0.000000000000000E+000        
  0.530200000000000       0.448309000000000       0.000000000000000E+000        
   1.00000000000000       0.000000000000000E+000  0.000000000000000E+000        
  0.000000000000000E+000  0.000000000000000E+000  0.000000000000000E+000        
  0.175000000000000       0.244940000000000       0.000000000000000E+000        
  0.000000000000000E+000   1.00000000000000       0.000000000000000E+000        
  0.000000000000000E+000  0.000000000000000E+000  0.000000000000000E+000        
   14.4750000000000       0.000000000000000E+000  0.000000000000000E+000        
  0.000000000000000E+000  0.000000000000000E+000   1.00000000000000             
  0.000000000000000E+000  0.000000000000000E+000  0.000000000000000E+000        
   42.7300000000000       0.000000000000000E+000  0.000000000000000E+000        
  0.000000000000000E+000  0.000000000000000E+000  0.000000000000000E+000        
   1.00000000000000       0.000000000000000E+000  0.000000000000000E+000        
   126.140000000000       0.000000000000000E+000  0.000000000000000E+000        
  0.000000000000000E+000  0.000000000000000E+000  0.000000000000000E+000        
  0.000000000000000E+000   1.00000000000000       0.000000000000000E+000        
  5.348000000000000E-002  0.000000000000000E+000  0.000000000000000E+000        
  0.000000000000000E+000  0.000000000000000E+000  0.000000000000000E+000        
  0.000000000000000E+000  0.000000000000000E+000   1.00000000000000             
    6    6                                                                      
   3.77500000000000        1.00000000000000       0.000000000000000E+000        
  0.000000000000000E+000  0.000000000000000E+000  0.000000000000000E+000        
  0.000000000000000E+000                                                        
   1.30000000000000       0.000000000000000E+000   1.00000000000000             
  0.000000000000000E+000  0.000000000000000E+000  0.000000000000000E+000        
  0.000000000000000E+000                                                        
  0.444000000000000       0.000000000000000E+000  0.000000000000000E+000        
   1.00000000000000       0.000000000000000E+000  0.000000000000000E+000        
  0.000000000000000E+000                                                        
   14.9270000000000       0.000000000000000E+000  0.000000000000000E+000        
  0.000000000000000E+000   1.00000000000000       0.000000000000000E+000        
  0.000000000000000E+000                                                        
   57.5440000000000       0.000000000000000E+000  0.000000000000000E+000        
  0.000000000000000E+000  0.000000000000000E+000   1.00000000000000             
  0.000000000000000E+000                                                        
  0.154000000000000       0.000000000000000E+000  0.000000000000000E+000        
  0.000000000000000E+000  0.000000000000000E+000  0.000000000000000E+000        
   1.00000000000000                                                             
    4    4                                                                      
   2.66600000000000        1.00000000000000       0.000000000000000E+000        
  0.000000000000000E+000  0.000000000000000E+000                                
  0.859000000000000       0.000000000000000E+000   1.00000000000000             
  0.000000000000000E+000  0.000000000000000E+000                                
   26.4830000000000       0.000000000000000E+000  0.000000000000000E+000        
   1.00000000000000       0.000000000000000E+000                                
  0.324000000000000       0.000000000000000E+000  0.000000000000000E+000        
  0.000000000000000E+000   1.00000000000000                                     
    2    2                                                                      
   1.84600000000000        1.00000000000000       0.000000000000000E+000        
  0.714000000000000       0.000000000000000E+000   1.00000000000000             
FINISH                                                                          
 
********************************************************************************
 ONE- AND TWO-ELECTRON INTEGRALS OVER SYMMETRY-ADAPTED AOS ARE CALCULATED.

  SPHERICAL HARMONICS ARE USED.
  
  INTEGRALS LESS THAN  0.10E-13 ARE NEGLECTED.

  NUCLEAR REPULSION ENERGY :   20.9861687521 A.U.
  @MOLECU-I, ONE ELECTRON INTEGRALS (CPU/WALL):        0.06/       0.07 SECONDS.
  @TWOEL-I,    4560793 INTEGRALS OF SYMMETRY TYPE  I I I I
  @TWOEL-I,   19597775 INTEGRALS OF SYMMETRY TYPE  I J I J
  @TWOEL-I,   10326637 INTEGRALS OF SYMMETRY TYPE  I I J J
  @TWOEL-I,   14500556 INTEGRALS OF SYMMETRY TYPE  I J K L
  @TWOEL-I, TOTAL NUMBER OF 2-E INTEGRALS   48985761.
  @MOLECU-I, TWO ELECTRON INTEGRALS (CPU/WALL):      186.57/      26.11 SECONDS.
 @CHECKOUT-I, Total execution time (CPU/WALL):      186.64/      26.19 seconds.

Running with 14 threads/proc

--executable xvmol finished with status     0 in       26.21 seconds (walltime).
 --invoking executable--
/nfs/workspaces/public/cfour_mpi/bin/xvmol2ja
 @GETMEM-I,  Allocated    3814 MB of main memory.
 @CHECKOUT-I, Total execution time (CPU/WALL):        0.17/       0.05 seconds.
--executable xvmol2ja finished with status     0 in        0.07 seconds (walltime).
 --invoking executable--
/nfs/workspaces/public/cfour_mpi/bin/xvprop
 @GETMEM-I,  Allocated    3814 MB of main memory.
   Property integrals will be calculated.
    --------------------------------------------------------------
                                   Property evaluated at 
    Property type                X             Y             Z
    --------------------------------------------------------------
    Dipole moment               ----          ----          ----  
    Quadrupole moment           ----          ----          ----  
    Octopole moment             ----          ----          ----  
    Relativisitic corr.         ----          ----          ----  
    Second moment            0.0000000     0.0000000     0.0000000
    Electron density         0.0000000     0.0000000     1.3068052
    Electron density         0.0000000     0.0000000    -0.9804155
    Field gradient           0.0000000     0.0000000     1.3068052
    Field gradient           0.0000000     0.0000000    -0.9804155
    Potential                0.0000000     0.0000000     1.3068052
    Potential                0.0000000     0.0000000    -0.9804155
    --------------------------------------------------------------
 @CHECKOUT-I, Total execution time (CPU/WALL):        1.46/       1.50 seconds.
--executable xvprop finished with status     0 in        1.51 seconds (walltime).
 --invoking executable--
/nfs/workspaces/public/cfour_mpi/bin/xvscf
  There are  218 functions in the AO basis.

  There are 4 irreducible representations.

       Irrep        # of functions
         1                 86
         2                 52
         3                 52
         4                 28


  Parameters for SCF calculation: 
        SCF reference function:  RHF  
  Maximum number of iterations:  150
     Full symmetry point group: CXv 
     Computational point group: C2v 
        Initial density matrix: MOREAD                 
     SCF convergence tolerance: 10**(-10)
  DIIS convergence acceleration:  ON
          Latest start for DIIS:   8
                     DIIS order:   6

  Memory information:    2523578 words required.
  Fock matrices are constructed from AO integral file.
 @GETMEM-I,  Allocated      19 MB of main memory.
  Initialization and symmetry analysis required      0.001 seconds.

  Adding electric field perturbation to one-electron Hamiltonian.
  Field direction     : Z
  Field strength      :  0.0002000 a.u.

  @INITGES-I, Occupancies from core Hamiltonian:

          Alpha population by irrep:   5    1    1    0
           Beta population by irrep:   5    1    1    0


 total no. of electrons in initial guess :  0.000000000000000E+000
  --------------------------------------------------------------------
  Iteration         Total Energy            Largest Density Difference
  --------------------------------------------------------------------
       0            20.986169250714315              0.0000000000D+00
   current occupation vector 
     5  1  1  0
     5  1  1  0
       1           -92.349131063200304              0.1826995137D+02
   current occupation vector 
     5  1  1  0
     5  1  1  0
       2           -97.762266660451616              0.1826543480D+02
   current occupation vector 
     5  1  1  0
     5  1  1  0
       3          -103.505867802795692              0.9531863895D+01
   current occupation vector 
     5  1  1  0
     5  1  1  0
       4           -99.970776880154204              0.7315347753D+01
   current occupation vector 
     5  1  1  0
     5  1  1  0
       5          -102.625263230882098              0.6049807731D+01
   current occupation vector 
     5  1  1  0
     5  1  1  0
       6           -99.354171058570671              0.5878880419D+01
   current occupation vector 
     5  1  1  0
     5  1  1  0
       7          -102.612697604409419              0.5902022127D+01
   current occupation vector 
     5  1  1  0
     5  1  1  0
       8           -99.236306858269415              0.5896404171D+01
   current occupation vector 
     5  1  1  0
     5  1  1  0
       9          -110.115387036637543              0.4461953645D+01
   current occupation vector 
     5  1  1  0
     5  1  1  0
      10          -111.929125906786282              0.1045852425D+01
   current occupation vector 
     5  1  1  0
     5  1  1  0
      11          -112.722346248340216              0.6046745443D+00
   current occupation vector 
     5  1  1  0
     5  1  1  0
      12          -112.764606434002474              0.1553185240D+00
   current occupation vector 
     5  1  1  0
     5  1  1  0
      13          -112.765624635107571              0.3922333099D-01
   current occupation vector 
     5  1  1  0
     5  1  1  0
      14          -112.765777074907163              0.1722697798D-01
   current occupation vector 
     5  1  1  0
     5  1  1  0
      15          -112.765797551201274              0.8890091788D-02
   current occupation vector 
     5  1  1  0
     5  1  1  0
      16          -112.765797759801529              0.6464131543D-03
   current occupation vector 
     5  1  1  0
     5  1  1  0
      17          -112.765797768464125              0.1294822845D-03
   current occupation vector 
     5  1  1  0
     5  1  1  0
      18          -112.765797768776395              0.3031882624D-04
   current occupation vector 
     5  1  1  0
     5  1  1  0
      19          -112.765797768788133              0.6193006955D-05
   current occupation vector 
     5  1  1  0
     5  1  1  0
      20          -112.765797768789241              0.1061900911D-05
   current occupation vector 
     5  1  1  0
     5  1  1  0
      21          -112.765797768789383              0.1287140570D-06
   current occupation vector 
     5  1  1  0
     5  1  1  0
      22          -112.765797768789071              0.2740060623D-07
   current occupation vector 
     5  1  1  0
     5  1  1  0
      23          -112.765797768790009              0.1480763845D-07
   current occupation vector 
     5  1  1  0
     5  1  1  0
      24          -112.765797768789611              0.2871498872D-09
   current occupation vector 
     5  1  1  0
     5  1  1  0
      25          -112.765797768790151              0.1318254395D-09
   current occupation vector 
     5  1  1  0
     5  1  1  0

  SCF has converged.

 Density matrix saved to file den.dat
 total electron number:   13.9999999999999     
     E(SCF)=      -112.765797768789668              0.9748002405D-10

  Eigenvector printing suppressed.

 @PUTMOS-I, Writing converged MOs to NEWMOS. 
 @PUTMOS-I, Symmetry   1 Full Blocks 21 Partial Blocksize   2
 @PUTMOS-I, Symmetry   2 Full Blocks 13 Partial Blocksize   0
 @PUTMOS-I, Symmetry   3 Full Blocks 13 Partial Blocksize   0
 @PUTMOS-I, Symmetry   4 Full Blocks  7 Partial Blocksize   0
 @PUTFOCK-I, Writing converged Fock matrix to NEWFOCK. 
 @PUTFOCK-I, Symmetry   1 Full Blocks 21 Partial Blocksize   2
 @PUTFOCK-I, Symmetry   2 Full Blocks 13 Partial Blocksize   0
 @PUTFOCK-I, Symmetry   3 Full Blocks 13 Partial Blocksize   0
 @PUTFOCK-I, Symmetry   4 Full Blocks  7 Partial Blocksize   0


 
  ORBITAL EIGENVALUES (ALPHA)  (1H = 27.2113834 eV)

       MO #        E(hartree)               E(eV)           FULLSYM    COMPSYM
       ----   --------------------   --------------------   -------   ---------
    1     1         -20.6667493060        -562.3708389961     SG+        A1 (1)
    2     2         -11.3965328648        -310.1154252149     SG+        A1 (1)
    3     3          -1.4668505361         -39.9150323278     SG+        A1 (1)
    4     4          -0.7981502028         -21.7187711792     SG+        A1 (1)
    5    87          -0.6067197660         -16.5096841684      PI        B1 (2)
    6   139          -0.6067197660         -16.5096841684      PI        B2 (3)
    7     5          -0.5624227925         -15.3043022405     SG+        A1 (1)
  +++++++++++++++++++++++++++++++++++++++++++++++++++++++++++++++++++++++++++++
    8   140           0.0592694120           1.6128026935      PI        B2 (3)
    9    88           0.0592694120           1.6128026935      PI        B1 (2)
   10     6           0.0611147139           1.6630159116     SG+        A1 (1)
   11     7           0.0739842713           2.0132143709     SG+        A1 (1)
   12   141           0.1207234849           3.2850530325      PI        B2 (3)
   13    89           0.1207234849           3.2850530325      PI        B1 (2)
   14     8           0.1561525759           4.2491276121     SG+        A1 (1)
   15   142           0.1664305744           4.5288061708      PI        B2 (3)
   16    90           0.1664305744           4.5288061708      PI        B1 (2)
   17   191           0.2277737674           6.1980393120      DE        A2 (4)
   18     9           0.2277737674           6.1980393120      DE        A1 (1)
   19    10           0.2283317379           6.2132224632     SG+        A1 (1)
   20    11           0.3006284906           8.1805171183     SG+        A1 (1)
   21   143           0.3129859376           8.5167803480      PI        B2 (3)
   22    91           0.3129859376           8.5167803480      PI        B1 (2)
   23    12           0.3885982115          10.5742949208     SG+        A1 (1)
   24   144           0.3953066931          10.7568419868      PI        B2 (3)
   25    92           0.3953066931          10.7568419868      PI        B1 (2)
   26    13           0.5086140368          13.8400915579     SG+        A1 (1)
   27    14           0.5393400020          14.6761875767      DE        A1 (1)
   28   192           0.5393400020          14.6761875767      DE        A2 (4)
   29    15           0.6138825073          16.7045922682     SG+        A1 (1)
   30   145           0.6247640527          17.0006941720      PI        B2 (3)
   31    93           0.6247640527          17.0006941720      PI        B1 (2)
   32   146           0.7470653740          20.3286823156      PH        B2 (3)
   33    94           0.7470653740          20.3286823156      PH        B1 (2)
   34    16           0.7650432034          20.8178839248      DE        A1 (1)
   35   193           0.7650432034          20.8178839248      DE        A2 (4)
   36    17           0.7768275585          21.1385525308     SG+        A1 (1)
   37   147           0.8137713733          22.1438448390      PI        B2 (3)
   38    95           0.8137713733          22.1438448390      PI        B1 (2)
   39    18           0.8578900470          23.3443749853     SG+        A1 (1)
   40    19           0.8762256527          23.8433121794     SG+        A1 (1)
   41   194           0.8862852728          24.1170483611      DE        A2 (4)
   42    20           0.8862852728          24.1170483611      DE        A1 (1)
   43   148           0.8875667731          24.1519197572      PI        B2 (3)
   44    96           0.8875667731          24.1519197572      PI        B1 (2)
   45   149           1.0595845207          28.8327606386      PI        B2 (3)
   46    97           1.0595845207          28.8327606387      PI        B1 (2)
   47    21           1.1488824674          31.2626813025     SG+        A1 (1)
   48   150           1.4414228649          39.2231102185      PH        B2 (3)
   49    98           1.4414228649          39.2231102185      PH        B1 (2)
   50    22           1.4456226801          39.3373929992     SG+        A1 (1)
   51   195           1.5310079145          41.6608433506      DE        A2 (4)
   52    23           1.5310079145          41.6608433506      DE        A1 (1)
   53   151           1.5648796226          42.5825393849      PI        B2 (3)
   54    99           1.5648796226          42.5825393849      PI        B1 (2)
   55    24           1.6650261283          45.3076643489     SG+        A1 (1)
   56   152           1.7433296112          47.4384104435      PI        B2 (3)
   57   100           1.7433296112          47.4384104435      PI        B1 (2)
   58   196           1.7568281864          47.8057253479      DE        A2 (4)
   59    25           1.7568281864          47.8057253480      DE        A1 (1)
   60    26           1.8006113111          48.9971247400     SG+        A1 (1)
   61   153           2.0077085958          54.6325283545      PI        B2 (3)
   62   101           2.0077085958          54.6325283546      PI        B1 (2)
   63    27           2.0875640258          56.8055050778     SG+        A1 (1)
   64   197           2.0999980018          57.1438507675      PI        A2 (4)
   65    28           2.0999980018          57.1438507675      PI        A1 (1)
   66   198           2.1802014888          59.3262985997      DE        A2 (4)
   67    29           2.1802014888          59.3262985997      DE        A1 (1)
   68   154           2.2448231214          61.0847426209      PH        B2 (3)
   69   102           2.2448231214          61.0847426209      PH        B1 (2)
   70   155           2.3079276151          62.8019031929      PI        B2 (3)
   71   103           2.3079276151          62.8019031929      PI        B1 (2)
   72    30           2.3085495493          62.8188268831     SG+        A1 (1)
   73   156           2.3334442439          63.4962459619      PH        B2 (3)
   74   104           2.3334442439          63.4962459619      PH        B1 (2)
   75   199           2.3512466849          63.9806750101      DE        A2 (4)
   76    31           2.3512466849          63.9806750101      DE        A1 (1)
   77    32           2.4816951977          67.5303595067     SG+        A1 (1)
   78   157           2.5772723249          70.1311453603      PI        B2 (3)
   79   105           2.5772723249          70.1311453604      PI        B1 (2)
   80   158           2.7627514231          75.1782882123      PI        B2 (3)
   81   106           2.7627514231          75.1782882123      PI        B1 (2)
   82    33           2.8280539980          76.9552616168     SG+        A1 (1)
   83    34           2.9393301930          79.9832408207      DE        A1 (1)
   84   200           2.9393301930          79.9832408208      DE        A2 (4)
   85    35           3.4751727791          94.5642588733     SG+        A1 (1)
   86   201           3.7113333169         100.9905138101      PI        A2 (4)
   87    36           3.7113333169         100.9905138101      PI        A1 (1)
   88   159           3.7149897817         101.0900112771      PI        B2 (3)
   89   107           3.7149897817         101.0900112772      PI        B1 (2)
   90    37           3.9180165666         106.6146509601     SG+        A1 (1)
   91   160           4.0877691487         111.2338535546      PH        B2 (3)
   92   108           4.0877691487         111.2338535546      PH        B1 (2)
   93   202           4.1858398215         113.9024922334      DE        A2 (4)
   94    38           4.1858398215         113.9024922335      DE        A1 (1)
   95   109           4.2014728065         114.3278873826      PH        B1 (2)
   96   161           4.2014728065         114.3278873826      PH        B2 (3)
   97   110           4.2015164081         114.3290738430      PI        B1 (2)
   98   162           4.2015164081         114.3290738430      PI        B2 (3)
   99    39           4.2463022184         115.5477576963     SG+        A1 (1)
  100    40           4.3463510477         118.2702247488      DE        A1 (1)
  101   203           4.3463510477         118.2702247488      DE        A2 (4)
  102    41           4.4263177285         120.4462287606     SG+        A1 (1)
  103   163           4.8146771393         131.0140255836      PI        B2 (3)
  104   111           4.8146771393         131.0140255836      PI        B1 (2)
  105   112           5.0008868411         136.0810491721      PI        B1 (2)
  106   164           5.0008868411         136.0810491721      PI        B2 (3)
  107    42           5.0901579986         138.5102408673      DE        A1 (1)
  108   204           5.0901579986         138.5102408673      DE        A2 (4)
  109    43           5.1271186078         139.5159901728     SG+        A1 (1)
  110    44           5.5597171105         151.2875938894     SG+        A1 (1)
  111   113           5.7196296301         155.6390347693      PI        B1 (2)
  112   165           5.7196296301         155.6390347694      PI        B2 (3)
  113   205           5.8885624328         160.2359300325      PI        A2 (4)
  114    45           5.8885624328         160.2359300325      PI        A1 (1)
  115   166           6.0635896161         164.9986618226      PH        B2 (3)
  116   114           6.0635896161         164.9986618226      PH        B1 (2)
  117    46           6.2374201253         169.7288304560     SG+        A1 (1)
  118    47           6.2751294983         170.7549546627      DE        A1 (1)
  119   206           6.2751294983         170.7549546628      DE        A2 (4)
  120   115           6.3033454583         171.5227499698      PI        B1 (2)
  121   167           6.3033454583         171.5227499698      PI        B2 (3)
  122   168           6.4285211910         174.9289548247      PH        B2 (3)
  123   116           6.4285211910         174.9289548247      PH        B1 (2)
  124    48           6.5593318287         178.4884932395      DE        A1 (1)
  125   207           6.5593318287         178.4884932396      DE        A2 (4)
  126    49           6.8310806130         185.8831535955     SG+        A1 (1)
  127   208           7.0578443710         192.0537091580      DE        A2 (4)
  128    50           7.0578443710         192.0537091581      DE        A1 (1)
  129   169           7.3077391958         198.8536930428      PI        B2 (3)
  130   117           7.3077391958         198.8536930428      PI        B1 (2)
  131    51           7.6623499073         208.5031410729     SG+        A1 (1)
  132    52           8.1451288438         221.6402238116     SG+        A1 (1)
  133   118           8.2330700407         224.0332254376      PI        B1 (2)
  134   170           8.2330700407         224.0332254376      PI        B2 (3)
  135   171          10.1132034946         275.1942576939      PI        B2 (3)
  136   119          10.1132034946         275.1942576940      PI        B1 (2)
  137    53          10.4938616825         285.5524935892     SG+        A1 (1)
  138   209          10.6069053948         288.6285693843      PI        A2 (4)
  139    54          10.6069053948         288.6285693843      PI        A1 (1)
  140   120          10.8336123776         294.7975800126      PH        B1 (2)
  141   172          10.8336123776         294.7975800126      PH        B2 (3)
  142    55          11.0136131607         299.6956503348     SG+        A1 (1)
  143    56          11.0722057380         301.2900354210      DE        A1 (1)
  144   210          11.0722057380         301.2900354210      DE        A2 (4)
  145   121          11.3107344768         307.7807323848      PI        B1 (2)
  146   173          11.3107344768         307.7807323848      PI        B2 (3)
  147    57          11.4883475525         312.6138298824     SG+        A1 (1)
  148   122          11.8560865050         322.6205155110      PH        B1 (2)
  149   174          11.8560865050         322.6205155110      PH        B2 (3)
  150    58          12.2107481137         332.2713485235      DE        A1 (1)
  151   211          12.2107481137         332.2713485236      DE        A2 (4)
  152   175          12.5679833293         341.9922129381      PI        B2 (3)
  153   123          12.5679833293         341.9922129381      PI        B1 (2)
  154    59          12.8296318973         349.1120324382      DE        A1 (1)
  155   212          12.8296318973         349.1120324383      DE        A2 (4)
  156    60          13.0751375641         355.7925812645     SG+        A1 (1)
  157   124          13.7555238504         374.3068333605      PI        B1 (2)
  158   176          13.7555238504         374.3068333606      PI        B2 (3)
  159    61          15.0496813850         409.5226502157     SG+        A1 (1)
  160    62          17.9278456267         487.8414808841     SG+        A1 (1)
  161   125          19.2439750252         523.6551825497      PI        B1 (2)
  162   177          19.2439750252         523.6551825499      PI        B2 (3)
  163    63          20.5368873396         558.8371152393     SG+        A1 (1)
  164    64          26.4606544374         720.0310129117      DE        A1 (1)
  165   213          26.4606544374         720.0310129118      DE        A2 (4)
  166   126          26.8960465461         731.8786345104      PI        B1 (2)
  167   178          26.8960465461         731.8786345104      PI        B2 (3)
  168    65          27.8639259356         758.2159716636     SG+        A1 (1)
  169   179          33.7643929189         918.7758409837      PI        B2 (3)
  170   127          33.7643929189         918.7758409841      PI        B1 (2)
  171    66          34.8029052217         947.0351974218     SG+        A1 (1)
  172    67          36.5055236693         993.3658007831     SG+        A1 (1)
  173   214          47.1041343440        1281.7686593602      DE        A2 (4)
  174    68          47.1041343440        1281.7686593602      DE        A1 (1)
  175   128          47.5159058854        1292.9735326471      PI        B1 (2)
  176   180          47.5159058854        1292.9735326471      PI        B2 (3)
  177    69          48.3387063095        1315.3630704483     SG+        A1 (1)
  178    70          64.1156606106        1744.6758228201     SG+        A1 (1)
  179   129          66.7170272228        1815.4626070676      PI        B1 (2)
  180   181          66.7170272228        1815.4626070677      PI        B2 (3)
  181    71          67.7139601542        1842.5905312881     SG+        A1 (1)
  182   130          98.6380442335        2684.0776394645      PH        B1 (2)
  183   182          98.6380442335        2684.0776394645      PH        B2 (3)
  184    72          98.6555809246        2684.5548370894      DE        A1 (1)
  185   215          98.6555809246        2684.5548370894      DE        A2 (4)
  186   183          98.7074837712        2685.9671853461      PI        B2 (3)
  187   131          98.7074837712        2685.9671853462      PI        B1 (2)
  188    73          98.7244402067        2686.4285934159     SG+        A1 (1)
  189   132         103.2827795840        2810.4673138787      PH        B1 (2)
  190   184         103.2827795840        2810.4673138787      PH        B2 (3)
  191    74         103.3221693866        2811.5391648974      DE        A1 (1)
  192   216         103.3221693866        2811.5391648992      DE        A2 (4)
  193   185         103.3546011449        2812.4216779080      PI        B2 (3)
  194   133         103.3546011449        2812.4216779080      PI        B1 (2)
  195    75         103.3928113606        2813.4614307358     SG+        A1 (1)
  196    76         115.1301266373        3132.8500168176      DE        A1 (1)
  197   217         115.1301266373        3132.8500168176      DE        A2 (4)
  198   186         115.3430962908        3138.6452157115      PI        B2 (3)
  199   134         115.3430962908        3138.6452157115      PI        B1 (2)
  200    77         115.8287759433        3151.8612309450     SG+        A1 (1)
  201   187         117.0184575122        3184.2341122401      PI        B2 (3)
  202   135         117.0184575122        3184.2341122406      PI        B1 (2)
  203    78         117.8343131359        3206.4346724159     SG+        A1 (1)
  204    79         122.7101215777        3339.1121653118     SG+        A1 (1)
  205   218         198.5664672357        5403.2682703336      DE        A2 (4)
  206    80         198.5664672357        5403.2682703337      DE        A1 (1)
  207   136         198.7872818485        5409.2769414231      PI        B1 (2)
  208   188         198.7872818485        5409.2769414235      PI        B2 (3)
  209    81         199.2003977815        5420.5183974644     SG+        A1 (1)
  210    82         216.6025940090        5894.0562310124     SG+        A1 (1)
  211   137         225.1439919728        6126.4794857795      PI        B1 (2)
  212   189         225.1439919728        6126.4794857795      PI        B2 (3)
  213    83         225.9580199117        6148.6303121223     SG+        A1 (1)
  214   190         395.4767752523       10761.4701571851      PI        B2 (3)
  215   138         395.4767752523       10761.4701571857      PI        B1 (2)
  216    84         396.1493636111       10779.7722168868     SG+        A1 (1)
  217    85         509.2846124575       13858.3388493002     SG+        A1 (1)
  218    86         895.4305910610       24365.9051214498     SG+        A1 (1)


  VSCF finished.

 @CHECKOUT-I, Total execution time (CPU/WALL):       47.90/      10.71 seconds.
--executable xvscf finished with status     0 in       10.73 seconds (walltime).
 --invoking executable--
/nfs/workspaces/public/cfour_mpi/bin/xvtran
 @GETMEM-I,  Allocated    3814 MB of main memory.
  Full RHF integral transformation
  Transformation of IIII integrals :
  1 pass through the AO integral file was required.
     4560793 AO integrals were read.
     8794863 MO integrals were written to HF2.
  Transformation of IIJJ integrals :
  1 pass through the AO integral file was required.
    10326637 AO integrals were read.
    14607012 MO integrals were written to HF2.
  Transformation of IJIJ integrals :
  1 pass through the AO integral file was required.
    19597775 AO integrals were read.
    27461415 MO integrals were written to HF2.
  Transformation of IJKL integrals :
  1 pass through the AO integral file was required.
    14500556 AO integrals were read.
    18555124 MO integrals were written to HF2.
  Summary of active molecular orbitals: 
------------------------------------------------------------------------
 
  Index      Eigenvalue    Symmetry    Index      Eigenvalue    Symmetry
------------------------------------------------------------------------
     1       -20.6667493        1       110         4.2014728        2
     2       -11.3965329        1       111         4.2015164        2
     3        -1.4668505        1       112         4.8146771        2
     4        -0.7981502        1       113         5.0008868        2
     5        -0.5624228        1       114         5.7196296        2
     6        -0.6067198        2       115         6.0635896        2
     7        -0.6067198        3       116         6.3033455        2
     8         0.0611147        1       117         6.4285212        2
     9         0.0739843        1       118         7.3077392        2
    10         0.1561526        1       119         8.2330700        2
    11         0.2277738        1       120        10.1132035        2
    12         0.2283317        1       121        10.8336124        2
    13         0.3006285        1       122        11.3107345        2
    14         0.3885982        1       123        11.8560865        2
    15         0.5086140        1       124        12.5679833        2
    16         0.5393400        1       125        13.7555239        2
    17         0.6138825        1       126        19.2439750        2
    18         0.7650432        1       127        26.8960465        2
    19         0.7768276        1       128        33.7643929        2
    20         0.8578900        1       129        47.5159059        2
    21         0.8762257        1       130        66.7170272        2
    22         0.8862853        1       131        98.6380442        2
    23         1.1488825        1       132        98.7074838        2
    24         1.4456227        1       133       103.2827796        2
    25         1.5310079        1       134       103.3546011        2
    26         1.6650261        1       135       115.3430963        2
    27         1.7568282        1       136       117.0184575        2
    28         1.8006113        1       137       198.7872818        2
    29         2.0875640        1       138       225.1439920        2
    30         2.0999980        1       139       395.4767753        2
    31         2.1802015        1       140         0.0592694        3
    32         2.3085495        1       141         0.1207235        3
    33         2.3512467        1       142         0.1664306        3
    34         2.4816952        1       143         0.3129859        3
    35         2.8280540        1       144         0.3953067        3
    36         2.9393302        1       145         0.6247641        3
    37         3.4751728        1       146         0.7470654        3
    38         3.7113333        1       147         0.8137714        3
    39         3.9180166        1       148         0.8875668        3
    40         4.1858398        1       149         1.0595845        3
    41         4.2463022        1       150         1.4414229        3
    42         4.3463510        1       151         1.5648796        3
    43         4.4263177        1       152         1.7433296        3
    44         5.0901580        1       153         2.0077086        3
    45         5.1271186        1       154         2.2448231        3
    46         5.5597171        1       155         2.3079276        3
    47         5.8885624        1       156         2.3334442        3
    48         6.2374201        1       157         2.5772723        3
    49         6.2751295        1       158         2.7627514        3
    50         6.5593318        1       159         3.7149898        3
    51         6.8310806        1       160         4.0877691        3
    52         7.0578444        1       161         4.2014728        3
    53         7.6623499        1       162         4.2015164        3
    54         8.1451288        1       163         4.8146771        3
    55        10.4938617        1       164         5.0008868        3
    56        10.6069054        1       165         5.7196296        3
    57        11.0136132        1       166         6.0635896        3
    58        11.0722057        1       167         6.3033455        3
    59        11.4883476        1       168         6.4285212        3
    60        12.2107481        1       169         7.3077392        3
    61        12.8296319        1       170         8.2330700        3
    62        13.0751376        1       171        10.1132035        3
    63        15.0496814        1       172        10.8336124        3
    64        17.9278456        1       173        11.3107345        3
    65        20.5368873        1       174        11.8560865        3
    66        26.4606544        1       175        12.5679833        3
    67        27.8639259        1       176        13.7555239        3
    68        34.8029052        1       177        19.2439750        3
    69        36.5055237        1       178        26.8960465        3
    70        47.1041343        1       179        33.7643929        3
    71        48.3387063        1       180        47.5159059        3
    72        64.1156606        1       181        66.7170272        3
    73        67.7139602        1       182        98.6380442        3
    74        98.6555809        1       183        98.7074838        3
    75        98.7244402        1       184       103.2827796        3
    76       103.3221694        1       185       103.3546011        3
    77       103.3928114        1       186       115.3430963        3
    78       115.1301266        1       187       117.0184575        3
    79       115.8287759        1       188       198.7872818        3
    80       117.8343131        1       189       225.1439920        3
    81       122.7101216        1       190       395.4767753        3
    82       198.5664672        1       191         0.2277738        4
    83       199.2003978        1       192         0.5393400        4
    84       216.6025940        1       193         0.7650432        4
    85       225.9580199        1       194         0.8862853        4
    86       396.1493636        1       195         1.5310079        4
    87       509.2846125        1       196         1.7568282        4
    88       895.4305911        1       197         2.0999980        4
    89         0.0592694        2       198         2.1802015        4
    90         0.1207235        2       199         2.3512467        4
    91         0.1664306        2       200         2.9393302        4
    92         0.3129859        2       201         3.7113333        4
    93         0.3953067        2       202         4.1858398        4
    94         0.6247641        2       203         4.3463510        4
    95         0.7470654        2       204         5.0901580        4
    96         0.8137714        2       205         5.8885624        4
    97         0.8875668        2       206         6.2751295        4
    98         1.0595845        2       207         6.5593318        4
    99         1.4414229        2       208         7.0578444        4
   100         1.5648796        2       209        10.6069054        4
   101         1.7433296        2       210        11.0722057        4
   102         2.0077086        2       211        12.2107481        4
   103         2.2448231        2       212        12.8296319        4
   104         2.3079276        2       213        26.4606544        4
   105         2.3334442        2       214        47.1041343        4
   106         2.5772723        2       215        98.6555809        4
   107         2.7627514        2       216       103.3221694        4
   108         3.7149898        2       217       115.1301266        4
   109         4.0877691        2       218       198.5664672        4
------------------------------------------------------------------------
  -20.6667493059581       -11.3965328648064       -1.46685053608064     
 -0.798150202801427      -0.562422792533029      -0.606719765977709     
 -0.606719765977695       6.111471391175523E-002  7.398427126138947E-002
  0.156152575912412       0.227773767355533       0.228331737929332     
  0.300628490585804       0.388598211467968       0.508614036797118     
  0.539340001976197       0.613882507281849       0.765043203381103     
  0.776827558527718       0.857890047047479       0.876225652657703     
  0.886285272844009        1.14888246741917        1.44562268007373     
   1.53100791452675        1.66502612832630        1.75682818639669     
   1.80061131107268        2.08756402579112        2.09999800184904     
   2.18020148875099        2.30854954927140        2.35124668487595     
   2.48169519770669        2.82805399804756        2.93933019299251     
   3.47517277909713        3.71133331685199        3.91801656655547     
   4.18583982148684        4.24630221836749        4.34635104765691     
   4.42631772850630        5.09015799862845        5.12711860775011     
   5.55971711050259        5.88856243275311        6.23742012528342     
   6.27512949829474        6.55933182873560        6.83108061295753     
   7.05784437104662        7.66234990731370        8.14512884381903     
   10.4938616825036        10.6069053947598        11.0136131606890     
   11.0722057380204        11.4883475524570        12.2107481137279     
   12.8296318972972        13.0751375641023        15.0496813850243     
   17.9278456266987        20.5368873395585        26.4606544374269     
   27.8639259356304        34.8029052217085        36.5055236693014     
   47.1041343440203        48.3387063095170        64.1156606106306     
   67.7139601541933        98.6555809246153        98.7244402067370     
[...]
 Convergence information after     9 iterations: 
 Largest element of residual vector : -0.14136770E-04.
 Largest element of DIIS residual   : -0.66510803E-05.
 Convergence information after    10 iterations: 
 Largest element of residual vector : -0.73526147E-05.
 Largest element of DIIS residual   : -0.51855833E-05.
 Convergence information after    11 iterations: 
 Largest element of residual vector : -0.33119765E-05.
 Largest element of DIIS residual   : -0.98273575E-06.
 Convergence information after    12 iterations: 
 Largest element of residual vector : -0.14601570E-05.
 Largest element of DIIS residual   :  0.54071078E-06.
 Convergence information after    13 iterations: 
 Largest element of residual vector :  0.44516125E-06.
 Largest element of DIIS residual   :  0.16703231E-06.
 Convergence information after    14 iterations: 
 Largest element of residual vector :  0.17677398E-06.
 Largest element of DIIS residual   :  0.75676034E-07.
 Perturbed amplitude equations converged in    14 iterations.
  Dominant contributions to perturbed wavefunction:
    7    7  141   28   0.2384217497 ABAB
    7    7   28  141   0.2384217497 ABAB
    7    7  141   37  -0.1877373384 ABAB
    7    7   37  141  -0.1877373384 ABAB
    7    7  141   39   0.1703624256 ABAB
    7    7   39  141   0.1703624256 ABAB
    7    7  140   28   0.1588161249 ABAB
    7    7   28  140   0.1588161249 ABAB
    7    6   28   90   0.1547936918 ABAB
    6    7   90   28   0.1547936918 ABAB
    7    7  141   45   0.1397835671 ABAB
    7    7   45  141   0.1397835671 ABAB
    7    7  141   53  -0.1311210481 ABAB
    7    7   53  141  -0.1311210481 ABAB
    7    0   45    0  -0.1308292064 AA  
    7    7  141   55   0.1276298388 ABAB
    7    7   55  141   0.1276298388 ABAB
    7    7  141   20   0.1274476809 ABAB
    7    7   20  141   0.1274476809 ABAB
    7    7  141   19  -0.1226989132 ABAB
  norm of converged amps    2.24806601773393     
 Starting iterative solution of the perturbed Lambda equations.
 The DIIS procedure is used to accelerate convergence.
 Convergence criterion is 10**(-7).
 Maximum number of iterations is 100.
 Convergence information after     1 iterations: 
 Largest element of residual vector :  0.62947713E-01.
 Largest element of DIIS residual   :  0.62947713E-01.
 Convergence information after     2 iterations: 
 Largest element of residual vector : -0.91969076E-02.
 Largest element of DIIS residual   : -0.56489225E-02.
 Convergence information after     3 iterations: 
 Largest element of residual vector : -0.49825991E-02.
 Largest element of DIIS residual   : -0.43759910E-02.
 Convergence information after     4 iterations: 
 Largest element of residual vector : -0.30887229E-02.
 Largest element of DIIS residual   : -0.25115859E-02.
 Convergence information after     5 iterations: 
 Largest element of residual vector : -0.19384056E-02.
 Largest element of DIIS residual   : -0.96629955E-03.
 Convergence information after     6 iterations: 
 Largest element of residual vector : -0.66260261E-03.
 Largest element of DIIS residual   : -0.18108932E-03.
 Convergence information after     7 iterations: 
 Largest element of residual vector : -0.16068126E-03.
 Largest element of DIIS residual   :  0.65535990E-04.
 Convergence information after     8 iterations: 
 Largest element of residual vector :  0.39689681E-04.
 Largest element of DIIS residual   : -0.26543337E-04.
 Convergence information after     9 iterations: 
 Largest element of residual vector : -0.10352320E-04.
 Largest element of DIIS residual   : -0.64000692E-05.
 Convergence information after    10 iterations: 
 Largest element of residual vector : -0.56006574E-05.
 Largest element of DIIS residual   : -0.44480616E-05.
 Convergence information after    11 iterations: 
 Largest element of residual vector : -0.24626656E-05.
 Largest element of DIIS residual   : -0.93169241E-06.
 Convergence information after    12 iterations: 
 Largest element of residual vector : -0.12710508E-05.
 Largest element of DIIS residual   :  0.82261628E-06.
 Convergence information after    13 iterations: 
 Largest element of residual vector :  0.62940940E-06.
 Largest element of DIIS residual   :  0.37794995E-06.
 Convergence information after    14 iterations: 
 Largest element of residual vector :  0.34010879E-06.
 Largest element of DIIS residual   :  0.16629745E-06.
 Convergence information after    15 iterations: 
 Largest element of residual vector :  0.10984914E-06.
 Largest element of DIIS residual   :  0.51490438E-07.
 Perturbed Lambda equations converged in    15 iterations.
  Dominant contributions to perturbed wavefunction:
    7    7  141   28   0.2223901299 ABAB
    7    7   28  141   0.2223901299 ABAB
    7    7  141   37  -0.1765436875 ABAB
    7    7   37  141  -0.1765436875 ABAB
    7    7  141   39   0.1573290055 ABAB
    7    7   39  141   0.1573290055 ABAB
    7    7  140   28   0.1490663326 ABAB
    7    7   28  140   0.1490663326 ABAB
    7    6   28   90   0.1421873792 ABAB
    6    7   90   28   0.1421873792 ABAB
    7    7  141   45   0.1266013601 ABAB
    7    7   45  141   0.1266013601 ABAB
    7    7  141   53  -0.1210525884 ABAB
    7    7   53  141  -0.1210525884 ABAB
    7    7  141   55   0.1174778663 ABAB
    7    7   55  141   0.1174778663 ABAB
    7    7  141   20   0.1167825735 ABAB
    7    7   20  141   0.1167825735 ABAB
    5    5  141   45   0.1167029315 ABAB
    5    5   45  141   0.1167029315 ABAB
        The DBOC first-order density matrix is being calculated 
             (Symmetry block 3, perturbation   2)
 term   5.84979336087367     
 final tnorm  0.876626820646026     
  norm contr. I: |<0|L dT/dx|0>|^2   0.000000000000000E+000
  norm contr. II: <0|[nabla(1+L)e-T][nabla e^T]|0>   5.84979336087367     
  total norm contribution   5.84979336087367     
 oo  1.032418336034546E-002
 vv  -43.8949261547434     
 vo  5.549172642229377E-002
  Correlated perturbed 1-el contribution to DBOC  -43.8291102449607       cm**-1
  SUM_I |dc_I/dx|^2 contribution to DBOC   22.0227732670676       cm**-1
 
 
  The total diagonal Born-Oppenheimer correction (DBOC) is:      0.0041399494 a.u.
  The total diagonal Born-Oppenheimer correction (DBOC) is:        908.613874 cm-1
 
 Total CC energy including DBOC  -113.266858399601     
 First-order density matrix is being calculated  (Symmetry block 3, perturbation   2)
 Calculation of the contributions of <pq||rs> to dI(i,j)/dx required   2.1 seconds.
 Calculation of the contributions of <pq||rs> to dI(a,b)/dx required  16.9 seconds.
 Calculation of the contributions of <pq||rs> to dI(i,a)/dx required   9.9 seconds.
 First-order Z-vector equations are solved for 1 perturbation.
 Convergence reached after  18 iterations.
        U*G(pq,rs) contribution is being calculated
             (Symmetry block 3, perturbation   2)

 CCSD contribution to force constants 

        0.0000000000        0.0000000000        0.0000000000
        0.0000000000        0.0000000000        0.0000000000
        0.0000000000        0.0000000000        0.0000000000
        0.0000000000        0.0000000000        0.0000000000
        0.0000000000        0.0000000000        0.0000000000
        0.0000000000        0.0000000000        0.0000000000
        0.0000000000        0.0000000000        0.0000000000
        0.0000000000        0.0000000000        0.0000000000
        0.0000000000        0.0000000000        0.0000000000
        0.0000000000        0.0000000000        0.0000000000
        0.0000000000        0.0000000000        0.0000000000
        0.0000000000        0.7819859267       -0.7819859267

 CCSD contribution to dipole derivatives 

        0.0000000000        0.0000000000        0.0000000000
        0.0000000000        0.0000000000        0.0000000000
        0.0000000000        0.0000000000        0.0000000000
        0.0000000000        0.0000000000       -0.0479930304
        0.0000000000        0.0000000000        0.0000000000
        0.0000000000        0.0000000000        0.0000000000
 @CHECKOUT-I, Total execution time (CPU/WALL):     1034.34/     244.75 seconds.
--executable xsdcc finished with status     0 in      244.79 seconds (walltime).
 --invoking executable--
/nfs/workspaces/public/cfour_mpi/bin/xanti
 @GETMEM-I,  Allocated    3814 MB of main memory.
 CCSD MO derivative gammas will be sorted to Mulliken order.
 @CHECKOUT-I, Total execution time (CPU/WALL):        9.96/      13.20 seconds.
--executable xanti finished with status     0 in       13.23 seconds (walltime).
 --invoking executable--
/nfs/workspaces/public/cfour_mpi/bin/xbcktrn
 @GETMEM-I,  Allocated    3814 MB of main memory.
 CCSD MO derivative gammas will be transformed to the AO basis.
 @CHECKOUT-I, Total execution time (CPU/WALL):       22.87/       5.82 seconds.
--executable xbcktrn finished with status     0 in        5.83 seconds (walltime).
 --invoking executable--
/nfs/workspaces/public/cfour_mpi/bin/xvdint
 @GETMEM-I,  Allocated    3814 MB of main memory.
 One- and two-electron integral derivatives are calculated
 for RHF-CC/MBPT hessians and dipole derivatives.
 Spherical gaussians are used.
  magnet F F
                    8722  records have been written to the Sort file.
  Total length of Sort file :             178609116  words.
 Evaluation of 2el integral derivatives

                      Two-electron integral gradient
                      ------------------------------

                         C #1 z     0.0000000000
                         O #2 z     0.0000000000


 C #1       0.0000000000           -0.3891517881            0.0000000000
 O #2       0.0000000000            0.3891517881            0.0000000000


 Evaluation of 2e integral derivatives required  339.93 seconds.
  contribution to Hessian
        0.0000000000        0.0000000000        0.0000000000
        0.0000000000       -0.3891517881        0.3891517881
 @CHECKOUT-I, Total execution time (CPU/WALL):      339.92/      67.97 seconds.
--executable xvdint finished with status     0 in       67.99 seconds (walltime).
 --invoking executable--
/nfs/workspaces/public/cfour_mpi/bin/xanti
 @GETMEM-I,  Allocated    3814 MB of main memory.
 CCSD MO gammas will be sorted to Mulliken order.
 @CHECKOUT-I, Total execution time (CPU/WALL):       11.60/      10.19 seconds.
--executable xanti finished with status     0 in       10.22 seconds (walltime).
 --invoking executable--
/nfs/workspaces/public/cfour_mpi/bin/xbcktrn
 @GETMEM-I,  Allocated    3814 MB of main memory.
 CCSD MO gammas will be transformed to the AO basis.
 @CHECKOUT-I, Total execution time (CPU/WALL):       33.51/       5.02 seconds.
--executable xbcktrn finished with status     0 in        5.04 seconds (walltime).
 --invoking executable--
/nfs/workspaces/public/cfour_mpi/bin/xvdint
 @GETMEM-I,  Allocated    3814 MB of main memory.
 One- and two-electron integral derivatives are calculated
 for RHF-CC/MBPT hessians and dipole derivatives.
 Spherical gaussians are used.
  magnet F F

                     Kinetic energy integral gradient
                     --------------------------------

                         C #1 z    -1.2638276203
                         O #2 z     1.2638276203


 C #1       0.0000000000            0.0000000000           -1.2638276203
 O #2       0.0000000000            0.0000000000            1.2638276203



                   Nuclear attraction integral gradient
                   ------------------------------------

                         C #1 z    21.5070423611
                         O #2 z   -21.5070423611


 C #1       0.0000000000            0.0000000000           21.5070423611
 O #2       0.0000000000            0.0000000000          -21.5070423611



                      Reorthonormalization gradient
                      -----------------------------

                         C #1 z     0.0000000000
                         O #2 z     0.0000000000


 C #1       0.0000000000            0.0000000000            0.0000000000
 O #2       0.0000000000            0.0000000000            0.0000000000



                     Kinetic energy integral Hessian
                     -------------------------------


           Symmetry 1

           C #1 z      O #2 z

 C #1 z    1.069958
 O #2 z   -1.069958    1.069958


           Symmetry 2

           C #1 x      O #2 x

 C #1 x   -1.492862
 O #2 x    1.492862   -1.492862


           Symmetry 3

           C #1 y      O #2 y

 C #1 y   -1.492862
 O #2 y    1.492862   -1.492862




           C #1 x      C #1 y      C #1 z      O #2 x      O #2 y      O #2 z

 C #1 x   -1.492862
 C #1 y    0.000000   -1.492862
 C #1 z    0.000000    0.000000    1.069958

 O #2 x    1.492862    0.000000    0.000000   -1.492862
 O #2 y    0.000000    1.492862    0.000000    0.000000   -1.492862
 O #2 z    0.000000    0.000000   -1.069958    0.000000    0.000000    1.069958




                   Nuclear attraction integral Hessian
                   -----------------------------------


           Symmetry 1

           C #1 z      O #2 z

 C #1 z  -12.761519
 O #2 z   12.761519  -12.761519


           Symmetry 2

           C #1 x      O #2 x

 C #1 x   17.321974
 O #2 x  -17.321974   17.321974


           Symmetry 3

           C #1 y      O #2 y

 C #1 y   17.321974
 O #2 y  -17.321974   17.321974




           C #1 x      C #1 y      C #1 z      O #2 x      O #2 y      O #2 z

 C #1 x   17.321974
 C #1 y    0.000000   17.321974
 C #1 z    0.000000    0.000000  -12.761519

 O #2 x  -17.321974    0.000000    0.000000   17.321974
 O #2 y    0.000000  -17.321974    0.000000    0.000000   17.321974
 O #2 z    0.000000    0.000000   12.761519    0.000000    0.000000  -12.761519




                Highest order reorthonormalization Hessian
                ------------------------------------------


           Symmetry 1

           C #1 z      O #2 z

 C #1 z    0.000000
 O #2 z    0.000000    0.000000


           Symmetry 2

           C #1 x      O #2 x

 C #1 x    0.000000
 O #2 x    0.000000    0.000000


           Symmetry 3

           C #1 y      O #2 y

 C #1 y    0.000000
 O #2 y    0.000000    0.000000




           C #1 x      C #1 y      C #1 z      O #2 x      O #2 y      O #2 z




                Electronic contributions to dipole moment
                -----------------------------------------

                               au             Debye

                    z      0.06014947      0.15288473

  Conversion factor used: 1 a.u. =   2.54174691 Debye 



   Electronic contributions to static part of dipole moment derivatives
   --------------------------------------------------------------------


                     Total dipole moment derivatives
                     -------------------------------


           Symmetry 1
                              Ez

               C #1 z    -5.69779591
               O #2 z    -8.30220409

           Symmetry 2
                              Ex

               C #1 x    -5.74850437
               O #2 x    -8.25149563

           Symmetry 3
                              Ey

               C #1 y    -5.74850437
               O #2 y    -8.25149563



                       Ex          Ey          Ez

      C #1    x   -5.748504    0.000000    0.000000
      C #1    y    0.000000   -5.748504    0.000000
      C #1    z    0.000000    0.000000   -5.697796

      O #2    x   -8.251496    0.000000    0.000000
      O #2    y    0.000000   -8.251496    0.000000
      O #2    z    0.000000    0.000000   -8.302204

 Evaluation of 1e integral derivatives required    1.76 seconds.
                    8815  records have been written to the Sort file.
  Total length of Sort file :             180513570  words.
 Evaluation of 2el integral derivatives

                      Two-electron integral gradient
                      ------------------------------

                         C #1 z   -10.4626523128
                         O #2 z    10.4626523128


 C #1       0.0000000000            0.0000000000          -10.4626523128
 O #2       0.0000000000            0.0000000000           10.4626523128


 Evaluation of 2e integral derivatives required  705.07 seconds.

                            Molecular gradient
                            ------------------

                         C #1 z     0.6051607844
                         O #2 z    -0.6051607844


 C #1       0.0000000000            0.0000000000            0.6051607844
 O #2       0.0000000000            0.0000000000           -0.6051607844


  Molecular gradient norm 0.856E+00

                            Molecular hessian
                            -----------------


           Symmetry 1

           C #1 z      O #2 z

 C #1 z   52.824677
 O #2 z  -52.824677   52.824677


           Symmetry 2

           C #1 x      O #2 x

 C #1 x   -0.158178
 O #2 x    0.158178   -0.158178


           Symmetry 3

           C #1 y      O #2 y

 C #1 y   -0.158178
 O #2 y    0.158178   -0.158178




           C #1 x      C #1 y      C #1 z      O #2 x      O #2 y      O #2 z

 C #1 x   -0.158178
 C #1 y    0.000000   -0.158178
 C #1 z    0.000000    0.000000   52.824677

 O #2 x    0.158178    0.000000    0.000000   -0.158178
 O #2 y    0.000000    0.158178    0.000000    0.000000   -0.158178
 O #2 z    0.000000    0.000000  -52.824677    0.000000    0.000000   52.824677




                           Total dipole moment
                           -------------------

                               au             Debye

                    z      0.05765658      0.14654844

  Conversion factor used: 1 a.u. =   2.54174691 Debye 



                     Total dipole moment derivatives
                     -------------------------------


           Symmetry 1
                              Ez

               C #1 z     0.71796669
               O #2 z    -0.71796669

           Symmetry 2
                              Ex

               C #1 x     0.02292243
               O #2 x    -0.02292243

           Symmetry 3
                              Ey

               C #1 y     0.02292243
               O #2 y    -0.02292243



                       Ex          Ey          Ez

      C #1    x    0.022922    0.000000    0.000000
      C #1    y    0.000000    0.022922    0.000000
      C #1    z    0.000000    0.000000    0.717967

      O #2    x   -0.022922    0.000000    0.000000
      O #2    y    0.000000   -0.022922    0.000000
      O #2    z    0.000000    0.000000   -0.717967

 @CHECKOUT-I, Total execution time (CPU/WALL):      706.82/     117.34 seconds.
--executable xvdint finished with status     0 in      117.37 seconds (walltime).
 --invoking executable--
/nfs/workspaces/public/cfour_mpi/bin/xjoda
  @GTFLGS-I, Hessian will be transformed to curvilinear coordinates.
  @GTFLGS-I, Hessian will be transformed to curvilinear coordinates.
  igrd and ihes are                      0                     1
  gradient from JOBARC 
   0.000000000000000   0.000000000000000   0.605160784384211
   0.000000000000000   0.000000000000000  -0.605160784384211
 
  @PROJFCM-I, Projecting force constant matrix onto totally symmetric subspace.
  Largest difference between matrix elements of symmetrized
  and unsymmetrized FCM :    -0.3070291243E-10.
  read isotopes from ZMAT file 
 
  Summary of diagonal Born-Oppenheimer correction at the correlated level
  The total diagonal Born-Oppenheimer correction (DBOC) is:      0.0041399494 a.u.
  The total diagonal Born-Oppenheimer correction (DBOC) is:        908.613874 cm-1
  The total diagonal Born-Oppenheimer correction (DBOC) is:            10.869 kJ/mole
  hellooooooo 
  readis is  F
 
 @CHECKOUT-I, Total execution time (CPU/WALL):        0.01/       0.04 seconds.
--executable xjoda finished with status     0 in        0.07 seconds (walltime).
  The final electronic energy is      -113.266858399600650 a.u. 
  This computation required                         2534.25 seconds (walltime).
