 --invoking executable--
/nfs/workspaces/public/cfour_mpi/bin/xjoda


   *************************************************************************
         <<<     CCCCCC     CCCCCC   |||     CCCCCC     CCCCCC   >>>
       <<<      CCC        CCC       |||    CCC        CCC         >>>
      <<<      CCC        CCC        |||   CCC        CCC            >>>
    <<<        CCC        CCC        |||   CCC        CCC              >>>
      <<<      CCC        CCC        |||   CCC        CCC            >>>
       <<<      CCC        CCC       |||    CCC        CCC         >>>
         <<<     CCCCCC     CCCCCC   |||     CCCCCC     CCCCCC   >>>
   *************************************************************************

     ****************************************************************
     * CFOUR Coupled-Cluster techniques for Computational Chemistry *
     ****************************************************************
 

   Department of Chemistry                Institut fuer Physikalische Chemie
   University of Florida                  Universitaet Mainz
   Gainesville, FL 32611, USA             D-55099 Mainz, Germany

   Department of Chemistry                Fakultaet fuer Chemie und Biowiss.
   Johns Hopkins University               Karlsruher Institut fuer Technologie
   Baltimore, MD 21218, USA               D-76131 Karlsruhe, Germany

   Department of Chemistry                Department of Physical Chemistry
   Southern Methodist University          Eotvos Lorand University
   Dallas, TX 75275, USA                  H-1053 Budapest, Hungary

 
                       Version 2.1
 
                     vincent.theory.phys.ucl.ac.uk                     
                     Tue 25 Feb 08:44:09 GMT 2025                      
                     integer*8 version is running
 
********************************************************************************
*                          Input from ZMAT file                                *
********************************************************************************
Carbon Monoxide DBOC calculation                                                
C                                                                               
O 1 r                                                                           
                                                                                
r=1.303448275862069                                                             
                                                                                
                                                                                
*CFOUR(CALC=CCSD,BASIS=AUG-PCVQZ,SCF_CONV=10                                    
CC_CONV=14,DBOC=ON,MEMORY=500000000                                             
ZFIELD=-200)                                                                    
                                                                                
%isotopes                                                                       
12                                                                              
16                                                                              
********************************************************************************
  @GTFLGS-I, Hessian will be transformed to curvilinear coordinates.
    -------------------------------------------------------------------
                    CFOUR Control Parameters 
    -------------------------------------------------------------------
        External           Internal           Value            Units
          Name               Name
    -------------------------------------------------------------------
       ABCDTYPE             IABCDT         STANDARD    [  0]    ***   
       ANHARMONIC           IANHAR         OFF         [  0]    ***   
       ANH_ALGORIT          IANALG         STANDARD    [  0]    ***   
       ANH_DERIVAT          IANDER         SECOND      [  1]    ***   
       ANH_MODE             ANHMOD         VIBRATION   [  0]    ***   
       ANH_STEPSIZ          ICUBST             50000          x 10-6  
       ANH_SYMMETR          IANHSM         ABELIAN     [  0]    ***   
       AO_LADDERS           IAOLAD         SINGLEPASS  [  1]    ***   
       AV_SCF               IAVSCF         OFF         [  0]    ***   
       BASIS                IBASIS         AUG-PCVQZ   [ 52]    ***   
       BOTHVECTORS          BOTHVC         OFF         [  0]    ***   
       BOX_POTENT           IPIAB          OFF         [  0]    ***   
       BREIT                IBREIT         OFF         [  0]    ***   
       BRUCK_CONV           IBRTOL          10D-  4             ***   
       BRUECKNER            IBRKNR         OFF         [  0]    ***   
       BUFFERSIZE           IBUFFS              4096            ***   
       CACHE_RECS           ICHREC             10               ***   
       CALCLEVEL            ICLLVL         CCSD        [ 10]    ***   
       CCORBOPT             ICCORB         OFF         [  0]  x 0.01  
       CC_CONV              ICCCNV          10D- 14             ***   
       CC_EXPORDER          ICCEOR              5               ***   
       CC_EXTRAPOL          ICCEXT         DIIS        [  1]    ***   
       CC_GUESS             ICCGES         MP2         [  0]    ***   
       CC_MAXCYC            ICCCYC            100              cycles 
       CC_PROGRAM           ICCPRO         VCC         [  0]    ***   
       CHARGE               ICHRGE              0               ***   
       CHOLESKY             ICHOLE         OFF         [  0]    ***   
       CIS_CONV             ICISTL              5               ***   
       COMM_SIZE            IPSIZE            ***               ***   
       CONSTANT             ICONST         OLD         [  1]    ***   
       CONTINUUM            ICONTU         NONE        [  0]    ***   
       CONTRACTION          ICNTYP         GENERAL     [  1]    ***   
       COORDINATES          ICOORD         INTERNAL    [  0]    ***   
       CPHF_CONVER          ICPHFT          10D- 16             ***   
       CPHF_MAXCYC          ICPHFC             64              cycles 
       CUBIC                ICUBIC         OFF         [  0]    ***   
       CURVILINEAR          ICURVY         ON          [  1]    ***   
       DBOC                 IDBOC          ON          [  1]    ***   
       DCT                  IDCT           OFF         [  0]    ***   
       DERIV_LEV            IDRLVL         SECOND      [  2]    ***   
       DEVMEM_SIZE          IDVMEM          50000000           MByte  
       DIAG_MRCC            IEOMST          10D-  0             ***   
       DIFF_TYPE            IDIFTY         RELAXED     [  0]    ***   
       DIRECT               IDIRCT         OFF         [  0]    ***   
       DROPMO               IDRPMO      NONE         
       ECP                  IECP           OFF         [  0]    ***   
       EIGENVECTOR          IVEC                1               ***   
       EL_ANHARM            IELANH         OFF         [  0]    ***   
       EOMFOLLOW            IEOMSR         ENERGY      [  0]    ***   
       EOMIP                IEOMIP         OFF         [  0]    ***   
       EOMLEVEL             HBARFM         SAME        [  0]    ***   
       EOM_MRCC             IMRCCE         NEW         [  1]    ***   
       EOM_NONIT            EOMNON         OFF         [  0]    ***   
       EOM_NSING            IEOMSI          10D-  0             ***   
       EOM_NSTATES          IMRCCD         DAVIDSON    [  0]    ***   
       EOM_NTRIP            IEOMTR          10D-  0             ***   
       EOM_ORDER            IEXORD         ENERGY      [  0]    ***   
       EOM_PROPSTA          IEOMST              0               ***   
       ESTATE_CONV          IEXTOL          10D-  5             ***   
       ESTATE_DIAG          IEXDIG         ITERATIVE   [  0]    ***   
       ESTATE_LOCK          IESLOC         ON          [  1]    ***   
       ESTATE_MAXC          IEXMXC             40               ***   
       ESTATE_PROP          IEXPRP         OFF         [  0]    ***   
       EVAL_HESS            IRECAL              0            # of cyc.
       EXCITATION           IEXCIT              0               ***   
       EXCITE               IEXCIT         NONE        [  0]    ***   
       EXTERN_POT           IEXPOT         OFF         [  0]    ***   
       FCGRADNEW            IFCGNW         OFF         [  0]    ***   
       FC_FIELD             IFINFC              0             x 10-6  
       FD_CALTYPE           IFDCAL         GRADONLY    [  0]    ***   
       FD_PROJECT           IFDPRJ         OFF         [  1]    ***   
       FD_STEPSIZE          IDISFD              0            10-4 bohr
       FD_USEGROUP          IFDGRP         FULL        [  0]    ***   
       FILE_RECSIZ          IFLREC              4096           words  
       FINITE_PERT          IFIPER              0             x 10-6  
       FIXGEOM              IFIXGM         OFF         [  0]    ***   
       FOCK                 IFOCK          AO          [  1]    ***   
       FREQ_ALGORI          IVIALG         STANDARD    [  0]    ***   
       FROZEN_CORE          IFROCO         OFF         [  0]    ***   
       GAMMA_ABCD           IGABCD         STORE       [  0]    ***   
       GAMMA_ABCI           IGABCI         STORE       [  0]    ***   
       GENBAS_1             IGNBS1              0               ***   
       GENBAS_2             IGNBS2              0               ***   
       GENBAS_3             IGNBS3              0               ***   
       GENBAS_4             IGNBS4              0               ***   
       GEO_CONV             ICONTL              5              H/bohr 
       GEO_MAXCYC           IOPTCY             50               ***   
       GEO_MAXSTEP          IMXSTP            300            millibohr
       GEO_METHOD           INR            SINGLE_POINT[  5]    ***   
       GIAO                 IGIAO          OFF         [  1]    ***   
       GIMIC                IGIMIC         OFF         [  0]    ***   
       GRID                 IGRID          OFF         [  0]    ***   
       GRID_ALGO            IGALGO         SERIAL      [  0]    ***   
       GUESS                IGUESS         MOREAD      [  0]    ***   
       HBAR                 IHBAR          OFF         [  0]    ***   
       HESS_TYPE            IHESTP         SCF         [  0]    ***   
       HF2_FILE             IHF2Fl         USE         [  1]    ***   
       HFSTABILITY          ISTABL         OFF         [  0]    ***   
       INCORE               INCORE         OFF         [  0]    ***   
       INPUT_MRCC           IMRCC          ON          [  1]    ***   
       INTEGRALS            INTTYP         VMOL        [  1]    ***   
       JODA_PRINT           IJPRNT              0               ***   
       KEYWORD_OUT          IDMPKW         NO          [  0]    ***   
       LINDEP_TOL           ILINDP              8               ***   
       LINEQ_CONV           IZTACN          10D-  7           cycles  
       LINEQ_EXPOR          ILMAXD              5               ***   
       LINEQ_MAXCY          ILMAXC            100               ***   
       LINEQ_TYPE           ILTYPE         DIIS        [  1]    ***   
       LOCK_ORBOCC          ILOCOC         OFF         [  0]    ***   
       MEMORY_SIZE          IMEMSZ         500000000           words  
       MEM_UNIT             IMEMU          INTEGERWORDS[  0]    ***   
       MRCC                 IMRCCC         OFF         [  0]    ***   
       MULTIPLICTY          IMULTP              1               ***   
       NACOUPLING           IVCOUP         OFF         [  0]    ***   
       NEGEVAL              IDIE           ABORT       [  0]    ***   
       NEWNORM              INEWNO         OFF         [  0]    ***   
       NON-HF               INONHF         OFF         [  0]    ***   
       NTOP_TAMP            ITOPT2             15               ***   
       NUC_MODEL            INUCMO         POINT       [  0]    ***   
       OCCUPATION           IOCCU   ESTIMATED BY SCF 
       OPEN-SHELL           IOPEN          SPIN-ORBITAL[  0]    ***   
       OPTVIB               IOPTVB         OFF         [  0]    ***   
       ORBITALS             IORBTP         STANDARD    [  0]    ***   
       PARALLEL             IPARAL         ON          [  1]    ***   
       PARA_INT             IPINTS         ON          [  1]    ***   
       PARA_PRINT           IPPRIN              0               ***   
       PERT_ORB             IPTORB         STANDARD    [  0]    ***   
       POINTS               IGRDFD              0               ***   
       PRINT                IPRNT               0               ***   
       PROPS                IPROPS         OFF         [  0]    ***   
       PROP_INTEGR          IINTYP         INTERNAL    [  0]    ***   
       PSI                  IPSI           OFF         [  0]    ***   
       QC_ALG               IQCALG         FLM         [  0]    ***   
       QC_LINALG            IQCLIN         TRIDIAG     [  2]    ***   
       QC_MAXCYC            IQCMAX          10D-100           cycles  
       QC_MAXSCFCY          IQCMSC          10D- 15           cycles  
       QC_RTRUST            IQCRTR          10D-  0           x 10-3  
       QC_SKIPSCF           IQCSKI         OFF         [  0]    ***   
       QC_START             IQCSTA          10D-  1             ***   
       QRHFGUESS            IQGUES         OFF         [  0]    ***   
       QUARTIC              IQUART         OFF         [  0]    ***   
       RAMAN_INT            IRAMIN         OFF         [  0]    ***   
       RAMAN_ORB            IRAMRE         UNRELAXED   [  0]    ***   
       RDO                  IRDOFM         ON          [  1]    ***   
       REDUCE_REPR          REDREP         Ir          [  0]    ***   
       REFERENCE            IREFNC         RHF         [  0]    ***   
       RELATIVIST           IRELAT         OFF         [  0]    ***   
       RELAX_DENS           IRDENS         ON          [  1]    ***   
       RESET_FLAGS          IRESET         OFF         [  0]    ***   
       RESTART_CC           ICCRES         OFF         [  0]    ***   
       ROT_EVEC             ROTVEC              0               ***   
       SAVE_INTS            ISVINT         OFF         [  0]    ***   
       SCALE_ON             ISTCRT              0               ***   
       SCF_CONV             ISCFCV          10D- 10             ***   
       SCF_DAMPING          IDAMP               0             x 10-3  
       SCF_EXPORDE          IRPPOR              6               ***   
       SCF_EXPSTAR          IRPPLS              8               ***   
       SCF_EXTRAPO          IRPP           ON          [  1]    ***   
       SCF_MAXCYC           ISCFCY            150              cycles 
       SCF_NOSTOP           ISCFST         OFF         [  0]    ***   
       SCF_PRINT            ISCFPR              0               ***   
       SCF_PROG             ISCFPR         SCF         [  0]    ***   
       SD_FIELD             IFINSD              0             x 10-6  
       SOPERT               IPERSO         OFF         [  0]    ***   
       SPHERICAL            IDFGHI         ON          [  1]    ***   
       SPINORBIT            ISOCAL         OFF         [  0]    ***   
       SPINROTATIO          ISRCON         OFF         [  0]    ***   
       SPIN_FLIP            ISPFLP         OFF         [  0]    ***   
       SPIN_ORBIT           ISPORB         OFF         [  0]    ***   
       SPIN_SCAL            ISCSMP         OFF         [  0]    ***   
       STEEPSCALE           ISTPSC              1000          x 10-3  
       SUBGROUP             ISUBGP         DEFAULT     [  0]    ***   
       SUBGRPAXIS           ISBXYZ         X           [  0]    ***   
       SYMMETRY             ISYM           ON          [  0]    ***   
       SYM_CHECK            ISYMCK         OVERRIDE    [  1]    ***   
       T3_EXTRAPOL          IT3EXT         OFF         [  0]    ***   
       T4_EXTRAPOL          IT4EXP         OFF         [  0]    ***   
       TAMP_SUM             IEVERY              5               ***   
       TESTSUITE            ITESTS         OFF         [  0]    ***   
       THERMOCH             ITHERM         OFF         [  0]    ***   
       TOL_CHOLESK          ITOLCH          10D-  4             ***   
       TRANGRAD             IRESRM         OFF         [  0]    ***   
       TRANS_INV            ITRAIN         IGNORE      [  1]    ***   
       TREAT_PERT           ITREAT         SIMULTANEOUS[  0]    ***   
       TRIP_ALGORI          ITRALG         NORMAL      [  0]    ***   
       UIJ_THRESHO          IUIJTH              1               ***   
       UNITS                IUNITS         ANGSTROM    [  0]    ***   
       UNOS                 IUNOS          OFF         [  0]    ***   
       UPDATE_HESS          IHUPDT         ON          [  1]    ***   
       VIBPHASE             ISETPH         STANDARD    [  0]    ***   
       VIBRATION            IVIB           ANALYTIC    [  1]    ***   
       VIB_ALGORIT          IGEALG         STANDARD    [  0]    ***   
       VNATORB              IVNORB         OFF         [  0]    ***   
       VTRAN                IVTRAN         FULL/PARTIAL[  0]    ***   
       XFIELD               IXEFLD              0             x 10-6  
       XFORM_TOL            IXFTOL          10D- 11             ***   
       YFIELD               IYEFLD              0             x 10-6  
       ZFIELD               IZEFLD            ***             x 10-6  
       ZSCALE_EXP           IZEXPS         OFF         [  0]    ***   
    -------------------------------------------------------------------
   2 entries found in Z-matrix 
   Job Title : Carbon Monoxide DBOC calculation                                                
   There are  1 unique internal coordinates.
   Of these,  0 will be optimized.
   User supplied Z-matrix: 
--------------------------------------------------------------------------------
       SYMBOL    BOND      LENGTH    ANGLE     ANGLE     DIHED     ANGLE
                  TO      (ANGST)    WRT      (DEG)      WRT      (DEG)
--------------------------------------------------------------------------------
        C    
        O          1         r    
                  *Initial values for internal coordinates* 
                      Name             Value
                        r               1.3034482759
--------------------------------------------------------------------------------
  read isotopes from ZMAT file 
   Rotational constants (in cm-1): 
          1.4471879118             1.4471879118
   Rotational constants (in MHz): 
      43385.6082037146         43385.6082037146
********************************************************************************
   The full molecular point group is CXv .
   The largest Abelian subgroup of the full molecular point group is C2v .
   The computational point group is C2v .
********************************************************************************
--------------------------------------------------------------------------------
   Analysis of internal coordinates specified by Z-matrix 
--------------------------------------------------------------------------------
   *The nuclear repulsion energy is   19.487156698412697 a.u.
   *There is   1 degree of freedom within the tot. symm. molecular subspace.
   *Z-matrix requests optimization of   0 coordinates.
   *The optimization is constrained.
   *The following   1 parameters can have non-zero 
    derivatives within the totally symmetric subspace:
             r    [ 1]
   *The following   0 parameters are to be optimized:

   *The following coordinates must be varied in an  unconstrained optimization.
             r    [ 1]
--------------------------------------------------------------------------------


 ----------------------------------------------------------------
         Coordinates used in calculation (QCOMP) 
 ----------------------------------------------------------------
 Z-matrix   Atomic            Coordinates (in bohr)
  Symbol    Number           X              Y              Z
 ----------------------------------------------------------------
     C         6        -0.00000000     0.00000000     1.40732868
     O         8         0.00000000     0.00000000    -1.05583209
 ----------------------------------------------------------------
 
   Interatomic distance matrix (Angstroms) 
 
                 C             O    
                [ 1]        [ 2]
  C    [ 1]     0.00000
  O    [ 2]     1.30345     0.00000
 rotcon2
   Rotational constants (in cm-1): 
          1.4471879118             0.0000000000
   Rotational constants (in MHz): 
      43385.6082037146             0.0000000000
  ECPDATA file not present.   Using default ECPDATA. 
  @GTFLGS-I, Hessian will be transformed to curvilinear coordinates.
  There are  218 basis functions.
 @CHECKOUT-I, Total execution time (CPU/WALL):        0.13/       0.20 seconds.
--executable xjoda finished with status     0 in        0.21 seconds (walltime).
 --invoking executable--
/nfs/workspaces/public/cfour_mpi/bin/xvmol
 SERIAL VERSION OF MOLECULE STARTED
********************************************************************************
                    INPUT FROM MOL FILE
********************************************************************************
INTGRL        1    0    1    0    0    0    0    0    0                         
         *** CFOUR Program System (Release V0.1) ***                            
Carbon Monoxide DBOC calculation                                                
    2    2 X  Y       0.10E-08              0    0                              
   9999.00      3.00                                                            
          6.00000000    1    5    1    1    1    1    1                         
C #1  -0.000000000000000   0.000000000000000   1.407328682378263                
   16    9                                                                      
   33980.0000000000       9.100000000000000E-005 -1.900000000000000E-005        
  0.000000000000000E+000  0.000000000000000E+000  0.000000000000000E+000        
  0.000000000000000E+000  0.000000000000000E+000  0.000000000000000E+000        
  0.000000000000000E+000                                                        
   5089.00000000000       7.040000000000000E-004 -1.510000000000000E-004        
  0.000000000000000E+000  0.000000000000000E+000  0.000000000000000E+000        
  0.000000000000000E+000  0.000000000000000E+000  0.000000000000000E+000        
  0.000000000000000E+000                                                        
   1157.00000000000       3.693000000000000E-003 -7.850000000000000E-004        
  0.000000000000000E+000  0.000000000000000E+000  0.000000000000000E+000        
  0.000000000000000E+000  0.000000000000000E+000  0.000000000000000E+000        
  0.000000000000000E+000                                                        
   326.600000000000       1.536000000000000E-002 -3.324000000000000E-003        
  0.000000000000000E+000  0.000000000000000E+000  0.000000000000000E+000        
  0.000000000000000E+000  0.000000000000000E+000  0.000000000000000E+000        
  0.000000000000000E+000                                                        
   106.100000000000       5.292900000000000E-002 -1.151200000000000E-002        
  0.000000000000000E+000  0.000000000000000E+000  0.000000000000000E+000        
  0.000000000000000E+000  0.000000000000000E+000  0.000000000000000E+000        
  0.000000000000000E+000                                                        
   38.1100000000000       0.147043000000000      -3.416000000000000E-002        
  0.000000000000000E+000  0.000000000000000E+000  0.000000000000000E+000        
  0.000000000000000E+000  0.000000000000000E+000  0.000000000000000E+000        
  0.000000000000000E+000                                                        
   14.7500000000000       0.305631000000000      -7.717300000000001E-002        
  0.000000000000000E+000  0.000000000000000E+000  0.000000000000000E+000        
  0.000000000000000E+000  0.000000000000000E+000  0.000000000000000E+000        
  0.000000000000000E+000                                                        
   6.03500000000000       0.399345000000000      -0.141493000000000             
  0.000000000000000E+000  0.000000000000000E+000  0.000000000000000E+000        
  0.000000000000000E+000  0.000000000000000E+000  0.000000000000000E+000        
  0.000000000000000E+000                                                        
   2.53000000000000       0.217051000000000      -0.118019000000000             
  0.000000000000000E+000  0.000000000000000E+000  0.000000000000000E+000        
  0.000000000000000E+000  0.000000000000000E+000  0.000000000000000E+000        
  0.000000000000000E+000                                                        
  0.735500000000000       1.589400000000000E-002  0.273806000000000             
   1.00000000000000       0.000000000000000E+000  0.000000000000000E+000        
  0.000000000000000E+000  0.000000000000000E+000  0.000000000000000E+000        
  0.000000000000000E+000                                                        
  0.290500000000000      -3.084000000000000E-003  0.586510000000000             
  0.000000000000000E+000   1.00000000000000       0.000000000000000E+000        
  0.000000000000000E+000  0.000000000000000E+000  0.000000000000000E+000        
  0.000000000000000E+000                                                        
  0.111100000000000       9.779999999999999E-004  0.285430000000000             
  0.000000000000000E+000  0.000000000000000E+000   1.00000000000000             
  0.000000000000000E+000  0.000000000000000E+000  0.000000000000000E+000        
  0.000000000000000E+000                                                        
   7.21600000000000       0.000000000000000E+000  0.000000000000000E+000        
  0.000000000000000E+000  0.000000000000000E+000  0.000000000000000E+000        
   1.00000000000000       0.000000000000000E+000  0.000000000000000E+000        
  0.000000000000000E+000                                                        
   19.5700000000000       0.000000000000000E+000  0.000000000000000E+000        
  0.000000000000000E+000  0.000000000000000E+000  0.000000000000000E+000        
  0.000000000000000E+000   1.00000000000000       0.000000000000000E+000        
  0.000000000000000E+000                                                        
   53.0730000000000       0.000000000000000E+000  0.000000000000000E+000        
  0.000000000000000E+000  0.000000000000000E+000  0.000000000000000E+000        
  0.000000000000000E+000  0.000000000000000E+000   1.00000000000000             
  0.000000000000000E+000                                                        
  4.145000000000000E-002  0.000000000000000E+000  0.000000000000000E+000        
  0.000000000000000E+000  0.000000000000000E+000  0.000000000000000E+000        
  0.000000000000000E+000  0.000000000000000E+000  0.000000000000000E+000        
   1.00000000000000                                                             
   10    8                                                                      
   34.5100000000000       5.378000000000000E-003  0.000000000000000E+000        
  0.000000000000000E+000  0.000000000000000E+000  0.000000000000000E+000        
  0.000000000000000E+000  0.000000000000000E+000  0.000000000000000E+000        
   7.91500000000000       3.613200000000000E-002  0.000000000000000E+000        
  0.000000000000000E+000  0.000000000000000E+000  0.000000000000000E+000        
  0.000000000000000E+000  0.000000000000000E+000  0.000000000000000E+000        
   2.36800000000000       0.142493000000000       0.000000000000000E+000        
  0.000000000000000E+000  0.000000000000000E+000  0.000000000000000E+000        
  0.000000000000000E+000  0.000000000000000E+000  0.000000000000000E+000        
  0.813200000000000       0.342150000000000        1.00000000000000             
  0.000000000000000E+000  0.000000000000000E+000  0.000000000000000E+000        
  0.000000000000000E+000  0.000000000000000E+000  0.000000000000000E+000        
  0.289000000000000       0.463864000000000       0.000000000000000E+000        
   1.00000000000000       0.000000000000000E+000  0.000000000000000E+000        
  0.000000000000000E+000  0.000000000000000E+000  0.000000000000000E+000        
  0.100700000000000       0.250028000000000       0.000000000000000E+000        
  0.000000000000000E+000   1.00000000000000       0.000000000000000E+000        
  0.000000000000000E+000  0.000000000000000E+000  0.000000000000000E+000        
   8.18200000000000       0.000000000000000E+000  0.000000000000000E+000        
  0.000000000000000E+000  0.000000000000000E+000   1.00000000000000             
  0.000000000000000E+000  0.000000000000000E+000  0.000000000000000E+000        
   24.1860000000000       0.000000000000000E+000  0.000000000000000E+000        
  0.000000000000000E+000  0.000000000000000E+000  0.000000000000000E+000        
   1.00000000000000       0.000000000000000E+000  0.000000000000000E+000        
   71.4940000000000       0.000000000000000E+000  0.000000000000000E+000        
  0.000000000000000E+000  0.000000000000000E+000  0.000000000000000E+000        
  0.000000000000000E+000   1.00000000000000       0.000000000000000E+000        
  3.218000000000000E-002  0.000000000000000E+000  0.000000000000000E+000        
  0.000000000000000E+000  0.000000000000000E+000  0.000000000000000E+000        
  0.000000000000000E+000  0.000000000000000E+000   1.00000000000000             
    6    6                                                                      
   1.84800000000000        1.00000000000000       0.000000000000000E+000        
  0.000000000000000E+000  0.000000000000000E+000  0.000000000000000E+000        
  0.000000000000000E+000                                                        
  0.649000000000000       0.000000000000000E+000   1.00000000000000             
  0.000000000000000E+000  0.000000000000000E+000  0.000000000000000E+000        
  0.000000000000000E+000                                                        
  0.228000000000000       0.000000000000000E+000  0.000000000000000E+000        
   1.00000000000000       0.000000000000000E+000  0.000000000000000E+000        
  0.000000000000000E+000                                                        
   8.65600000000000       0.000000000000000E+000  0.000000000000000E+000        
  0.000000000000000E+000   1.00000000000000       0.000000000000000E+000        
  0.000000000000000E+000                                                        
   33.2130000000000       0.000000000000000E+000  0.000000000000000E+000        
  0.000000000000000E+000  0.000000000000000E+000   1.00000000000000             
  0.000000000000000E+000                                                        
  7.660000000000000E-002  0.000000000000000E+000  0.000000000000000E+000        
  0.000000000000000E+000  0.000000000000000E+000  0.000000000000000E+000        
   1.00000000000000                                                             
    4    4                                                                      
   1.41900000000000        1.00000000000000       0.000000000000000E+000        
  0.000000000000000E+000  0.000000000000000E+000                                
  0.485000000000000       0.000000000000000E+000   1.00000000000000             
  0.000000000000000E+000  0.000000000000000E+000                                
   24.6940000000000       0.000000000000000E+000  0.000000000000000E+000        
   1.00000000000000       0.000000000000000E+000                                
  0.187000000000000       0.000000000000000E+000  0.000000000000000E+000        
  0.000000000000000E+000   1.00000000000000                                     
    2    2                                                                      
   1.01100000000000        1.00000000000000       0.000000000000000E+000        
  0.424000000000000       0.000000000000000E+000   1.00000000000000             
          8.00000000    1    5    1    1    1    1    1                         
O #2   0.000000000000000   0.000000000000000  -1.055832092836819                
   16    9                                                                      
   61420.0000000000       9.000000000000001E-005 -2.000000000000000E-005        
  0.000000000000000E+000  0.000000000000000E+000  0.000000000000000E+000        
  0.000000000000000E+000  0.000000000000000E+000  0.000000000000000E+000        
  0.000000000000000E+000                                                        
   9199.00000000000       6.980000000000001E-004 -1.590000000000000E-004        
  0.000000000000000E+000  0.000000000000000E+000  0.000000000000000E+000        
  0.000000000000000E+000  0.000000000000000E+000  0.000000000000000E+000        
  0.000000000000000E+000                                                        
   2091.00000000000       3.664000000000000E-003 -8.290000000000000E-004        
  0.000000000000000E+000  0.000000000000000E+000  0.000000000000000E+000        
  0.000000000000000E+000  0.000000000000000E+000  0.000000000000000E+000        
  0.000000000000000E+000                                                        
   590.900000000000       1.521800000000000E-002 -3.508000000000000E-003        
  0.000000000000000E+000  0.000000000000000E+000  0.000000000000000E+000        
  0.000000000000000E+000  0.000000000000000E+000  0.000000000000000E+000        
  0.000000000000000E+000                                                        
   192.300000000000       5.242300000000000E-002 -1.215600000000000E-002        
  0.000000000000000E+000  0.000000000000000E+000  0.000000000000000E+000        
  0.000000000000000E+000  0.000000000000000E+000  0.000000000000000E+000        
  0.000000000000000E+000                                                        
   69.3200000000000       0.145921000000000      -3.626100000000000E-002        
  0.000000000000000E+000  0.000000000000000E+000  0.000000000000000E+000        
  0.000000000000000E+000  0.000000000000000E+000  0.000000000000000E+000        
  0.000000000000000E+000                                                        
   26.9700000000000       0.305258000000000      -8.299200000000000E-002        
  0.000000000000000E+000  0.000000000000000E+000  0.000000000000000E+000        
  0.000000000000000E+000  0.000000000000000E+000  0.000000000000000E+000        
  0.000000000000000E+000                                                        
   11.1000000000000       0.398508000000000      -0.152090000000000             
  0.000000000000000E+000  0.000000000000000E+000  0.000000000000000E+000        
  0.000000000000000E+000  0.000000000000000E+000  0.000000000000000E+000        
  0.000000000000000E+000                                                        
   4.68200000000000       0.216980000000000      -0.115331000000000             
  0.000000000000000E+000  0.000000000000000E+000  0.000000000000000E+000        
  0.000000000000000E+000  0.000000000000000E+000  0.000000000000000E+000        
  0.000000000000000E+000                                                        
   1.42800000000000       1.759400000000000E-002  0.288979000000000             
   1.00000000000000       0.000000000000000E+000  0.000000000000000E+000        
  0.000000000000000E+000  0.000000000000000E+000  0.000000000000000E+000        
  0.000000000000000E+000                                                        
  0.554700000000000      -2.502000000000000E-003  0.586128000000000             
  0.000000000000000E+000   1.00000000000000       0.000000000000000E+000        
  0.000000000000000E+000  0.000000000000000E+000  0.000000000000000E+000        
  0.000000000000000E+000                                                        
  0.206700000000000       9.540000000000000E-004  0.277624000000000             
  0.000000000000000E+000  0.000000000000000E+000   1.00000000000000             
  0.000000000000000E+000  0.000000000000000E+000  0.000000000000000E+000        
  0.000000000000000E+000                                                        
   12.9740000000000       0.000000000000000E+000  0.000000000000000E+000        
  0.000000000000000E+000  0.000000000000000E+000  0.000000000000000E+000        
   1.00000000000000       0.000000000000000E+000  0.000000000000000E+000        
  0.000000000000000E+000                                                        
   34.9000000000000       0.000000000000000E+000  0.000000000000000E+000        
  0.000000000000000E+000  0.000000000000000E+000  0.000000000000000E+000        
  0.000000000000000E+000   1.00000000000000       0.000000000000000E+000        
  0.000000000000000E+000                                                        
   93.8810000000000       0.000000000000000E+000  0.000000000000000E+000        
  0.000000000000000E+000  0.000000000000000E+000  0.000000000000000E+000        
  0.000000000000000E+000  0.000000000000000E+000   1.00000000000000             
  0.000000000000000E+000                                                        
  6.959000000000000E-002  0.000000000000000E+000  0.000000000000000E+000        
  0.000000000000000E+000  0.000000000000000E+000  0.000000000000000E+000        
  0.000000000000000E+000  0.000000000000000E+000  0.000000000000000E+000        
   1.00000000000000                                                             
   10    8                                                                      
   63.4200000000000       6.044000000000000E-003  0.000000000000000E+000        
  0.000000000000000E+000  0.000000000000000E+000  0.000000000000000E+000        
  0.000000000000000E+000  0.000000000000000E+000  0.000000000000000E+000        
   14.6600000000000       4.179900000000000E-002  0.000000000000000E+000        
  0.000000000000000E+000  0.000000000000000E+000  0.000000000000000E+000        
  0.000000000000000E+000  0.000000000000000E+000  0.000000000000000E+000        
   4.45900000000000       0.161143000000000       0.000000000000000E+000        
  0.000000000000000E+000  0.000000000000000E+000  0.000000000000000E+000        
  0.000000000000000E+000  0.000000000000000E+000  0.000000000000000E+000        
   1.53100000000000       0.356731000000000        1.00000000000000             
  0.000000000000000E+000  0.000000000000000E+000  0.000000000000000E+000        
  0.000000000000000E+000  0.000000000000000E+000  0.000000000000000E+000        
  0.530200000000000       0.448309000000000       0.000000000000000E+000        
   1.00000000000000       0.000000000000000E+000  0.000000000000000E+000        
  0.000000000000000E+000  0.000000000000000E+000  0.000000000000000E+000        
  0.175000000000000       0.244940000000000       0.000000000000000E+000        
  0.000000000000000E+000   1.00000000000000       0.000000000000000E+000        
  0.000000000000000E+000  0.000000000000000E+000  0.000000000000000E+000        
   14.4750000000000       0.000000000000000E+000  0.000000000000000E+000        
  0.000000000000000E+000  0.000000000000000E+000   1.00000000000000             
  0.000000000000000E+000  0.000000000000000E+000  0.000000000000000E+000        
   42.7300000000000       0.000000000000000E+000  0.000000000000000E+000        
  0.000000000000000E+000  0.000000000000000E+000  0.000000000000000E+000        
   1.00000000000000       0.000000000000000E+000  0.000000000000000E+000        
   126.140000000000       0.000000000000000E+000  0.000000000000000E+000        
  0.000000000000000E+000  0.000000000000000E+000  0.000000000000000E+000        
  0.000000000000000E+000   1.00000000000000       0.000000000000000E+000        
  5.348000000000000E-002  0.000000000000000E+000  0.000000000000000E+000        
  0.000000000000000E+000  0.000000000000000E+000  0.000000000000000E+000        
  0.000000000000000E+000  0.000000000000000E+000   1.00000000000000             
    6    6                                                                      
   3.77500000000000        1.00000000000000       0.000000000000000E+000        
  0.000000000000000E+000  0.000000000000000E+000  0.000000000000000E+000        
  0.000000000000000E+000                                                        
   1.30000000000000       0.000000000000000E+000   1.00000000000000             
  0.000000000000000E+000  0.000000000000000E+000  0.000000000000000E+000        
  0.000000000000000E+000                                                        
  0.444000000000000       0.000000000000000E+000  0.000000000000000E+000        
   1.00000000000000       0.000000000000000E+000  0.000000000000000E+000        
  0.000000000000000E+000                                                        
   14.9270000000000       0.000000000000000E+000  0.000000000000000E+000        
  0.000000000000000E+000   1.00000000000000       0.000000000000000E+000        
  0.000000000000000E+000                                                        
   57.5440000000000       0.000000000000000E+000  0.000000000000000E+000        
  0.000000000000000E+000  0.000000000000000E+000   1.00000000000000             
  0.000000000000000E+000                                                        
  0.154000000000000       0.000000000000000E+000  0.000000000000000E+000        
  0.000000000000000E+000  0.000000000000000E+000  0.000000000000000E+000        
   1.00000000000000                                                             
    4    4                                                                      
   2.66600000000000        1.00000000000000       0.000000000000000E+000        
  0.000000000000000E+000  0.000000000000000E+000                                
  0.859000000000000       0.000000000000000E+000   1.00000000000000             
  0.000000000000000E+000  0.000000000000000E+000                                
   26.4830000000000       0.000000000000000E+000  0.000000000000000E+000        
   1.00000000000000       0.000000000000000E+000                                
  0.324000000000000       0.000000000000000E+000  0.000000000000000E+000        
  0.000000000000000E+000   1.00000000000000                                     
    2    2                                                                      
   1.84600000000000        1.00000000000000       0.000000000000000E+000        
  0.714000000000000       0.000000000000000E+000   1.00000000000000             
FINISH                                                                          
 
********************************************************************************
 ONE- AND TWO-ELECTRON INTEGRALS OVER SYMMETRY-ADAPTED AOS ARE CALCULATED.

  SPHERICAL HARMONICS ARE USED.
  
  INTEGRALS LESS THAN  0.10E-13 ARE NEGLECTED.

  NUCLEAR REPULSION ENERGY :   19.4871566984 A.U.
  @MOLECU-I, ONE ELECTRON INTEGRALS (CPU/WALL):        0.06/       0.08 SECONDS.
  @TWOEL-I,    4525655 INTEGRALS OF SYMMETRY TYPE  I I I I
  @TWOEL-I,   19472818 INTEGRALS OF SYMMETRY TYPE  I J I J
  @TWOEL-I,   10258323 INTEGRALS OF SYMMETRY TYPE  I I J J
  @TWOEL-I,   14415548 INTEGRALS OF SYMMETRY TYPE  I J K L
  @TWOEL-I, TOTAL NUMBER OF 2-E INTEGRALS   48672344.
  @MOLECU-I, TWO ELECTRON INTEGRALS (CPU/WALL):      190.83/      27.22 SECONDS.
 @CHECKOUT-I, Total execution time (CPU/WALL):      190.90/      27.33 seconds.

Running with 14 threads/proc

--executable xvmol finished with status     0 in       27.36 seconds (walltime).
 --invoking executable--
/nfs/workspaces/public/cfour_mpi/bin/xvmol2ja
 @GETMEM-I,  Allocated    3814 MB of main memory.
 @CHECKOUT-I, Total execution time (CPU/WALL):        0.16/       0.06 seconds.
--executable xvmol2ja finished with status     0 in        0.08 seconds (walltime).
 --invoking executable--
/nfs/workspaces/public/cfour_mpi/bin/xvprop
 @GETMEM-I,  Allocated    3814 MB of main memory.
   Property integrals will be calculated.
    --------------------------------------------------------------
                                   Property evaluated at 
    Property type                X             Y             Z
    --------------------------------------------------------------
    Dipole moment               ----          ----          ----  
    Quadrupole moment           ----          ----          ----  
    Octopole moment             ----          ----          ----  
    Relativisitic corr.         ----          ----          ----  
    Second moment            0.0000000     0.0000000     0.0000000
    Electron density         0.0000000     0.0000000     1.4073287
    Electron density         0.0000000     0.0000000    -1.0558321
    Field gradient           0.0000000     0.0000000     1.4073287
    Field gradient           0.0000000     0.0000000    -1.0558321
    Potential                0.0000000     0.0000000     1.4073287
    Potential                0.0000000     0.0000000    -1.0558321
    --------------------------------------------------------------
 @CHECKOUT-I, Total execution time (CPU/WALL):        1.39/       1.43 seconds.
--executable xvprop finished with status     0 in        1.44 seconds (walltime).
 --invoking executable--
/nfs/workspaces/public/cfour_mpi/bin/xvscf
  There are  218 functions in the AO basis.

  There are 4 irreducible representations.

       Irrep        # of functions
         1                 86
         2                 52
         3                 52
         4                 28


  Parameters for SCF calculation: 
        SCF reference function:  RHF  
  Maximum number of iterations:  150
     Full symmetry point group: CXv 
     Computational point group: C2v 
        Initial density matrix: MOREAD                 
     SCF convergence tolerance: 10**(-10)
  DIIS convergence acceleration:  ON
          Latest start for DIIS:   8
                     DIIS order:   6

  Memory information:    2523578 words required.
  Fock matrices are constructed from AO integral file.
 @GETMEM-I,  Allocated      19 MB of main memory.
  Initialization and symmetry analysis required      0.001 seconds.

  Adding electric field perturbation to one-electron Hamiltonian.
  Field direction     : Z
  Field strength      : -0.0002000 a.u.

  @INITGES-I, Occupancies from core Hamiltonian:

          Alpha population by irrep:   5    1    1    0
           Beta population by irrep:   5    1    1    0


 total no. of electrons in initial guess :  0.000000000000000E+000
  --------------------------------------------------------------------
  Iteration         Total Energy            Largest Density Difference
  --------------------------------------------------------------------
       0            19.487156161483018              0.0000000000D+00
   current occupation vector 
     5  1  1  0
     5  1  1  0
       1           -92.817527369705644              0.1790289302D+02
   current occupation vector 
     5  1  1  0
     5  1  1  0
       2           -98.300939045085784              0.1789914517D+02
   current occupation vector 
     5  1  1  0
     5  1  1  0
       3          -103.502179241222947              0.7382332286D+01
   current occupation vector 
     5  1  1  0
     5  1  1  0
       4           -99.342845651529714              0.7058432184D+01
   current occupation vector 
     5  1  1  0
     5  1  1  0
       5          -101.888355225052209              0.6103265627D+01
   current occupation vector 
     5  1  1  0
     5  1  1  0
       6           -98.153265108632397              0.6077321100D+01
   current occupation vector 
     5  1  1  0
     5  1  1  0
       7          -101.899293468504482              0.6260580396D+01
   current occupation vector 
     5  1  1  0
     5  1  1  0
       8           -98.058462423655399              0.6259045815D+01
   current occupation vector 
     5  1  1  0
     5  1  1  0
       9          -109.092223521409935              0.4694240749D+01
   current occupation vector 
     5  1  1  0
     5  1  1  0
      10          -111.168472602920090              0.1133054770D+01
   current occupation vector 
     5  1  1  0
     5  1  1  0
      11          -112.588010503247901              0.9073539495D+00
   current occupation vector 
     5  1  1  0
     5  1  1  0
      12          -112.716633146387963              0.3582672352D+00
   current occupation vector 
     5  1  1  0
     5  1  1  0
      13          -112.718391748223851              0.4468037757D-01
   current occupation vector 
     5  1  1  0
     5  1  1  0
      14          -112.718612448059062              0.1541044985D-01
   current occupation vector 
     5  1  1  0
     5  1  1  0
      15          -112.718646122040084              0.9830517625D-02
   current occupation vector 
     5  1  1  0
     5  1  1  0
      16          -112.718646733415099              0.1222723559D-02
   current occupation vector 
     5  1  1  0
     5  1  1  0
      17          -112.718646780882793              0.3975660651D-03
   current occupation vector 
     5  1  1  0
     5  1  1  0
      18          -112.718646785189534              0.1338163643D-03
   current occupation vector 
     5  1  1  0
     5  1  1  0
      19          -112.718646785278978              0.2107952325D-04
   current occupation vector 
     5  1  1  0
     5  1  1  0
      20          -112.718646785281109              0.3575348859D-05
   current occupation vector 
     5  1  1  0
     5  1  1  0
      21          -112.718646785282445              0.5382726986D-06
   current occupation vector 
     5  1  1  0
     5  1  1  0
      22          -112.718646785282758              0.9957093194D-07
   current occupation vector 
     5  1  1  0
     5  1  1  0
      23          -112.718646785281564              0.2520269171D-07
   current occupation vector 
     5  1  1  0
     5  1  1  0
      24          -112.718646785282360              0.9720163008D-09
   current occupation vector 
     5  1  1  0
     5  1  1  0
      25          -112.718646785280882              0.5554741112D-09
   current occupation vector 
     5  1  1  0
     5  1  1  0
      26          -112.718646785281564              0.1959183926D-09
   current occupation vector 
     5  1  1  0
     5  1  1  0
      27          -112.718646785282274              0.2047921832D-09
   current occupation vector 
     5  1  1  0
     5  1  1  0

  SCF has converged.

 Density matrix saved to file den.dat
 total electron number:   14.0000000000001     
     E(SCF)=      -112.718646785281365              0.2402979898D-10

  Eigenvector printing suppressed.

 @PUTMOS-I, Writing converged MOs to NEWMOS. 
 @PUTMOS-I, Symmetry   1 Full Blocks 21 Partial Blocksize   2
 @PUTMOS-I, Symmetry   2 Full Blocks 13 Partial Blocksize   0
 @PUTMOS-I, Symmetry   3 Full Blocks 13 Partial Blocksize   0
 @PUTMOS-I, Symmetry   4 Full Blocks  7 Partial Blocksize   0
 @PUTFOCK-I, Writing converged Fock matrix to NEWFOCK. 
 @PUTFOCK-I, Symmetry   1 Full Blocks 21 Partial Blocksize   2
 @PUTFOCK-I, Symmetry   2 Full Blocks 13 Partial Blocksize   0
 @PUTFOCK-I, Symmetry   3 Full Blocks 13 Partial Blocksize   0
 @PUTFOCK-I, Symmetry   4 Full Blocks  7 Partial Blocksize   0


 
  ORBITAL EIGENVALUES (ALPHA)  (1H = 27.2113834 eV)

       MO #        E(hartree)               E(eV)           FULLSYM    COMPSYM
       ----   --------------------   --------------------   -------   ---------
    1     1         -20.6656123477        -562.3399007889     SG+        A1 (1)
    2     2         -11.4344434854        -311.1470256463     SG+        A1 (1)
    3     3          -1.4106796672         -38.3865452783     SG+        A1 (1)
    4     4          -0.7936894950         -21.5973891493     SG+        A1 (1)
    5    87          -0.5735117092         -15.6060470026      PI        B1 (2)
    6   139          -0.5735117092         -15.6060470026      PI        B2 (3)
    7     5          -0.5659651110         -15.4006936270     SG+        A1 (1)
  +++++++++++++++++++++++++++++++++++++++++++++++++++++++++++++++++++++++++++++
    8    88           0.0489551451           1.3321372235      PI        B1 (2)
    9   140           0.0489551451           1.3321372235      PI        B2 (3)
   10     6           0.0631255756           1.7177342396     SG+        A1 (1)
   11     7           0.0700782387           1.9069258210     SG+        A1 (1)
   12    89           0.1010887791           2.7507655263      PI        B1 (2)
   13   141           0.1010887791           2.7507655263      PI        B2 (3)
   14     8           0.1571261310           4.2756193942     SG+        A1 (1)
   15    90           0.1694989813           4.6123017671      PI        B1 (2)
   16   142           0.1694989813           4.6123017671      PI        B2 (3)
   17   191           0.2263702171           6.1598467669      DE        A2 (4)
   18     9           0.2263702171           6.1598467669      DE        A1 (1)
   19    10           0.2277988188           6.1987209959     SG+        A1 (1)
   20    11           0.2995267349           8.1505368220     SG+        A1 (1)
   21    91           0.3040177731           8.2727441847      PI        B1 (2)
   22   143           0.3040177731           8.2727441847      PI        B2 (3)
   23    12           0.3809107788          10.3651092420     SG+        A1 (1)
   24    92           0.3963882500          10.7862726461      PI        B1 (2)
   25   144           0.3963882500          10.7862726461      PI        B2 (3)
   26    13           0.5097458907          13.8708908674     SG+        A1 (1)
   27   192           0.5437341644          14.7957588139      DE        A2 (4)
   28    14           0.5437341644          14.7957588139      DE        A1 (1)
   29    15           0.5579789314          15.1833786306     SG+        A1 (1)
   30    93           0.6260727653          17.0363060523      PI        B1 (2)
   31   145           0.6260727653          17.0363060523      PI        B2 (3)
   32    94           0.7436942489          20.2369493398      PH        B1 (2)
   33   146           0.7436942489          20.2369493398      PH        B2 (3)
   34    16           0.7588047092          20.6481258677      DE        A1 (1)
   35   193           0.7588047092          20.6481258677      DE        A2 (4)
   36    17           0.7606159643          20.6974126255     SG+        A1 (1)
   37    95           0.8025301164          21.8379546863      PI        B1 (2)
   38   147           0.8025301164          21.8379546863      PI        B2 (3)
   39    18           0.8288913046          22.5552790870     SG+        A1 (1)
   40    19           0.8690134631          23.6470585254     SG+        A1 (1)
   41   194           0.8804360029          23.9578816334      DE        A2 (4)
   42    20           0.8804360029          23.9578816334      DE        A1 (1)
   43    96           0.8943088581          24.3353812164      PI        B1 (2)
   44   148           0.8943088581          24.3353812164      PI        B2 (3)
   45    97           1.0434492490          28.3936975719      PI        B1 (2)
   46   149           1.0434492490          28.3936975719      PI        B2 (3)
   47    21           1.1270604587          30.6688742565     SG+        A1 (1)
   48    22           1.4215550123          38.6824784640     SG+        A1 (1)
   49   150           1.4350669928          39.0501581464      PH        B2 (3)
   50    98           1.4350669928          39.0501581464      PH        B1 (2)
   51   195           1.5472390164          42.1025140872      DE        A2 (4)
   52    23           1.5472390164          42.1025140872      DE        A1 (1)
   53    99           1.5697287343          42.7144904231      PI        B1 (2)
   54   151           1.5697287343          42.7144904231      PI        B2 (3)
   55    24           1.6530924233          44.9829317255     SG+        A1 (1)
   56   152           1.6847588563          45.8446191757      PI        B2 (3)
   57   100           1.6847588563          45.8446191757      PI        B1 (2)
   58   196           1.7388161745          47.3155935858      DE        A2 (4)
   59    25           1.7388161745          47.3155935858      DE        A1 (1)
   60    26           1.8399135618          50.0665933529     SG+        A1 (1)
   61    27           2.0434198259          55.6042803284     SG+        A1 (1)
   62   153           2.0518299570          55.8331316324      PI        B2 (3)
   63   101           2.0518299570          55.8331316324      PI        B1 (2)
   64   197           2.0924021381          56.9371568066      PI        A2 (4)
   65    28           2.0924021381          56.9371568066      PI        A1 (1)
   66    29           2.1642980496          58.8935440189      DE        A1 (1)
   67   198           2.1642980496          58.8935440189      DE        A2 (4)
   68   154           2.2355159685          60.8314821155      PH        B2 (3)
   69   102           2.2355159685          60.8314821155      PH        B1 (2)
   70   155           2.2865253319          62.2195174607      PI        B2 (3)
   71   103           2.2865253319          62.2195174607      PI        B1 (2)
   72    30           2.2946012466          62.4392742702     SG+        A1 (1)
   73   104           2.3004637616          62.5988014145      PH        B1 (2)
   74   156           2.3004637616          62.5988014145      PH        B2 (3)
   75   199           2.3339975035          63.5113009212      DE        A2 (4)
   76    31           2.3339975035          63.5113009212      DE        A1 (1)
   77    32           2.4930626925          67.8396847671     SG+        A1 (1)
   78   157           2.5481517411          69.3387339883      PI        B2 (3)
   79   105           2.5481517411          69.3387339883      PI        B1 (2)
   80   158           2.7001710167          73.4753887812      PI        B2 (3)
   81   106           2.7001710167          73.4753887812      PI        B1 (2)
   82    33           2.7059836812          73.6335594241     SG+        A1 (1)
   83    34           2.8597129757          77.8167461956      DE        A1 (1)
   84   200           2.8597129757          77.8167461958      DE        A2 (4)
   85    35           3.3977573543          92.4576780673     SG+        A1 (1)
   86   159           3.6519199737          99.3737945518      PI        B2 (3)
   87   107           3.6519199738          99.3737945518      PI        B1 (2)
   88   201           3.7036231953         100.7807107374      PI        A2 (4)
   89    36           3.7036231953         100.7807107374      PI        A1 (1)
   90    37           3.8993767149         106.1074348090     SG+        A1 (1)
   91   160           4.0752892853         110.8942592094      PH        B2 (3)
   92   108           4.0752892853         110.8942592094      PH        B1 (2)
   93   161           4.1377524238         112.5939676184      PH        B2 (3)
   94   109           4.1377524238         112.5939676184      PH        B1 (2)
   95   110           4.1837799583         113.8464405078      PI        B1 (2)
   96   162           4.1837799583         113.8464405078      PI        B2 (3)
   97   202           4.2046242990         114.4136438543      DE        A2 (4)
   98    38           4.2046242990         114.4136438543      DE        A1 (1)
   99    39           4.2213728363         114.8693947234     SG+        A1 (1)
  100    40           4.3086090545         117.2432129038      DE        A1 (1)
  101   203           4.3086090545         117.2432129039      DE        A2 (4)
  102    41           4.3822185301         119.2462285662     SG+        A1 (1)
  103   111           4.8529535668         132.0555801294      PI        B1 (2)
  104   163           4.8529535668         132.0555801294      PI        B2 (3)
  105   164           4.9395306619         134.4114626565      PI        B2 (3)
  106   112           4.9395306619         134.4114626566      PI        B1 (2)
  107    42           4.9945600954         135.9088896713      DE        A1 (1)
  108   204           4.9945600954         135.9088896714      DE        A2 (4)
  109    43           5.1561920833         140.3071196626     SG+        A1 (1)
  110    44           5.3462966842         145.4801288440     SG+        A1 (1)
  111   165           5.6032724437         152.4727947603      PI        B2 (3)
  112   113           5.6032724437         152.4727947603      PI        B1 (2)
  113   205           5.8736090252         159.8290271260      PI        A2 (4)
  114    45           5.8736090252         159.8290271260      PI        A1 (1)
  115   166           6.0001470069         163.2723006608      PH        B2 (3)
  116   114           6.0001470069         163.2723006608      PH        B1 (2)
  117    46           6.2180123048         169.2007168130     SG+        A1 (1)
  118    47           6.2338993045         169.6330240511      DE        A1 (1)
  119   206           6.2338993045         169.6330240511      DE        A2 (4)
  120   167           6.2656600594         170.4972781294      PI        B2 (3)
  121   115           6.2656600594         170.4972781294      PI        B1 (2)
  122   116           6.4108654183         174.4485168244      PH        B1 (2)
  123   168           6.4108654183         174.4485168244      PH        B2 (3)
  124    48           6.5402802209         177.9700726348      DE        A1 (1)
  125   207           6.5402802209         177.9700726348      DE        A2 (4)
  126    49           6.5426816287         178.0354182622     SG+        A1 (1)
  127    50           6.7846997570         184.6210663425      DE        A1 (1)
  128   208           6.7846997570         184.6210663426      DE        A2 (4)
  129   169           7.1316587126         194.0622995067      PI        B2 (3)
  130   117           7.1316587126         194.0622995067      PI        B1 (2)
  131    51           7.4643031623         203.1140151627     SG+        A1 (1)
  132   170           7.9555138496         216.4805375062      PI        B2 (3)
  133   118           7.9555138496         216.4805375062      PI        B1 (2)
  134    52           8.2434060813         224.3144834014     SG+        A1 (1)
  135   171          10.0657742267         273.9036417012      PI        B2 (3)
  136   119          10.0657742267         273.9036417016      PI        B1 (2)
  137    53          10.0866763055         274.4724161797     SG+        A1 (1)
  138   209          10.6156188678         288.8656750408      PI        A2 (4)
  139    54          10.6156188678         288.8656750408      PI        A1 (1)
  140   172          10.7953063451         293.7552198763      PH        B2 (3)
  141   120          10.7953063451         293.7552198763      PH        B1 (2)
  142    55          10.8675166042         295.7201609238     SG+        A1 (1)
  143   210          11.0289072239         300.1118229534      DE        A2 (4)
  144    56          11.0289072239         300.1118229534      DE        A1 (1)
  145   173          11.1931571517         304.5812907111      PI        B2 (3)
  146   121          11.1931571517         304.5812907111      PI        B1 (2)
  147    57          11.5049561752         313.0657734849     SG+        A1 (1)
  148   174          11.8608843900         322.7510725997      PH        B2 (3)
  149   122          11.8608843900         322.7510725997      PH        B1 (2)
  150    58          12.1294842108         330.0600453034      DE        A1 (1)
  151   211          12.1294842108         330.0600453034      DE        A2 (4)
  152   175          12.5887398945         342.5570277915      PI        B2 (3)
  153   123          12.5887398945         342.5570277915      PI        B1 (2)
  154    59          12.7903334877         348.0426683471      DE        A1 (1)
  155   212          12.7903334877         348.0426683472      DE        A2 (4)
  156    60          12.9800154739         353.2041775983     SG+        A1 (1)
  157   124          13.3595149576         363.5308835492      PI        B1 (2)
  158   176          13.3595149576         363.5308835492      PI        B2 (3)
  159    61          14.4308412895         392.6831551141     SG+        A1 (1)
  160    62          17.7065062025         481.8185289496     SG+        A1 (1)
  161   125          19.0538131924         518.4806160104      PI        B1 (2)
  162   177          19.0538131924         518.4806160104      PI        B2 (3)
  163    63          20.4924736710         557.6285578762     SG+        A1 (1)
  164    64          26.3898243394         718.1036279594      DE        A1 (1)
  165   213          26.3898243394         718.1036279594      DE        A2 (4)
  166   178          26.8196428867         729.7995852420      PI        B2 (3)
  167   126          26.8196428867         729.7995852420      PI        B1 (2)
  168    65          27.4886891979         748.0052609282     SG+        A1 (1)
  169   179          33.7118065522         917.3448931985      PI        B2 (3)
  170   127          33.7118065522         917.3448931997      PI        B1 (2)
  171    66          34.5527139669         940.2271472648     SG+        A1 (1)
  172    67          36.2541777410         986.5263303614     SG+        A1 (1)
  173    68          47.0889543438        1281.3555905531      DE        A1 (1)
  174   214          47.0889543438        1281.3555905531      DE        A2 (4)
  175   128          47.3503345999        1288.4681089169      PI        B1 (2)
  176   180          47.3503345999        1288.4681089170      PI        B2 (3)
  177    69          48.0397062048        1307.2268639610     SG+        A1 (1)
  178    70          64.0020212528        1741.5835386839     SG+        A1 (1)
  179   129          66.5670126411        1811.3805027700      PI        B1 (2)
  180   181          66.5670126411        1811.3805027700      PI        B2 (3)
  181    71          67.6243400884        1840.1518453165     SG+        A1 (1)
  182   182          98.5981647937        2682.9924647389      PH        B2 (3)
  183   130          98.5981647937        2682.9924647389      PH        B1 (2)
  184   215          98.6128656243        2683.3924946756      DE        A2 (4)
  185    72          98.6128656243        2683.3924946757      DE        A1 (1)
  186   131          98.6457852559        2684.2882833924      PI        B1 (2)
  187   183          98.6457852559        2684.2882833925      PI        B2 (3)
  188    73          98.6679453895        2684.8912912831     SG+        A1 (1)
  189   184         103.2846889876        2810.5192713921      PH        B2 (3)
  190   132         103.2846889876        2810.5192713921      PH        B1 (2)
  191   216         103.3117073549        2811.2544785430      DE        A2 (4)
  192    74         103.3117073549        2811.2544785431      DE        A1 (1)
  193   133         103.3531619804        2812.3825162522      PI        B1 (2)
  194   185         103.3531619804        2812.3825162522      PI        B2 (3)
  195    75         103.3676860415        2812.7777360453     SG+        A1 (1)
  196   217         115.0726568616        3131.2861847176      DE        A2 (4)
  197    76         115.0726568616        3131.2861847177      DE        A1 (1)
  198   186         115.2806045349        3136.9447285828      PI        B2 (3)
  199   134         115.2806045349        3136.9447285828      PI        B1 (2)
  200    77         115.6159386708        3146.0696343232     SG+        A1 (1)
  201   187         116.9737920410        3183.0187029806      PI        B2 (3)
  202   135         116.9737920411        3183.0187029814      PI        B1 (2)
  203    78         117.6470055668        3201.3377743401     SG+        A1 (1)
  204    79         122.4526937534        3332.1071980872     SG+        A1 (1)
  205    80         198.5569324857        5403.0088165965      DE        A1 (1)
  206   218         198.5569324857        5403.0088165966      DE        A2 (4)
  207   188         198.6964133562        5406.8042840394      PI        B2 (3)
  208   136         198.6964133562        5406.8042840395      PI        B1 (2)
  209    81         199.0536165192        5416.5242762606     SG+        A1 (1)
  210    82         216.5149700603        5891.6718621501     SG+        A1 (1)
  211   137         225.0126573342        6122.9056885733      PI        B1 (2)
  212   189         225.0126573342        6122.9056885733      PI        B2 (3)
  213    83         225.8518427843        6145.7410856007     SG+        A1 (1)
  214   190         395.4370816553       10760.3900394995      PI        B2 (3)
  215   138         395.4370816553       10760.3900394998      PI        B1 (2)
  216    84         395.9932369102       10775.5237933697     SG+        A1 (1)
  217    85         509.0523151700       13852.0177187498     SG+        A1 (1)
  218    86         895.3477842491       24363.6518335420     SG+        A1 (1)


  VSCF finished.

 @CHECKOUT-I, Total execution time (CPU/WALL):       50.80/       9.71 seconds.
--executable xvscf finished with status     0 in        9.73 seconds (walltime).
 --invoking executable--
/nfs/workspaces/public/cfour_mpi/bin/xvtran
 @GETMEM-I,  Allocated    3814 MB of main memory.
  Full RHF integral transformation
  Transformation of IIII integrals :
  1 pass through the AO integral file was required.
     4525655 AO integrals were read.
     8757723 MO integrals were written to HF2.
  Transformation of IIJJ integrals :
  1 pass through the AO integral file was required.
    10258323 AO integrals were read.
    14549832 MO integrals were written to HF2.
  Transformation of IJIJ integrals :
  1 pass through the AO integral file was required.
    19472818 AO integrals were read.
    27269138 MO integrals were written to HF2.
  Transformation of IJKL integrals :
  1 pass through the AO integral file was required.
    14415548 AO integrals were read.
    18401446 MO integrals were written to HF2.
  Summary of active molecular orbitals: 
------------------------------------------------------------------------
 
  Index      Eigenvalue    Symmetry    Index      Eigenvalue    Symmetry
------------------------------------------------------------------------
     1       -20.6656123        1       110         4.1377524        2
     2       -11.4344435        1       111         4.1837800        2
     3        -1.4106797        1       112         4.8529536        2
     4        -0.7936895        1       113         4.9395307        2
     5        -0.5659651        1       114         5.6032724        2
     6        -0.5735117        2       115         6.0001470        2
     7        -0.5735117        3       116         6.2656601        2
     8         0.0631256        1       117         6.4108654        2
     9         0.0700782        1       118         7.1316587        2
    10         0.1571261        1       119         7.9555138        2
    11         0.2263702        1       120        10.0657742        2
    12         0.2277988        1       121        10.7953063        2
    13         0.2995267        1       122        11.1931572        2
    14         0.3809108        1       123        11.8608844        2
    15         0.5097459        1       124        12.5887399        2
    16         0.5437342        1       125        13.3595150        2
    17         0.5579789        1       126        19.0538132        2
    18         0.7588047        1       127        26.8196429        2
    19         0.7606160        1       128        33.7118066        2
    20         0.8288913        1       129        47.3503346        2
    21         0.8690135        1       130        66.5670126        2
    22         0.8804360        1       131        98.5981648        2
    23         1.1270605        1       132        98.6457853        2
    24         1.4215550        1       133       103.2846890        2
    25         1.5472390        1       134       103.3531620        2
    26         1.6530924        1       135       115.2806045        2
    27         1.7388162        1       136       116.9737920        2
    28         1.8399136        1       137       198.6964134        2
    29         2.0434198        1       138       225.0126573        2
    30         2.0924021        1       139       395.4370817        2
    31         2.1642980        1       140         0.0489551        3
    32         2.2946012        1       141         0.1010888        3
    33         2.3339975        1       142         0.1694990        3
    34         2.4930627        1       143         0.3040178        3
    35         2.7059837        1       144         0.3963883        3
    36         2.8597130        1       145         0.6260728        3
    37         3.3977574        1       146         0.7436942        3
    38         3.7036232        1       147         0.8025301        3
    39         3.8993767        1       148         0.8943089        3
    40         4.2046243        1       149         1.0434492        3
    41         4.2213728        1       150         1.4350670        3
    42         4.3086091        1       151         1.5697287        3
    43         4.3822185        1       152         1.6847589        3
    44         4.9945601        1       153         2.0518300        3
    45         5.1561921        1       154         2.2355160        3
    46         5.3462967        1       155         2.2865253        3
    47         5.8736090        1       156         2.3004638        3
    48         6.2180123        1       157         2.5481517        3
    49         6.2338993        1       158         2.7001710        3
    50         6.5402802        1       159         3.6519200        3
    51         6.5426816        1       160         4.0752893        3
    52         6.7846998        1       161         4.1377524        3
    53         7.4643032        1       162         4.1837800        3
    54         8.2434061        1       163         4.8529536        3
    55        10.0866763        1       164         4.9395307        3
    56        10.6156189        1       165         5.6032724        3
    57        10.8675166        1       166         6.0001470        3
    58        11.0289072        1       167         6.2656601        3
    59        11.5049562        1       168         6.4108654        3
    60        12.1294842        1       169         7.1316587        3
    61        12.7903335        1       170         7.9555138        3
    62        12.9800155        1       171        10.0657742        3
    63        14.4308413        1       172        10.7953063        3
    64        17.7065062        1       173        11.1931572        3
    65        20.4924737        1       174        11.8608844        3
    66        26.3898243        1       175        12.5887399        3
    67        27.4886892        1       176        13.3595150        3
    68        34.5527140        1       177        19.0538132        3
    69        36.2541777        1       178        26.8196429        3
    70        47.0889543        1       179        33.7118066        3
    71        48.0397062        1       180        47.3503346        3
    72        64.0020213        1       181        66.5670126        3
    73        67.6243401        1       182        98.5981648        3
    74        98.6128656        1       183        98.6457853        3
    75        98.6679454        1       184       103.2846890        3
    76       103.3117074        1       185       103.3531620        3
    77       103.3676860        1       186       115.2806045        3
    78       115.0726569        1       187       116.9737920        3
    79       115.6159387        1       188       198.6964134        3
    80       117.6470056        1       189       225.0126573        3
    81       122.4526938        1       190       395.4370817        3
    82       198.5569325        1       191         0.2263702        4
    83       199.0536165        1       192         0.5437342        4
    84       216.5149701        1       193         0.7588047        4
    85       225.8518428        1       194         0.8804360        4
    86       395.9932369        1       195         1.5472390        4
    87       509.0523152        1       196         1.7388162        4
    88       895.3477842        1       197         2.0924021        4
    89         0.0489551        2       198         2.1642980        4
    90         0.1010888        2       199         2.3339975        4
    91         0.1694990        2       200         2.8597130        4
    92         0.3040178        2       201         3.7036232        4
    93         0.3963883        2       202         4.2046243        4
    94         0.6260728        2       203         4.3086091        4
    95         0.7436942        2       204         4.9945601        4
    96         0.8025301        2       205         5.8736090        4
    97         0.8943089        2       206         6.2338993        4
    98         1.0434492        2       207         6.5402802        4
    99         1.4350670        2       208         6.7846998        4
   100         1.5697287        2       209        10.6156189        4
   101         1.6847589        2       210        11.0289072        4
   102         2.0518300        2       211        12.1294842        4
   103         2.2355160        2       212        12.7903335        4
   104         2.2865253        2       213        26.3898243        4
   105         2.3004638        2       214        47.0889543        4
   106         2.5481517        2       215        98.6128656        4
   107         2.7001710        2       216       103.3117074        4
   108         3.6519200        2       217       115.0726569        4
   109         4.0752893        2       218       198.5569325        4
------------------------------------------------------------------------
  -20.6656123476944       -11.4344434853789       -1.41067966718414     
 -0.793689495009780      -0.565965111020628      -0.573511709169039     
 -0.573511709169020       6.312557558534129E-002  7.007823869157777E-002
  0.157126131049747       0.226370217065328       0.227798818781266     
  0.299526734901748       0.380910778759742       0.509745890664194     
  0.543734164352901       0.557978931367986       0.758804709196105     
  0.760615964326887       0.828891304623958       0.869013463144386     
  0.880436002876188        1.12706045869228        1.42155501230361     
   1.54723901641801        1.65309242328079        1.73881617447589     
   1.83991356179602        2.04341982585269        2.09240213809314     
   2.16429804957643        2.29460124655608        2.33399750345671     
   2.49306269254432        2.70598368123005        2.85971297569697     
   3.39775735427478        3.70362319533603        3.89937671485572     
   4.20462429904603        4.22137283631718        4.30860905454074     
   4.38221853014007        4.99456009543718        5.15619208329663     
   5.34629668420141        5.87360902518516        6.21801230484264     
   6.23389930447465        6.54028022091702        6.54268162868052     
   6.78469975703406        7.46430316228238        8.24340608134567     
   10.0866763054650        10.6156188678307        10.8675166042383     
   11.0289072239298        11.5049561752473        12.1294842107673     
   12.7903334876807        12.9800154739034        14.4308412895363     
[...]
 Convergence information after    11 iterations: 
 Largest element of residual vector : -0.37408073E-05.
 Largest element of DIIS residual   : -0.16324134E-05.
 Convergence information after    12 iterations: 
 Largest element of residual vector : -0.20681231E-05.
 Largest element of DIIS residual   : -0.96163082E-06.
 Convergence information after    13 iterations: 
 Largest element of residual vector : -0.81743942E-06.
 Largest element of DIIS residual   : -0.26969776E-06.
 Convergence information after    14 iterations: 
 Largest element of residual vector : -0.35532302E-06.
 Largest element of DIIS residual   : -0.15099805E-06.
 Convergence information after    15 iterations: 
 Largest element of residual vector : -0.99544915E-07.
 Largest element of DIIS residual   : -0.60212488E-07.
 Perturbed amplitude equations converged in    15 iterations.
  Dominant contributions to perturbed wavefunction:
    7    7  140   28  -0.2155651926 ABAB
    7    7   28  140  -0.2155651926 ABAB
    7    7  141   28  -0.2012018267 ABAB
    7    7   28  141  -0.2012018267 ABAB
    7    7  140   39   0.1771787915 ABAB
    7    7   39  140   0.1771787915 ABAB
    7    7  141   39   0.1712312632 ABAB
    7    7   39  141   0.1712312632 ABAB
    7    7  140   54  -0.1397075893 ABAB
    7    7   54  140  -0.1397075893 ABAB
    7    6   28   89  -0.1396184078 ABAB
    6    7   89   28  -0.1396184078 ABAB
    7    7  141   54  -0.1355667911 ABAB
    7    7   54  141  -0.1355667911 ABAB
    7    7  141   45   0.1288704201 ABAB
    7    7   45  141   0.1288704201 ABAB
    7    6   28   90  -0.1283177687 ABAB
    6    7   90   28  -0.1283177687 ABAB
    7    7  140   20  -0.1269217021 ABAB
    7    7   20  140  -0.1269217021 ABAB
  norm of converged amps    2.05936716411072     
 Starting iterative solution of the perturbed Lambda equations.
 The DIIS procedure is used to accelerate convergence.
 Convergence criterion is 10**(-7).
 Maximum number of iterations is 100.
 Convergence information after     1 iterations: 
 Largest element of residual vector :  0.61205266E-01.
 Largest element of DIIS residual   :  0.61205266E-01.
 Convergence information after     2 iterations: 
 Largest element of residual vector : -0.11336884E-01.
 Largest element of DIIS residual   :  0.72685975E-02.
 Convergence information after     3 iterations: 
 Largest element of residual vector :  0.46771072E-02.
 Largest element of DIIS residual   :  0.41774914E-02.
 Convergence information after     4 iterations: 
 Largest element of residual vector :  0.28621410E-02.
 Largest element of DIIS residual   :  0.24031149E-02.
 Convergence information after     5 iterations: 
 Largest element of residual vector :  0.19462977E-02.
 Largest element of DIIS residual   :  0.10776982E-02.
 Convergence information after     6 iterations: 
 Largest element of residual vector :  0.71661978E-03.
 Largest element of DIIS residual   :  0.26685892E-03.
 Convergence information after     7 iterations: 
 Largest element of residual vector :  0.23929128E-03.
 Largest element of DIIS residual   :  0.12328458E-03.
 Convergence information after     8 iterations: 
 Largest element of residual vector :  0.77012667E-04.
 Largest element of DIIS residual   :  0.45161947E-04.
 Convergence information after     9 iterations: 
 Largest element of residual vector :  0.27443121E-04.
 Largest element of DIIS residual   : -0.78876101E-05.
 Convergence information after    10 iterations: 
 Largest element of residual vector : -0.53345552E-05.
 Largest element of DIIS residual   : -0.48441568E-05.
 Convergence information after    11 iterations: 
 Largest element of residual vector : -0.27555835E-05.
 Largest element of DIIS residual   : -0.14959395E-05.
 Convergence information after    12 iterations: 
 Largest element of residual vector : -0.16140840E-05.
 Largest element of DIIS residual   : -0.12428932E-05.
 Convergence information after    13 iterations: 
 Largest element of residual vector : -0.92413008E-06.
 Largest element of DIIS residual   : -0.54934612E-06.
 Convergence information after    14 iterations: 
 Largest element of residual vector : -0.56087634E-06.
 Largest element of DIIS residual   : -0.32482667E-06.
 Convergence information after    15 iterations: 
 Largest element of residual vector : -0.21992026E-06.
 Largest element of DIIS residual   : -0.12911085E-06.
 Convergence information after    16 iterations: 
 Largest element of residual vector : -0.11167515E-06.
 Largest element of DIIS residual   : -0.42012017E-07.
 Perturbed Lambda equations converged in    16 iterations.
  Dominant contributions to perturbed wavefunction:
    7    7  140   28  -0.1988366957 ABAB
    7    7   28  140  -0.1988366957 ABAB
    7    7  141   28  -0.1842986415 ABAB
    7    7   28  141  -0.1842986415 ABAB
    7    7  140   39   0.1617524847 ABAB
    7    7   39  140   0.1617524847 ABAB
    7    7  141   39   0.1552619520 ABAB
    7    7   39  141   0.1552619520 ABAB
    7    7  140   54  -0.1303158670 ABAB
    7    7   54  140  -0.1303158670 ABAB
    7    6   28   89  -0.1265436377 ABAB
    6    7   89   28  -0.1265436377 ABAB
    7    7  141   54  -0.1257313596 ABAB
    7    7   54  141  -0.1257313596 ABAB
    7    6   28   90  -0.1156714726 ABAB
    6    7   90   28  -0.1156714726 ABAB
    7    7  141   45   0.1153640109 ABAB
    7    7   45  141   0.1153640109 ABAB
    7    7  140   20  -0.1147520264 ABAB
    7    7   20  140  -0.1147520264 ABAB
        The DBOC first-order density matrix is being calculated 
             (Symmetry block 3, perturbation   2)
 term   4.81940369678458     
 final tnorm  0.862748384007315     
  norm contr. I: |<0|L dT/dx|0>|^2   0.000000000000000E+000
  norm contr. II: <0|[nabla(1+L)e-T][nabla e^T]|0>   4.81940369678458     
  total norm contribution   4.81940369678458     
 oo  8.833725096744830E-003
 vv  -36.1474946811664     
 vo  6.143065469958815E-002
  Correlated perturbed 1-el contribution to DBOC  -36.0772303013701       cm**-1
  SUM_I |dc_I/dx|^2 contribution to DBOC   18.1436553992914       cm**-1
 
 
  The total diagonal Born-Oppenheimer correction (DBOC) is:      0.0041388550 a.u.
  The total diagonal Born-Oppenheimer correction (DBOC) is:        908.373672 cm-1
 
 Total CC energy including DBOC  -113.230183665940     
 First-order density matrix is being calculated  (Symmetry block 3, perturbation   2)
 Calculation of the contributions of <pq||rs> to dI(i,j)/dx required   1.6 seconds.
 Calculation of the contributions of <pq||rs> to dI(a,b)/dx required  15.6 seconds.
 Calculation of the contributions of <pq||rs> to dI(i,a)/dx required   9.4 seconds.
 First-order Z-vector equations are solved for 1 perturbation.
 Convergence reached after  18 iterations.
        U*G(pq,rs) contribution is being calculated
             (Symmetry block 3, perturbation   2)

 CCSD contribution to force constants 

        0.0000000000        0.0000000000        0.0000000000
        0.0000000000        0.0000000000        0.0000000000
        0.0000000000        0.0000000000        0.0000000000
        0.0000000000        0.0000000000        0.0000000000
        0.0000000000        0.0000000000        0.0000000000
        0.0000000000        0.0000000000        0.0000000000
        0.0000000000        0.0000000000        0.0000000000
        0.0000000000        0.0000000000        0.0000000000
        0.0000000000        0.0000000000        0.0000000000
        0.0000000000        0.0000000000        0.0000000000
        0.0000000000        0.0000000000        0.0000000000
        0.0000000000        1.5426182118       -1.5426182118

 CCSD contribution to dipole derivatives 

        0.0000000000        0.0000000000        0.0000000000
        0.0000000000        0.0000000000        0.0000000000
        0.0000000000        0.0000000000        0.0000000000
        0.0000000000        0.0000000000       -0.0514328395
        0.0000000000        0.0000000000        0.0000000000
        0.0000000000        0.0000000000        0.0000000000
 @CHECKOUT-I, Total execution time (CPU/WALL):     1037.63/     264.97 seconds.
--executable xsdcc finished with status     0 in      265.00 seconds (walltime).
 --invoking executable--
/nfs/workspaces/public/cfour_mpi/bin/xanti
 @GETMEM-I,  Allocated    3814 MB of main memory.
 CCSD MO derivative gammas will be sorted to Mulliken order.
 @CHECKOUT-I, Total execution time (CPU/WALL):        8.68/       8.72 seconds.
--executable xanti finished with status     0 in        8.74 seconds (walltime).
 --invoking executable--
/nfs/workspaces/public/cfour_mpi/bin/xbcktrn
 @GETMEM-I,  Allocated    3814 MB of main memory.
 CCSD MO derivative gammas will be transformed to the AO basis.
 @CHECKOUT-I, Total execution time (CPU/WALL):       19.52/       3.19 seconds.
--executable xbcktrn finished with status     0 in        3.20 seconds (walltime).
 --invoking executable--
/nfs/workspaces/public/cfour_mpi/bin/xvdint
 @GETMEM-I,  Allocated    3814 MB of main memory.
 One- and two-electron integral derivatives are calculated
 for RHF-CC/MBPT hessians and dipole derivatives.
 Spherical gaussians are used.
  magnet F F
                    8722  records have been written to the Sort file.
  Total length of Sort file :             178609116  words.
 Evaluation of 2el integral derivatives

                      Two-electron integral gradient
                      ------------------------------

                         C #1 z     0.0000000000
                         O #2 z     0.0000000000


 C #1       0.0000000000           -0.1937354294            0.0000000000
 O #2       0.0000000000            0.1937354294            0.0000000000


 Evaluation of 2e integral derivatives required  352.97 seconds.
  contribution to Hessian
        0.0000000000        0.0000000000        0.0000000000
        0.0000000000       -0.1937354294        0.1937354294
 @CHECKOUT-I, Total execution time (CPU/WALL):      352.97/      69.95 seconds.
--executable xvdint finished with status     0 in       69.97 seconds (walltime).
 --invoking executable--
/nfs/workspaces/public/cfour_mpi/bin/xanti
 @GETMEM-I,  Allocated    3814 MB of main memory.
 CCSD MO gammas will be sorted to Mulliken order.
 @CHECKOUT-I, Total execution time (CPU/WALL):       10.96/       9.55 seconds.
--executable xanti finished with status     0 in        9.57 seconds (walltime).
 --invoking executable--
/nfs/workspaces/public/cfour_mpi/bin/xbcktrn
 @GETMEM-I,  Allocated    3814 MB of main memory.
 CCSD MO gammas will be transformed to the AO basis.
 @CHECKOUT-I, Total execution time (CPU/WALL):       34.00/       7.63 seconds.
--executable xbcktrn finished with status     0 in        7.65 seconds (walltime).
 --invoking executable--
/nfs/workspaces/public/cfour_mpi/bin/xvdint
 @GETMEM-I,  Allocated    3814 MB of main memory.
 One- and two-electron integral derivatives are calculated
 for RHF-CC/MBPT hessians and dipole derivatives.
 Spherical gaussians are used.
  magnet F F

                     Kinetic energy integral gradient
                     --------------------------------

                         C #1 z    -1.0235064456
                         O #2 z     1.0235064456


 C #1       0.0000000000            0.0000000000           -1.0235064456
 O #2       0.0000000000            0.0000000000            1.0235064456



                   Nuclear attraction integral gradient
                   ------------------------------------

                         C #1 z    19.2196859163
                         O #2 z   -19.2196859163


 C #1       0.0000000000            0.0000000000           19.2196859163
 O #2       0.0000000000            0.0000000000          -19.2196859163



                      Reorthonormalization gradient
                      -----------------------------

                         C #1 z     0.0000000000
                         O #2 z     0.0000000000


 C #1       0.0000000000            0.0000000000            0.0000000000
 O #2       0.0000000000            0.0000000000            0.0000000000



                     Kinetic energy integral Hessian
                     -------------------------------


           Symmetry 1

           C #1 z      O #2 z

 C #1 z    0.961720
 O #2 z   -0.961720    0.961720


           Symmetry 2

           C #1 x      O #2 x

 C #1 x   -1.071096
 O #2 x    1.071096   -1.071096


           Symmetry 3

           C #1 y      O #2 y

 C #1 y   -1.071096
 O #2 y    1.071096   -1.071096




           C #1 x      C #1 y      C #1 z      O #2 x      O #2 y      O #2 z

 C #1 x   -1.071096
 C #1 y    0.000000   -1.071096
 C #1 z    0.000000    0.000000    0.961720

 O #2 x    1.071096    0.000000    0.000000   -1.071096
 O #2 y    0.000000    1.071096    0.000000    0.000000   -1.071096
 O #2 z    0.000000    0.000000   -0.961720    0.000000    0.000000    0.961720




                   Nuclear attraction integral Hessian
                   -----------------------------------


           Symmetry 1

           C #1 z      O #2 z

 C #1 z  -11.778175
 O #2 z   11.778175  -11.778175


           Symmetry 2

           C #1 x      O #2 x

 C #1 x   13.840757
 O #2 x  -13.840757   13.840757


           Symmetry 3

           C #1 y      O #2 y

 C #1 y   13.840757
 O #2 y  -13.840757   13.840757




           C #1 x      C #1 y      C #1 z      O #2 x      O #2 y      O #2 z

 C #1 x   13.840757
 C #1 y    0.000000   13.840757
 C #1 z    0.000000    0.000000  -11.778175

 O #2 x  -13.840757    0.000000    0.000000   13.840757
 O #2 y    0.000000  -13.840757    0.000000    0.000000   13.840757
 O #2 z    0.000000    0.000000   11.778175    0.000000    0.000000  -11.778175




                Highest order reorthonormalization Hessian
                ------------------------------------------


           Symmetry 1

           C #1 z      O #2 z

 C #1 z    0.000000
 O #2 z    0.000000    0.000000


           Symmetry 2

           C #1 x      O #2 x

 C #1 x    0.000000
 O #2 x    0.000000    0.000000


           Symmetry 3

           C #1 y      O #2 y

 C #1 y    0.000000
 O #2 y    0.000000    0.000000




           C #1 x      C #1 y      C #1 z      O #2 x      O #2 y      O #2 z




                Electronic contributions to dipole moment
                -----------------------------------------

                               au             Debye

                    z      0.16807349      0.42720026

  Conversion factor used: 1 a.u. =   2.54174691 Debye 



   Electronic contributions to static part of dipole moment derivatives
   --------------------------------------------------------------------


                     Total dipole moment derivatives
                     -------------------------------


           Symmetry 1
                              Ez

               C #1 z    -5.66661793
               O #2 z    -8.33338207

           Symmetry 2
                              Ex

               C #1 x    -5.70695508
               O #2 x    -8.29304492

           Symmetry 3
                              Ey

               C #1 y    -5.70695508
               O #2 y    -8.29304492



                       Ex          Ey          Ez

      C #1    x   -5.706955    0.000000    0.000000
      C #1    y    0.000000   -5.706955    0.000000
      C #1    z    0.000000    0.000000   -5.666618

      O #2    x   -8.293045    0.000000    0.000000
      O #2    y    0.000000   -8.293045    0.000000
      O #2    z    0.000000    0.000000   -8.333382

 Evaluation of 1e integral derivatives required    1.73 seconds.
                    8815  records have been written to the Sort file.
  Total length of Sort file :             180513570  words.
 Evaluation of 2el integral derivatives

                      Two-electron integral gradient
                      ------------------------------

                         C #1 z    -9.6141756069
                         O #2 z     9.6141756069


 C #1       0.0000000000            0.0000000000           -9.6141756069
 O #2       0.0000000000            0.0000000000            9.6141756069


 Evaluation of 2e integral derivatives required  663.34 seconds.

                            Molecular gradient
                            ------------------

                         C #1 z     0.6705606098
                         O #2 z    -0.6705606098


 C #1       0.0000000000            0.0000000000            0.6705606098
 O #2       0.0000000000            0.0000000000           -0.6705606098


  Molecular gradient norm 0.948E+00

                            Molecular hessian
                            -----------------


           Symmetry 1

           C #1 z      O #2 z

 C #1 z   40.863031
 O #2 z  -40.863031   40.863031


           Symmetry 2

           C #1 x      O #2 x

 C #1 x   -1.063175
 O #2 x    1.063175   -1.063175


           Symmetry 3

           C #1 y      O #2 y

 C #1 y   -1.063175
 O #2 y    1.063175   -1.063175




           C #1 x      C #1 y      C #1 z      O #2 x      O #2 y      O #2 z

 C #1 x   -1.063175
 C #1 y    0.000000   -1.063175
 C #1 z    0.000000    0.000000   40.863031

 O #2 x    1.063175    0.000000    0.000000   -1.063175
 O #2 y    0.000000    1.063175    0.000000    0.000000   -1.063175
 O #2 z    0.000000    0.000000  -40.863031    0.000000    0.000000   40.863031




                           Total dipole moment
                           -------------------

                               au             Debye

                    z      0.16538884      0.42037657

  Conversion factor used: 1 a.u. =   2.54174691 Debye 



                     Total dipole moment derivatives
                     -------------------------------


           Symmetry 1
                              Ez

               C #1 z     0.69890441
               O #2 z    -0.69890441

           Symmetry 2
                              Ex

               C #1 x     0.06849001
               O #2 x    -0.06849001

           Symmetry 3
                              Ey

               C #1 y     0.06849001
               O #2 y    -0.06849001



                       Ex          Ey          Ez

      C #1    x    0.068490    0.000000    0.000000
      C #1    y    0.000000    0.068490    0.000000
      C #1    z    0.000000    0.000000    0.698904

      O #2    x   -0.068490    0.000000    0.000000
      O #2    y    0.000000   -0.068490    0.000000
      O #2    z    0.000000    0.000000   -0.698904

 @CHECKOUT-I, Total execution time (CPU/WALL):      665.06/     111.03 seconds.
--executable xvdint finished with status     0 in      111.05 seconds (walltime).
 --invoking executable--
/nfs/workspaces/public/cfour_mpi/bin/xjoda
  @GTFLGS-I, Hessian will be transformed to curvilinear coordinates.
  @GTFLGS-I, Hessian will be transformed to curvilinear coordinates.
  igrd and ihes are                      0                     1
  gradient from JOBARC 
   0.000000000000000   0.000000000000000   0.670560609827219
   0.000000000000000   0.000000000000000  -0.670560609827219
 
  @PROJFCM-I, Projecting force constant matrix onto totally symmetric subspace.
  Largest difference between matrix elements of symmetrized
  and unsymmetrized FCM :    -0.1024957896E-11.
  read isotopes from ZMAT file 
 
  Summary of diagonal Born-Oppenheimer correction at the correlated level
  The total diagonal Born-Oppenheimer correction (DBOC) is:      0.0041388550 a.u.
  The total diagonal Born-Oppenheimer correction (DBOC) is:        908.373672 cm-1
  The total diagonal Born-Oppenheimer correction (DBOC) is:            10.867 kJ/mole
  hellooooooo 
  readis is  F
 
 @CHECKOUT-I, Total execution time (CPU/WALL):        0.01/       0.05 seconds.
--executable xjoda finished with status     0 in        0.09 seconds (walltime).
  The final electronic energy is      -113.230183665940345 a.u. 
  This computation required                         2685.28 seconds (walltime).
