 --invoking executable--
/nfs/workspaces/public/cfour_mpi/bin/xjoda


   *************************************************************************
         <<<     CCCCCC     CCCCCC   |||     CCCCCC     CCCCCC   >>>
       <<<      CCC        CCC       |||    CCC        CCC         >>>
      <<<      CCC        CCC        |||   CCC        CCC            >>>
    <<<        CCC        CCC        |||   CCC        CCC              >>>
      <<<      CCC        CCC        |||   CCC        CCC            >>>
       <<<      CCC        CCC       |||    CCC        CCC         >>>
         <<<     CCCCCC     CCCCCC   |||     CCCCCC     CCCCCC   >>>
   *************************************************************************

     ****************************************************************
     * CFOUR Coupled-Cluster techniques for Computational Chemistry *
     ****************************************************************
 

   Department of Chemistry                Institut fuer Physikalische Chemie
   University of Florida                  Universitaet Mainz
   Gainesville, FL 32611, USA             D-55099 Mainz, Germany

   Department of Chemistry                Fakultaet fuer Chemie und Biowiss.
   Johns Hopkins University               Karlsruher Institut fuer Technologie
   Baltimore, MD 21218, USA               D-76131 Karlsruhe, Germany

   Department of Chemistry                Department of Physical Chemistry
   Southern Methodist University          Eotvos Lorand University
   Dallas, TX 75275, USA                  H-1053 Budapest, Hungary

 
                       Version 2.1
 
                     vincent.theory.phys.ucl.ac.uk                     
                     Tue 25 Feb 02:19:16 GMT 2025                      
                     integer*8 version is running
 
********************************************************************************
*                          Input from ZMAT file                                *
********************************************************************************
Carbon Monoxide DBOC calculation                                                
C                                                                               
O 1 r                                                                           
                                                                                
r=1.1793103448275861                                                            
                                                                                
                                                                                
*CFOUR(CALC=CCSD,BASIS=AUG-PCVQZ,SCF_CONV=10                                    
CC_CONV=14,DBOC=ON,MEMORY=500000000                                             
ZFIELD=200)                                                                     
                                                                                
%isotopes                                                                       
12                                                                              
16                                                                              
********************************************************************************
  @GTFLGS-I, Hessian will be transformed to curvilinear coordinates.
    -------------------------------------------------------------------
                    CFOUR Control Parameters 
    -------------------------------------------------------------------
        External           Internal           Value            Units
          Name               Name
    -------------------------------------------------------------------
       ABCDTYPE             IABCDT         STANDARD    [  0]    ***   
       ANHARMONIC           IANHAR         OFF         [  0]    ***   
       ANH_ALGORIT          IANALG         STANDARD    [  0]    ***   
       ANH_DERIVAT          IANDER         SECOND      [  1]    ***   
       ANH_MODE             ANHMOD         VIBRATION   [  0]    ***   
       ANH_STEPSIZ          ICUBST             50000          x 10-6  
       ANH_SYMMETR          IANHSM         ABELIAN     [  0]    ***   
       AO_LADDERS           IAOLAD         SINGLEPASS  [  1]    ***   
       AV_SCF               IAVSCF         OFF         [  0]    ***   
       BASIS                IBASIS         AUG-PCVQZ   [ 52]    ***   
       BOTHVECTORS          BOTHVC         OFF         [  0]    ***   
       BOX_POTENT           IPIAB          OFF         [  0]    ***   
       BREIT                IBREIT         OFF         [  0]    ***   
       BRUCK_CONV           IBRTOL          10D-  4             ***   
       BRUECKNER            IBRKNR         OFF         [  0]    ***   
       BUFFERSIZE           IBUFFS              4096            ***   
       CACHE_RECS           ICHREC             10               ***   
       CALCLEVEL            ICLLVL         CCSD        [ 10]    ***   
       CCORBOPT             ICCORB         OFF         [  0]  x 0.01  
       CC_CONV              ICCCNV          10D- 14             ***   
       CC_EXPORDER          ICCEOR              5               ***   
       CC_EXTRAPOL          ICCEXT         DIIS        [  1]    ***   
       CC_GUESS             ICCGES         MP2         [  0]    ***   
       CC_MAXCYC            ICCCYC            100              cycles 
       CC_PROGRAM           ICCPRO         VCC         [  0]    ***   
       CHARGE               ICHRGE              0               ***   
       CHOLESKY             ICHOLE         OFF         [  0]    ***   
       CIS_CONV             ICISTL              5               ***   
       COMM_SIZE            IPSIZE            ***               ***   
       CONSTANT             ICONST         OLD         [  1]    ***   
       CONTINUUM            ICONTU         NONE        [  0]    ***   
       CONTRACTION          ICNTYP         GENERAL     [  1]    ***   
       COORDINATES          ICOORD         INTERNAL    [  0]    ***   
       CPHF_CONVER          ICPHFT          10D- 16             ***   
       CPHF_MAXCYC          ICPHFC             64              cycles 
       CUBIC                ICUBIC         OFF         [  0]    ***   
       CURVILINEAR          ICURVY         ON          [  1]    ***   
       DBOC                 IDBOC          ON          [  1]    ***   
       DCT                  IDCT           OFF         [  0]    ***   
       DERIV_LEV            IDRLVL         SECOND      [  2]    ***   
       DEVMEM_SIZE          IDVMEM          50000000           MByte  
       DIAG_MRCC            IEOMST          10D-  0             ***   
       DIFF_TYPE            IDIFTY         RELAXED     [  0]    ***   
       DIRECT               IDIRCT         OFF         [  0]    ***   
       DROPMO               IDRPMO      NONE         
       ECP                  IECP           OFF         [  0]    ***   
       EIGENVECTOR          IVEC                1               ***   
       EL_ANHARM            IELANH         OFF         [  0]    ***   
       EOMFOLLOW            IEOMSR         ENERGY      [  0]    ***   
       EOMIP                IEOMIP         OFF         [  0]    ***   
       EOMLEVEL             HBARFM         SAME        [  0]    ***   
       EOM_MRCC             IMRCCE         NEW         [  1]    ***   
       EOM_NONIT            EOMNON         OFF         [  0]    ***   
       EOM_NSING            IEOMSI          10D-  0             ***   
       EOM_NSTATES          IMRCCD         DAVIDSON    [  0]    ***   
       EOM_NTRIP            IEOMTR          10D-  0             ***   
       EOM_ORDER            IEXORD         ENERGY      [  0]    ***   
       EOM_PROPSTA          IEOMST              0               ***   
       ESTATE_CONV          IEXTOL          10D-  5             ***   
       ESTATE_DIAG          IEXDIG         ITERATIVE   [  0]    ***   
       ESTATE_LOCK          IESLOC         ON          [  1]    ***   
       ESTATE_MAXC          IEXMXC             40               ***   
       ESTATE_PROP          IEXPRP         OFF         [  0]    ***   
       EVAL_HESS            IRECAL              0            # of cyc.
       EXCITATION           IEXCIT              0               ***   
       EXCITE               IEXCIT         NONE        [  0]    ***   
       EXTERN_POT           IEXPOT         OFF         [  0]    ***   
       FCGRADNEW            IFCGNW         OFF         [  0]    ***   
       FC_FIELD             IFINFC              0             x 10-6  
       FD_CALTYPE           IFDCAL         GRADONLY    [  0]    ***   
       FD_PROJECT           IFDPRJ         OFF         [  1]    ***   
       FD_STEPSIZE          IDISFD              0            10-4 bohr
       FD_USEGROUP          IFDGRP         FULL        [  0]    ***   
       FILE_RECSIZ          IFLREC              4096           words  
       FINITE_PERT          IFIPER              0             x 10-6  
       FIXGEOM              IFIXGM         OFF         [  0]    ***   
       FOCK                 IFOCK          AO          [  1]    ***   
       FREQ_ALGORI          IVIALG         STANDARD    [  0]    ***   
       FROZEN_CORE          IFROCO         OFF         [  0]    ***   
       GAMMA_ABCD           IGABCD         STORE       [  0]    ***   
       GAMMA_ABCI           IGABCI         STORE       [  0]    ***   
       GENBAS_1             IGNBS1              0               ***   
       GENBAS_2             IGNBS2              0               ***   
       GENBAS_3             IGNBS3              0               ***   
       GENBAS_4             IGNBS4              0               ***   
       GEO_CONV             ICONTL              5              H/bohr 
       GEO_MAXCYC           IOPTCY             50               ***   
       GEO_MAXSTEP          IMXSTP            300            millibohr
       GEO_METHOD           INR            SINGLE_POINT[  5]    ***   
       GIAO                 IGIAO          OFF         [  1]    ***   
       GIMIC                IGIMIC         OFF         [  0]    ***   
       GRID                 IGRID          OFF         [  0]    ***   
       GRID_ALGO            IGALGO         SERIAL      [  0]    ***   
       GUESS                IGUESS         MOREAD      [  0]    ***   
       HBAR                 IHBAR          OFF         [  0]    ***   
       HESS_TYPE            IHESTP         SCF         [  0]    ***   
       HF2_FILE             IHF2Fl         USE         [  1]    ***   
       HFSTABILITY          ISTABL         OFF         [  0]    ***   
       INCORE               INCORE         OFF         [  0]    ***   
       INPUT_MRCC           IMRCC          ON          [  1]    ***   
       INTEGRALS            INTTYP         VMOL        [  1]    ***   
       JODA_PRINT           IJPRNT              0               ***   
       KEYWORD_OUT          IDMPKW         NO          [  0]    ***   
       LINDEP_TOL           ILINDP              8               ***   
       LINEQ_CONV           IZTACN          10D-  7           cycles  
       LINEQ_EXPOR          ILMAXD              5               ***   
       LINEQ_MAXCY          ILMAXC            100               ***   
       LINEQ_TYPE           ILTYPE         DIIS        [  1]    ***   
       LOCK_ORBOCC          ILOCOC         OFF         [  0]    ***   
       MEMORY_SIZE          IMEMSZ         500000000           words  
       MEM_UNIT             IMEMU          INTEGERWORDS[  0]    ***   
       MRCC                 IMRCCC         OFF         [  0]    ***   
       MULTIPLICTY          IMULTP              1               ***   
       NACOUPLING           IVCOUP         OFF         [  0]    ***   
       NEGEVAL              IDIE           ABORT       [  0]    ***   
       NEWNORM              INEWNO         OFF         [  0]    ***   
       NON-HF               INONHF         OFF         [  0]    ***   
       NTOP_TAMP            ITOPT2             15               ***   
       NUC_MODEL            INUCMO         POINT       [  0]    ***   
       OCCUPATION           IOCCU   ESTIMATED BY SCF 
       OPEN-SHELL           IOPEN          SPIN-ORBITAL[  0]    ***   
       OPTVIB               IOPTVB         OFF         [  0]    ***   
       ORBITALS             IORBTP         STANDARD    [  0]    ***   
       PARALLEL             IPARAL         ON          [  1]    ***   
       PARA_INT             IPINTS         ON          [  1]    ***   
       PARA_PRINT           IPPRIN              0               ***   
       PERT_ORB             IPTORB         STANDARD    [  0]    ***   
       POINTS               IGRDFD              0               ***   
       PRINT                IPRNT               0               ***   
       PROPS                IPROPS         OFF         [  0]    ***   
       PROP_INTEGR          IINTYP         INTERNAL    [  0]    ***   
       PSI                  IPSI           OFF         [  0]    ***   
       QC_ALG               IQCALG         FLM         [  0]    ***   
       QC_LINALG            IQCLIN         TRIDIAG     [  2]    ***   
       QC_MAXCYC            IQCMAX          10D-100           cycles  
       QC_MAXSCFCY          IQCMSC          10D- 15           cycles  
       QC_RTRUST            IQCRTR          10D-  0           x 10-3  
       QC_SKIPSCF           IQCSKI         OFF         [  0]    ***   
       QC_START             IQCSTA          10D-  1             ***   
       QRHFGUESS            IQGUES         OFF         [  0]    ***   
       QUARTIC              IQUART         OFF         [  0]    ***   
       RAMAN_INT            IRAMIN         OFF         [  0]    ***   
       RAMAN_ORB            IRAMRE         UNRELAXED   [  0]    ***   
       RDO                  IRDOFM         ON          [  1]    ***   
       REDUCE_REPR          REDREP         Ir          [  0]    ***   
       REFERENCE            IREFNC         RHF         [  0]    ***   
       RELATIVIST           IRELAT         OFF         [  0]    ***   
       RELAX_DENS           IRDENS         ON          [  1]    ***   
       RESET_FLAGS          IRESET         OFF         [  0]    ***   
       RESTART_CC           ICCRES         OFF         [  0]    ***   
       ROT_EVEC             ROTVEC              0               ***   
       SAVE_INTS            ISVINT         OFF         [  0]    ***   
       SCALE_ON             ISTCRT              0               ***   
       SCF_CONV             ISCFCV          10D- 10             ***   
       SCF_DAMPING          IDAMP               0             x 10-3  
       SCF_EXPORDE          IRPPOR              6               ***   
       SCF_EXPSTAR          IRPPLS              8               ***   
       SCF_EXTRAPO          IRPP           ON          [  1]    ***   
       SCF_MAXCYC           ISCFCY            150              cycles 
       SCF_NOSTOP           ISCFST         OFF         [  0]    ***   
       SCF_PRINT            ISCFPR              0               ***   
       SCF_PROG             ISCFPR         SCF         [  0]    ***   
       SD_FIELD             IFINSD              0             x 10-6  
       SOPERT               IPERSO         OFF         [  0]    ***   
       SPHERICAL            IDFGHI         ON          [  1]    ***   
       SPINORBIT            ISOCAL         OFF         [  0]    ***   
       SPINROTATIO          ISRCON         OFF         [  0]    ***   
       SPIN_FLIP            ISPFLP         OFF         [  0]    ***   
       SPIN_ORBIT           ISPORB         OFF         [  0]    ***   
       SPIN_SCAL            ISCSMP         OFF         [  0]    ***   
       STEEPSCALE           ISTPSC              1000          x 10-3  
       SUBGROUP             ISUBGP         DEFAULT     [  0]    ***   
       SUBGRPAXIS           ISBXYZ         X           [  0]    ***   
       SYMMETRY             ISYM           ON          [  0]    ***   
       SYM_CHECK            ISYMCK         OVERRIDE    [  1]    ***   
       T3_EXTRAPOL          IT3EXT         OFF         [  0]    ***   
       T4_EXTRAPOL          IT4EXP         OFF         [  0]    ***   
       TAMP_SUM             IEVERY              5               ***   
       TESTSUITE            ITESTS         OFF         [  0]    ***   
       THERMOCH             ITHERM         OFF         [  0]    ***   
       TOL_CHOLESK          ITOLCH          10D-  4             ***   
       TRANGRAD             IRESRM         OFF         [  0]    ***   
       TRANS_INV            ITRAIN         IGNORE      [  1]    ***   
       TREAT_PERT           ITREAT         SIMULTANEOUS[  0]    ***   
       TRIP_ALGORI          ITRALG         NORMAL      [  0]    ***   
       UIJ_THRESHO          IUIJTH              1               ***   
       UNITS                IUNITS         ANGSTROM    [  0]    ***   
       UNOS                 IUNOS          OFF         [  0]    ***   
       UPDATE_HESS          IHUPDT         ON          [  1]    ***   
       VIBPHASE             ISETPH         STANDARD    [  0]    ***   
       VIBRATION            IVIB           ANALYTIC    [  1]    ***   
       VIB_ALGORIT          IGEALG         STANDARD    [  0]    ***   
       VNATORB              IVNORB         OFF         [  0]    ***   
       VTRAN                IVTRAN         FULL/PARTIAL[  0]    ***   
       XFIELD               IXEFLD              0             x 10-6  
       XFORM_TOL            IXFTOL          10D- 11             ***   
       YFIELD               IYEFLD              0             x 10-6  
       ZFIELD               IZEFLD            200             x 10-6  
       ZSCALE_EXP           IZEXPS         OFF         [  0]    ***   
    -------------------------------------------------------------------
   2 entries found in Z-matrix 
   Job Title : Carbon Monoxide DBOC calculation                                                
   There are  1 unique internal coordinates.
   Of these,  0 will be optimized.
   User supplied Z-matrix: 
--------------------------------------------------------------------------------
       SYMBOL    BOND      LENGTH    ANGLE     ANGLE     DIHED     ANGLE
                  TO      (ANGST)    WRT      (DEG)      WRT      (DEG)
--------------------------------------------------------------------------------
        C    
        O          1         r    
                  *Initial values for internal coordinates* 
                      Name             Value
                        r               1.1793103448
--------------------------------------------------------------------------------
  read isotopes from ZMAT file 
   Rotational constants (in cm-1): 
          1.7678943742             1.7678943742
   Rotational constants (in MHz): 
      53000.1474178342         53000.1474178342
********************************************************************************
   The full molecular point group is CXv .
   The largest Abelian subgroup of the full molecular point group is C2v .
   The computational point group is C2v .
********************************************************************************
--------------------------------------------------------------------------------
   Analysis of internal coordinates specified by Z-matrix 
--------------------------------------------------------------------------------
   *The nuclear repulsion energy is   21.538436350877191 a.u.
   *There is   1 degree of freedom within the tot. symm. molecular subspace.
   *Z-matrix requests optimization of   0 coordinates.
   *The optimization is constrained.
   *The following   1 parameters can have non-zero 
    derivatives within the totally symmetric subspace:
             r    [ 1]
   *The following   0 parameters are to be optimized:

   *The following coordinates must be varied in an  unconstrained optimization.
             r    [ 1]
--------------------------------------------------------------------------------


 ----------------------------------------------------------------
         Coordinates used in calculation (QCOMP) 
 ----------------------------------------------------------------
 Z-matrix   Atomic            Coordinates (in bohr)
  Symbol    Number           X              Y              Z
 ----------------------------------------------------------------
     C         6        -0.00000000     0.00000000     1.27329738
     O         8         0.00000000     0.00000000    -0.95527666
 ----------------------------------------------------------------
 
   Interatomic distance matrix (Angstroms) 
 
                 C             O    
                [ 1]        [ 2]
  C    [ 1]     0.00000
  O    [ 2]     1.17931     0.00000
 rotcon2
   Rotational constants (in cm-1): 
          1.7678943742             0.0000000000
   Rotational constants (in MHz): 
      53000.1474178342             0.0000000000
  ECPDATA file not present.   Using default ECPDATA. 
  @GTFLGS-I, Hessian will be transformed to curvilinear coordinates.
  There are  218 basis functions.
 @CHECKOUT-I, Total execution time (CPU/WALL):        0.10/       0.18 seconds.
--executable xjoda finished with status     0 in        0.19 seconds (walltime).
 --invoking executable--
/nfs/workspaces/public/cfour_mpi/bin/xvmol
 SERIAL VERSION OF MOLECULE STARTED
********************************************************************************
                    INPUT FROM MOL FILE
********************************************************************************
INTGRL        1    0    1    0    0    0    0    0    0                         
         *** CFOUR Program System (Release V0.1) ***                            
Carbon Monoxide DBOC calculation                                                
    2    2 X  Y       0.10E-08              0    0                              
   9999.00      3.00                                                            
          6.00000000    1    5    1    1    1    1    1                         
C #1  -0.000000000000000   0.000000000000000   1.273297379294619                
   16    9                                                                      
   33980.0000000000       9.100000000000000E-005 -1.900000000000000E-005        
  0.000000000000000E+000  0.000000000000000E+000  0.000000000000000E+000        
  0.000000000000000E+000  0.000000000000000E+000  0.000000000000000E+000        
  0.000000000000000E+000                                                        
   5089.00000000000       7.040000000000000E-004 -1.510000000000000E-004        
  0.000000000000000E+000  0.000000000000000E+000  0.000000000000000E+000        
  0.000000000000000E+000  0.000000000000000E+000  0.000000000000000E+000        
  0.000000000000000E+000                                                        
   1157.00000000000       3.693000000000000E-003 -7.850000000000000E-004        
  0.000000000000000E+000  0.000000000000000E+000  0.000000000000000E+000        
  0.000000000000000E+000  0.000000000000000E+000  0.000000000000000E+000        
  0.000000000000000E+000                                                        
   326.600000000000       1.536000000000000E-002 -3.324000000000000E-003        
  0.000000000000000E+000  0.000000000000000E+000  0.000000000000000E+000        
  0.000000000000000E+000  0.000000000000000E+000  0.000000000000000E+000        
  0.000000000000000E+000                                                        
   106.100000000000       5.292900000000000E-002 -1.151200000000000E-002        
  0.000000000000000E+000  0.000000000000000E+000  0.000000000000000E+000        
  0.000000000000000E+000  0.000000000000000E+000  0.000000000000000E+000        
  0.000000000000000E+000                                                        
   38.1100000000000       0.147043000000000      -3.416000000000000E-002        
  0.000000000000000E+000  0.000000000000000E+000  0.000000000000000E+000        
  0.000000000000000E+000  0.000000000000000E+000  0.000000000000000E+000        
  0.000000000000000E+000                                                        
   14.7500000000000       0.305631000000000      -7.717300000000001E-002        
  0.000000000000000E+000  0.000000000000000E+000  0.000000000000000E+000        
  0.000000000000000E+000  0.000000000000000E+000  0.000000000000000E+000        
  0.000000000000000E+000                                                        
   6.03500000000000       0.399345000000000      -0.141493000000000             
  0.000000000000000E+000  0.000000000000000E+000  0.000000000000000E+000        
  0.000000000000000E+000  0.000000000000000E+000  0.000000000000000E+000        
  0.000000000000000E+000                                                        
   2.53000000000000       0.217051000000000      -0.118019000000000             
  0.000000000000000E+000  0.000000000000000E+000  0.000000000000000E+000        
  0.000000000000000E+000  0.000000000000000E+000  0.000000000000000E+000        
  0.000000000000000E+000                                                        
  0.735500000000000       1.589400000000000E-002  0.273806000000000             
   1.00000000000000       0.000000000000000E+000  0.000000000000000E+000        
  0.000000000000000E+000  0.000000000000000E+000  0.000000000000000E+000        
  0.000000000000000E+000                                                        
  0.290500000000000      -3.084000000000000E-003  0.586510000000000             
  0.000000000000000E+000   1.00000000000000       0.000000000000000E+000        
  0.000000000000000E+000  0.000000000000000E+000  0.000000000000000E+000        
  0.000000000000000E+000                                                        
  0.111100000000000       9.779999999999999E-004  0.285430000000000             
  0.000000000000000E+000  0.000000000000000E+000   1.00000000000000             
  0.000000000000000E+000  0.000000000000000E+000  0.000000000000000E+000        
  0.000000000000000E+000                                                        
   7.21600000000000       0.000000000000000E+000  0.000000000000000E+000        
  0.000000000000000E+000  0.000000000000000E+000  0.000000000000000E+000        
   1.00000000000000       0.000000000000000E+000  0.000000000000000E+000        
  0.000000000000000E+000                                                        
   19.5700000000000       0.000000000000000E+000  0.000000000000000E+000        
  0.000000000000000E+000  0.000000000000000E+000  0.000000000000000E+000        
  0.000000000000000E+000   1.00000000000000       0.000000000000000E+000        
  0.000000000000000E+000                                                        
   53.0730000000000       0.000000000000000E+000  0.000000000000000E+000        
  0.000000000000000E+000  0.000000000000000E+000  0.000000000000000E+000        
  0.000000000000000E+000  0.000000000000000E+000   1.00000000000000             
  0.000000000000000E+000                                                        
  4.145000000000000E-002  0.000000000000000E+000  0.000000000000000E+000        
  0.000000000000000E+000  0.000000000000000E+000  0.000000000000000E+000        
  0.000000000000000E+000  0.000000000000000E+000  0.000000000000000E+000        
   1.00000000000000                                                             
   10    8                                                                      
   34.5100000000000       5.378000000000000E-003  0.000000000000000E+000        
  0.000000000000000E+000  0.000000000000000E+000  0.000000000000000E+000        
  0.000000000000000E+000  0.000000000000000E+000  0.000000000000000E+000        
   7.91500000000000       3.613200000000000E-002  0.000000000000000E+000        
  0.000000000000000E+000  0.000000000000000E+000  0.000000000000000E+000        
  0.000000000000000E+000  0.000000000000000E+000  0.000000000000000E+000        
   2.36800000000000       0.142493000000000       0.000000000000000E+000        
  0.000000000000000E+000  0.000000000000000E+000  0.000000000000000E+000        
  0.000000000000000E+000  0.000000000000000E+000  0.000000000000000E+000        
  0.813200000000000       0.342150000000000        1.00000000000000             
  0.000000000000000E+000  0.000000000000000E+000  0.000000000000000E+000        
  0.000000000000000E+000  0.000000000000000E+000  0.000000000000000E+000        
  0.289000000000000       0.463864000000000       0.000000000000000E+000        
   1.00000000000000       0.000000000000000E+000  0.000000000000000E+000        
  0.000000000000000E+000  0.000000000000000E+000  0.000000000000000E+000        
  0.100700000000000       0.250028000000000       0.000000000000000E+000        
  0.000000000000000E+000   1.00000000000000       0.000000000000000E+000        
  0.000000000000000E+000  0.000000000000000E+000  0.000000000000000E+000        
   8.18200000000000       0.000000000000000E+000  0.000000000000000E+000        
  0.000000000000000E+000  0.000000000000000E+000   1.00000000000000             
  0.000000000000000E+000  0.000000000000000E+000  0.000000000000000E+000        
   24.1860000000000       0.000000000000000E+000  0.000000000000000E+000        
  0.000000000000000E+000  0.000000000000000E+000  0.000000000000000E+000        
   1.00000000000000       0.000000000000000E+000  0.000000000000000E+000        
   71.4940000000000       0.000000000000000E+000  0.000000000000000E+000        
  0.000000000000000E+000  0.000000000000000E+000  0.000000000000000E+000        
  0.000000000000000E+000   1.00000000000000       0.000000000000000E+000        
  3.218000000000000E-002  0.000000000000000E+000  0.000000000000000E+000        
  0.000000000000000E+000  0.000000000000000E+000  0.000000000000000E+000        
  0.000000000000000E+000  0.000000000000000E+000   1.00000000000000             
    6    6                                                                      
   1.84800000000000        1.00000000000000       0.000000000000000E+000        
  0.000000000000000E+000  0.000000000000000E+000  0.000000000000000E+000        
  0.000000000000000E+000                                                        
  0.649000000000000       0.000000000000000E+000   1.00000000000000             
  0.000000000000000E+000  0.000000000000000E+000  0.000000000000000E+000        
  0.000000000000000E+000                                                        
  0.228000000000000       0.000000000000000E+000  0.000000000000000E+000        
   1.00000000000000       0.000000000000000E+000  0.000000000000000E+000        
  0.000000000000000E+000                                                        
   8.65600000000000       0.000000000000000E+000  0.000000000000000E+000        
  0.000000000000000E+000   1.00000000000000       0.000000000000000E+000        
  0.000000000000000E+000                                                        
   33.2130000000000       0.000000000000000E+000  0.000000000000000E+000        
  0.000000000000000E+000  0.000000000000000E+000   1.00000000000000             
  0.000000000000000E+000                                                        
  7.660000000000000E-002  0.000000000000000E+000  0.000000000000000E+000        
  0.000000000000000E+000  0.000000000000000E+000  0.000000000000000E+000        
   1.00000000000000                                                             
    4    4                                                                      
   1.41900000000000        1.00000000000000       0.000000000000000E+000        
  0.000000000000000E+000  0.000000000000000E+000                                
  0.485000000000000       0.000000000000000E+000   1.00000000000000             
  0.000000000000000E+000  0.000000000000000E+000                                
   24.6940000000000       0.000000000000000E+000  0.000000000000000E+000        
   1.00000000000000       0.000000000000000E+000                                
  0.187000000000000       0.000000000000000E+000  0.000000000000000E+000        
  0.000000000000000E+000   1.00000000000000                                     
    2    2                                                                      
   1.01100000000000        1.00000000000000       0.000000000000000E+000        
  0.424000000000000       0.000000000000000E+000   1.00000000000000             
          8.00000000    1    5    1    1    1    1    1                         
O #2   0.000000000000000   0.000000000000000  -0.955276655423789                
   16    9                                                                      
   61420.0000000000       9.000000000000001E-005 -2.000000000000000E-005        
  0.000000000000000E+000  0.000000000000000E+000  0.000000000000000E+000        
  0.000000000000000E+000  0.000000000000000E+000  0.000000000000000E+000        
  0.000000000000000E+000                                                        
   9199.00000000000       6.980000000000001E-004 -1.590000000000000E-004        
  0.000000000000000E+000  0.000000000000000E+000  0.000000000000000E+000        
  0.000000000000000E+000  0.000000000000000E+000  0.000000000000000E+000        
  0.000000000000000E+000                                                        
   2091.00000000000       3.664000000000000E-003 -8.290000000000000E-004        
  0.000000000000000E+000  0.000000000000000E+000  0.000000000000000E+000        
  0.000000000000000E+000  0.000000000000000E+000  0.000000000000000E+000        
  0.000000000000000E+000                                                        
   590.900000000000       1.521800000000000E-002 -3.508000000000000E-003        
  0.000000000000000E+000  0.000000000000000E+000  0.000000000000000E+000        
  0.000000000000000E+000  0.000000000000000E+000  0.000000000000000E+000        
  0.000000000000000E+000                                                        
   192.300000000000       5.242300000000000E-002 -1.215600000000000E-002        
  0.000000000000000E+000  0.000000000000000E+000  0.000000000000000E+000        
  0.000000000000000E+000  0.000000000000000E+000  0.000000000000000E+000        
  0.000000000000000E+000                                                        
   69.3200000000000       0.145921000000000      -3.626100000000000E-002        
  0.000000000000000E+000  0.000000000000000E+000  0.000000000000000E+000        
  0.000000000000000E+000  0.000000000000000E+000  0.000000000000000E+000        
  0.000000000000000E+000                                                        
   26.9700000000000       0.305258000000000      -8.299200000000000E-002        
  0.000000000000000E+000  0.000000000000000E+000  0.000000000000000E+000        
  0.000000000000000E+000  0.000000000000000E+000  0.000000000000000E+000        
  0.000000000000000E+000                                                        
   11.1000000000000       0.398508000000000      -0.152090000000000             
  0.000000000000000E+000  0.000000000000000E+000  0.000000000000000E+000        
  0.000000000000000E+000  0.000000000000000E+000  0.000000000000000E+000        
  0.000000000000000E+000                                                        
   4.68200000000000       0.216980000000000      -0.115331000000000             
  0.000000000000000E+000  0.000000000000000E+000  0.000000000000000E+000        
  0.000000000000000E+000  0.000000000000000E+000  0.000000000000000E+000        
  0.000000000000000E+000                                                        
   1.42800000000000       1.759400000000000E-002  0.288979000000000             
   1.00000000000000       0.000000000000000E+000  0.000000000000000E+000        
  0.000000000000000E+000  0.000000000000000E+000  0.000000000000000E+000        
  0.000000000000000E+000                                                        
  0.554700000000000      -2.502000000000000E-003  0.586128000000000             
  0.000000000000000E+000   1.00000000000000       0.000000000000000E+000        
  0.000000000000000E+000  0.000000000000000E+000  0.000000000000000E+000        
  0.000000000000000E+000                                                        
  0.206700000000000       9.540000000000000E-004  0.277624000000000             
  0.000000000000000E+000  0.000000000000000E+000   1.00000000000000             
  0.000000000000000E+000  0.000000000000000E+000  0.000000000000000E+000        
  0.000000000000000E+000                                                        
   12.9740000000000       0.000000000000000E+000  0.000000000000000E+000        
  0.000000000000000E+000  0.000000000000000E+000  0.000000000000000E+000        
   1.00000000000000       0.000000000000000E+000  0.000000000000000E+000        
  0.000000000000000E+000                                                        
   34.9000000000000       0.000000000000000E+000  0.000000000000000E+000        
  0.000000000000000E+000  0.000000000000000E+000  0.000000000000000E+000        
  0.000000000000000E+000   1.00000000000000       0.000000000000000E+000        
  0.000000000000000E+000                                                        
   93.8810000000000       0.000000000000000E+000  0.000000000000000E+000        
  0.000000000000000E+000  0.000000000000000E+000  0.000000000000000E+000        
  0.000000000000000E+000  0.000000000000000E+000   1.00000000000000             
  0.000000000000000E+000                                                        
  6.959000000000000E-002  0.000000000000000E+000  0.000000000000000E+000        
  0.000000000000000E+000  0.000000000000000E+000  0.000000000000000E+000        
  0.000000000000000E+000  0.000000000000000E+000  0.000000000000000E+000        
   1.00000000000000                                                             
   10    8                                                                      
   63.4200000000000       6.044000000000000E-003  0.000000000000000E+000        
  0.000000000000000E+000  0.000000000000000E+000  0.000000000000000E+000        
  0.000000000000000E+000  0.000000000000000E+000  0.000000000000000E+000        
   14.6600000000000       4.179900000000000E-002  0.000000000000000E+000        
  0.000000000000000E+000  0.000000000000000E+000  0.000000000000000E+000        
  0.000000000000000E+000  0.000000000000000E+000  0.000000000000000E+000        
   4.45900000000000       0.161143000000000       0.000000000000000E+000        
  0.000000000000000E+000  0.000000000000000E+000  0.000000000000000E+000        
  0.000000000000000E+000  0.000000000000000E+000  0.000000000000000E+000        
   1.53100000000000       0.356731000000000        1.00000000000000             
  0.000000000000000E+000  0.000000000000000E+000  0.000000000000000E+000        
  0.000000000000000E+000  0.000000000000000E+000  0.000000000000000E+000        
  0.530200000000000       0.448309000000000       0.000000000000000E+000        
   1.00000000000000       0.000000000000000E+000  0.000000000000000E+000        
  0.000000000000000E+000  0.000000000000000E+000  0.000000000000000E+000        
  0.175000000000000       0.244940000000000       0.000000000000000E+000        
  0.000000000000000E+000   1.00000000000000       0.000000000000000E+000        
  0.000000000000000E+000  0.000000000000000E+000  0.000000000000000E+000        
   14.4750000000000       0.000000000000000E+000  0.000000000000000E+000        
  0.000000000000000E+000  0.000000000000000E+000   1.00000000000000             
  0.000000000000000E+000  0.000000000000000E+000  0.000000000000000E+000        
   42.7300000000000       0.000000000000000E+000  0.000000000000000E+000        
  0.000000000000000E+000  0.000000000000000E+000  0.000000000000000E+000        
   1.00000000000000       0.000000000000000E+000  0.000000000000000E+000        
   126.140000000000       0.000000000000000E+000  0.000000000000000E+000        
  0.000000000000000E+000  0.000000000000000E+000  0.000000000000000E+000        
  0.000000000000000E+000   1.00000000000000       0.000000000000000E+000        
  5.348000000000000E-002  0.000000000000000E+000  0.000000000000000E+000        
  0.000000000000000E+000  0.000000000000000E+000  0.000000000000000E+000        
  0.000000000000000E+000  0.000000000000000E+000   1.00000000000000             
    6    6                                                                      
   3.77500000000000        1.00000000000000       0.000000000000000E+000        
  0.000000000000000E+000  0.000000000000000E+000  0.000000000000000E+000        
  0.000000000000000E+000                                                        
   1.30000000000000       0.000000000000000E+000   1.00000000000000             
  0.000000000000000E+000  0.000000000000000E+000  0.000000000000000E+000        
  0.000000000000000E+000                                                        
  0.444000000000000       0.000000000000000E+000  0.000000000000000E+000        
   1.00000000000000       0.000000000000000E+000  0.000000000000000E+000        
  0.000000000000000E+000                                                        
   14.9270000000000       0.000000000000000E+000  0.000000000000000E+000        
  0.000000000000000E+000   1.00000000000000       0.000000000000000E+000        
  0.000000000000000E+000                                                        
   57.5440000000000       0.000000000000000E+000  0.000000000000000E+000        
  0.000000000000000E+000  0.000000000000000E+000   1.00000000000000             
  0.000000000000000E+000                                                        
  0.154000000000000       0.000000000000000E+000  0.000000000000000E+000        
  0.000000000000000E+000  0.000000000000000E+000  0.000000000000000E+000        
   1.00000000000000                                                             
    4    4                                                                      
   2.66600000000000        1.00000000000000       0.000000000000000E+000        
  0.000000000000000E+000  0.000000000000000E+000                                
  0.859000000000000       0.000000000000000E+000   1.00000000000000             
  0.000000000000000E+000  0.000000000000000E+000                                
   26.4830000000000       0.000000000000000E+000  0.000000000000000E+000        
   1.00000000000000       0.000000000000000E+000                                
  0.324000000000000       0.000000000000000E+000  0.000000000000000E+000        
  0.000000000000000E+000   1.00000000000000                                     
    2    2                                                                      
   1.84600000000000        1.00000000000000       0.000000000000000E+000        
  0.714000000000000       0.000000000000000E+000   1.00000000000000             
FINISH                                                                          
 
********************************************************************************
 ONE- AND TWO-ELECTRON INTEGRALS OVER SYMMETRY-ADAPTED AOS ARE CALCULATED.

  SPHERICAL HARMONICS ARE USED.
  
  INTEGRALS LESS THAN  0.10E-13 ARE NEGLECTED.

  NUCLEAR REPULSION ENERGY :   21.5384363509 A.U.
  @MOLECU-I, ONE ELECTRON INTEGRALS (CPU/WALL):        0.06/       0.07 SECONDS.
  @TWOEL-I,    4573485 INTEGRALS OF SYMMETRY TYPE  I I I I
  @TWOEL-I,   19644783 INTEGRALS OF SYMMETRY TYPE  I J I J
  @TWOEL-I,   10352282 INTEGRALS OF SYMMETRY TYPE  I I J J
  @TWOEL-I,   14534063 INTEGRALS OF SYMMETRY TYPE  I J K L
  @TWOEL-I, TOTAL NUMBER OF 2-E INTEGRALS   49104613.
  @MOLECU-I, TWO ELECTRON INTEGRALS (CPU/WALL):      191.22/      27.24 SECONDS.
 @CHECKOUT-I, Total execution time (CPU/WALL):      191.29/      27.34 seconds.

Running with 14 threads/proc

--executable xvmol finished with status     0 in       27.36 seconds (walltime).
 --invoking executable--
/nfs/workspaces/public/cfour_mpi/bin/xvmol2ja
 @GETMEM-I,  Allocated    3814 MB of main memory.
 @CHECKOUT-I, Total execution time (CPU/WALL):        0.25/       0.09 seconds.
--executable xvmol2ja finished with status     0 in        0.10 seconds (walltime).
 --invoking executable--
/nfs/workspaces/public/cfour_mpi/bin/xvprop
 @GETMEM-I,  Allocated    3814 MB of main memory.
   Property integrals will be calculated.
    --------------------------------------------------------------
                                   Property evaluated at 
    Property type                X             Y             Z
    --------------------------------------------------------------
    Dipole moment               ----          ----          ----  
    Quadrupole moment           ----          ----          ----  
    Octopole moment             ----          ----          ----  
    Relativisitic corr.         ----          ----          ----  
    Second moment            0.0000000     0.0000000     0.0000000
    Electron density         0.0000000     0.0000000     1.2732974
    Electron density         0.0000000     0.0000000    -0.9552767
    Field gradient           0.0000000     0.0000000     1.2732974
    Field gradient           0.0000000     0.0000000    -0.9552767
    Potential                0.0000000     0.0000000     1.2732974
    Potential                0.0000000     0.0000000    -0.9552767
    --------------------------------------------------------------
 @CHECKOUT-I, Total execution time (CPU/WALL):        1.45/       1.50 seconds.
--executable xvprop finished with status     0 in        1.51 seconds (walltime).
 --invoking executable--
/nfs/workspaces/public/cfour_mpi/bin/xvscf
  There are  218 functions in the AO basis.

  There are 4 irreducible representations.

       Irrep        # of functions
         1                 86
         2                 52
         3                 52
         4                 28


  Parameters for SCF calculation: 
        SCF reference function:  RHF  
  Maximum number of iterations:  150
     Full symmetry point group: CXv 
     Computational point group: C2v 
        Initial density matrix: MOREAD                 
     SCF convergence tolerance: 10**(-10)
  DIIS convergence acceleration:  ON
          Latest start for DIIS:   8
                     DIIS order:   6

  Memory information:    2523578 words required.
  Fock matrices are constructed from AO integral file.
 @GETMEM-I,  Allocated      19 MB of main memory.
  Initialization and symmetry analysis required      0.002 seconds.

  Adding electric field perturbation to one-electron Hamiltonian.
  Field direction     : Z
  Field strength      :  0.0002000 a.u.

  @INITGES-I, Occupancies from core Hamiltonian:

          Alpha population by irrep:   5    1    1    0
           Beta population by irrep:   5    1    1    0


 total no. of electrons in initial guess :  0.000000000000000E+000
  --------------------------------------------------------------------
  Iteration         Total Energy            Largest Density Difference
  --------------------------------------------------------------------
       0            21.538436836670716              0.0000000000D+00
   current occupation vector 
     5  1  1  0
     5  1  1  0
       1           -92.156270281540287              0.1842253716D+02
   current occupation vector 
     5  1  1  0
     5  1  1  0
       2           -97.395428227045315              0.1841799328D+02
   current occupation vector 
     5  1  1  0
     5  1  1  0
       3          -103.470014560920518              0.1188347447D+02
   current occupation vector 
     5  1  1  0
     5  1  1  0
       4          -100.157296500105218              0.7409771176D+01
   current occupation vector 
     5  1  1  0
     5  1  1  0
       5          -102.907846558658051              0.6511402010D+01
   current occupation vector 
     5  1  1  0
     5  1  1  0
       6           -99.771714099146720              0.5854292616D+01
   current occupation vector 
     5  1  1  0
     5  1  1  0
       7          -102.855601344645976              0.5782904889D+01
   current occupation vector 
     5  1  1  0
     5  1  1  0
       8           -99.627887209818169              0.5774839576D+01
   current occupation vector 
     5  1  1  0
     5  1  1  0
       9          -110.416616712132367              0.4368000048D+01
   current occupation vector 
     5  1  1  0
     5  1  1  0
      10          -112.096748782756436              0.9854374337D+00
   current occupation vector 
     5  1  1  0
     5  1  1  0
      11          -112.748697038860627              0.5595990307D+00
   current occupation vector 
     5  1  1  0
     5  1  1  0
      12          -112.776460861389324              0.1339254795D+00
   current occupation vector 
     5  1  1  0
     5  1  1  0
      13          -112.777188440390432              0.3316789377D-01
   current occupation vector 
     5  1  1  0
     5  1  1  0
      14          -112.777313754510061              0.1622072101D-01
   current occupation vector 
     5  1  1  0
     5  1  1  0
      15          -112.777325932375476              0.6923109444D-02
   current occupation vector 
     5  1  1  0
     5  1  1  0
      16          -112.777326052536694              0.5802784043D-03
   current occupation vector 
     5  1  1  0
     5  1  1  0
      17          -112.777326056624531              0.7710323844D-04
   current occupation vector 
     5  1  1  0
     5  1  1  0
      18          -112.777326056739014              0.1658250325D-04
   current occupation vector 
     5  1  1  0
     5  1  1  0
      19          -112.777326056744897              0.3299497689D-05
   current occupation vector 
     5  1  1  0
     5  1  1  0
      20          -112.777326056743817              0.6225510136D-06
   current occupation vector 
     5  1  1  0
     5  1  1  0
      21          -112.777326056744357              0.7100915367D-07
   current occupation vector 
     5  1  1  0
     5  1  1  0
      22          -112.777326056743931              0.1644036951D-07
   current occupation vector 
     5  1  1  0
     5  1  1  0
      23          -112.777326056743362              0.9649318677D-08
   current occupation vector 
     5  1  1  0
     5  1  1  0
      24          -112.777326056744016              0.2162306167D-09
   current occupation vector 
     5  1  1  0
     5  1  1  0
      25          -112.777326056743703              0.1296336372D-09
   current occupation vector 
     5  1  1  0
     5  1  1  0
      26          -112.777326056744045              0.1077382628D-09
   current occupation vector 
     5  1  1  0
     5  1  1  0

  SCF has converged.

 Density matrix saved to file den.dat
 total electron number:   14.0000000000000     
     E(SCF)=      -112.777326056744187              0.4318567726D-10

  Eigenvector printing suppressed.

 @PUTMOS-I, Writing converged MOs to NEWMOS. 
 @PUTMOS-I, Symmetry   1 Full Blocks 21 Partial Blocksize   2
 @PUTMOS-I, Symmetry   2 Full Blocks 13 Partial Blocksize   0
 @PUTMOS-I, Symmetry   3 Full Blocks 13 Partial Blocksize   0
 @PUTMOS-I, Symmetry   4 Full Blocks  7 Partial Blocksize   0
 @PUTFOCK-I, Writing converged Fock matrix to NEWFOCK. 
 @PUTFOCK-I, Symmetry   1 Full Blocks 21 Partial Blocksize   2
 @PUTFOCK-I, Symmetry   2 Full Blocks 13 Partial Blocksize   0
 @PUTFOCK-I, Symmetry   3 Full Blocks 13 Partial Blocksize   0
 @PUTFOCK-I, Symmetry   4 Full Blocks  7 Partial Blocksize   0


 
  ORBITAL EIGENVALUES (ALPHA)  (1H = 27.2113834 eV)

       MO #        E(hartree)               E(eV)           FULLSYM    COMPSYM
       ----   --------------------   --------------------   -------   ---------
    1     1         -20.6664877565        -562.3637218747     SG+        A1 (1)
    2     2         -11.3831017414        -309.7499457655     SG+        A1 (1)
    3     3          -1.4870717453         -40.4652794038     SG+        A1 (1)
    4     4          -0.8004120639         -21.7803195475     SG+        A1 (1)
    5   139          -0.6189217031         -16.8417157585      PI        B2 (3)
    6    87          -0.6189217031         -16.8417157585      PI        B1 (2)
    7     5          -0.5599830436         -15.2379132979     SG+        A1 (1)
  +++++++++++++++++++++++++++++++++++++++++++++++++++++++++++++++++++++++++++++
    8     6           0.0605675508           1.6481268468     SG+        A1 (1)
    9   140           0.0611336190           1.6635303465      PI        B2 (3)
   10    88           0.0611336190           1.6635303465      PI        B1 (2)
   11     7           0.0746635774           2.0316992299     SG+        A1 (1)
   12    89           0.1284515721           3.4953449771      PI        B1 (2)
   13   141           0.1284515721           3.4953449771      PI        B2 (3)
   14     8           0.1560764624           4.2470564571     SG+        A1 (1)
   15   142           0.1660514904           4.5184907698      PI        B2 (3)
   16    90           0.1660514904           4.5184907698      PI        B1 (2)
   17   191           0.2279606119           6.2031236110      DE        A2 (4)
   18     9           0.2279606119           6.2031236110      DE        A1 (1)
   19    10           0.2282311104           6.2104842488     SG+        A1 (1)
   20    11           0.3009694085           8.1897939667     SG+        A1 (1)
   21    91           0.3159402711           8.5971718479      PI        B1 (2)
   22   143           0.3159402711           8.5971718479      PI        B2 (3)
   23    12           0.3901298243          10.6159722238     SG+        A1 (1)
   24    92           0.3952830576          10.7561988313      PI        B1 (2)
   25   144           0.3952830576          10.7561988313      PI        B2 (3)
   26    13           0.5084047576          13.8343967816     SG+        A1 (1)
   27    14           0.5376357854          14.6298134849      DE        A1 (1)
   28   192           0.5376357854          14.6298134849      DE        A2 (4)
   29   145           0.6241751498          16.9846693108      PI        B2 (3)
   30    93           0.6241751498          16.9846693108      PI        B1 (2)
   31    15           0.6277950583          17.0831720275     SG+        A1 (1)
   32    94           0.7478734871          20.3506721911      PH        B1 (2)
   33   146           0.7478734871          20.3506721911      PH        B2 (3)
   34   193           0.7666552323          20.8617494621      DE        A2 (4)
   35    16           0.7666552323          20.8617494621      DE        A1 (1)
   36    17           0.7784785605          21.1834785773     SG+        A1 (1)
   37    95           0.8174883267          22.2449882826      PI        B1 (2)
   38   147           0.8174883267          22.2449882826      PI        B2 (3)
   39    18           0.8673448380          23.6016529278     SG+        A1 (1)
   40    96           0.8850678389          24.0839202998      PI        B1 (2)
   41   148           0.8850678389          24.0839202998      PI        B2 (3)
   42    19           0.8854691374          24.0948401869     SG+        A1 (1)
   43    20           0.8881174937          24.1669056259      DE        A1 (1)
   44   194           0.8881174937          24.1669056259      DE        A2 (4)
   45    97           1.0658606713          29.0035433770      PI        B1 (2)
   46   149           1.0658606713          29.0035433770      PI        B2 (3)
   47    21           1.1628446865          31.6426125987     SG+        A1 (1)
   48    98           1.4436998449          39.2850699930      PH        B1 (2)
   49   150           1.4436998449          39.2850699930      PH        B2 (3)
   50    22           1.4553333514          39.6016338010     SG+        A1 (1)
   51    23           1.5257454578          41.5176446218      DE        A1 (1)
   52   195           1.5257454578          41.5176446219      DE        A2 (4)
   53    99           1.5610897290          42.4794111369      PI        B1 (2)
   54   151           1.5610897290          42.4794111369      PI        B2 (3)
   55    24           1.6669229541          45.3592796030     SG+        A1 (1)
   56    25           1.7619577410          47.9453076242      DE        A1 (1)
   57   196           1.7619577410          47.9453076243      DE        A2 (4)
   58   100           1.7661965966          48.0606527503      PI        B1 (2)
   59   152           1.7661965966          48.0606527503      PI        B2 (3)
   60    26           1.7884031669          48.6649242485     SG+        A1 (1)
   61   101           1.9923250217          54.2139200232      PI        B1 (2)
   62   153           1.9923250217          54.2139200232      PI        B2 (3)
   63   197           2.1022734700          57.2057694029      PI        A2 (4)
   64    27           2.1022734700          57.2057694029      PI        A1 (1)
   65    28           2.1048574615          57.2760833885     SG+        A1 (1)
   66   198           2.1859661115          59.4831619587      DE        A2 (4)
   67    29           2.1859661115          59.4831619587      DE        A1 (1)
   68   102           2.2476607333          61.1619579663      PH        B1 (2)
   69   154           2.2476607333          61.1619579663      PH        B2 (3)
   70    30           2.3115659745          62.9009079876     SG+        A1 (1)
   71   103           2.3146453066          62.9847008737      PI        B1 (2)
   72   155           2.3146453066          62.9847008737      PI        B2 (3)
   73   104           2.3446261002          63.8005197435      PH        B1 (2)
   74   156           2.3446261002          63.8005197435      PH        B2 (3)
   75   199           2.3565145953          64.1240221401      DE        A2 (4)
   76    31           2.3565145953          64.1240221401      DE        A1 (1)
   77    32           2.4812390515          67.5179471385     SG+        A1 (1)
   78   105           2.5861354688          70.3723237657      PI        B1 (2)
   79   157           2.5861354688          70.3723237657      PI        B2 (3)
   80   106           2.7871958110          75.8434538247      PI        B1 (2)
   81   158           2.7871958110          75.8434538247      PI        B2 (3)
   82    33           2.8711885690          78.1290129637     SG+        A1 (1)
   83    34           2.9659953543          80.7088367494      DE        A1 (1)
   84   200           2.9659953543          80.7088367495      DE        A2 (4)
   85    35           3.4815690576          94.7383104612     SG+        A1 (1)
   86    36           3.7153427538         101.0996161357      PI        A1 (1)
   87   201           3.7153427538         101.0996161357      PI        A2 (4)
   88   107           3.7311243443         101.5290550455      PI        B1 (2)
   89   159           3.7311243443         101.5290550456      PI        B2 (3)
   90    37           3.9286497081         106.9039934520     SG+        A1 (1)
   91   160           4.0865191097         111.1998382657      PH        B2 (3)
   92   108           4.0865191097         111.1998382657      PH        B1 (2)
   93    38           4.1812417776         113.7773730980      DE        A1 (1)
   94   202           4.1812417776         113.7773730981      DE        A2 (4)
   95   109           4.2061824998         114.4560446535      PI        B1 (2)
   96   161           4.2061824998         114.4560446535      PI        B2 (3)
   97   110           4.2309373955         115.1296596091      PH        B1 (2)
   98   162           4.2309373955         115.1296596091      PH        B2 (3)
   99    39           4.2564294707         115.8233342420     SG+        A1 (1)
  100    40           4.3596430580         118.6319187384      DE        A1 (1)
  101   203           4.3596430580         118.6319187385      DE        A2 (4)
  102    41           4.4603253114         121.3716221362     SG+        A1 (1)
  103   163           4.7869445944         130.2593846728      PI        B2 (3)
  104   111           4.7869445944         130.2593846728      PI        B1 (2)
  105   112           5.0506430235         137.4349837282      PI        B1 (2)
  106   164           5.0506430235         137.4349837282      PI        B2 (3)
  107    42           5.0834103613         138.3266283198     SG+        A1 (1)
  108   204           5.1165982598         139.2297169508      DE        A2 (4)
  109    43           5.1165982598         139.2297169509      DE        A1 (1)
  110    44           5.6686207437         154.2510124063     SG+        A1 (1)
  111   165           5.7568995254         156.6532001813      PI        B2 (3)
  112   113           5.7568995254         156.6532001813      PI        B1 (2)
  113    45           5.8933686767         160.3667145805      PI        A1 (1)
  114   205           5.8933686767         160.3667145805      PI        A2 (4)
  115   114           6.0892414982         165.6966850238      PH        B1 (2)
  116   166           6.0892414982         165.6966850238      PH        B2 (3)
  117    46           6.2380307056         169.7454451898     SG+        A1 (1)
  118    47           6.2878962901         171.1023567294      DE        A1 (1)
  119   206           6.2878962901         171.1023567294      DE        A2 (4)
  120   167           6.3134825104         171.7985931799      PI        B2 (3)
  121   115           6.3134825104         171.7985931799      PI        B1 (2)
  122   168           6.4341474846         175.0820540558      PH        B2 (3)
  123   116           6.4341474846         175.0820540558      PH        B1 (2)
  124    48           6.5686769938         178.7427881095      DE        A1 (1)
  125   207           6.5686769938         178.7427881095      DE        A2 (4)
  126    49           6.9268033028         188.4879004095     SG+        A1 (1)
  127   208           7.1630334841         194.9160504438      DE        A2 (4)
  128    50           7.1630334841         194.9160504439      DE        A1 (1)
  129   117           7.3748539897         200.6799794333      PI        B1 (2)
  130   169           7.3748539897         200.6799794333      PI        B2 (3)
  131    51           7.7159345619         209.9612536530     SG+        A1 (1)
  132    52           8.1561177510         221.9392471793     SG+        A1 (1)
  133   170           8.3298885807         226.6677918487      PI        B2 (3)
  134   118           8.3298885807         226.6677918487      PI        B1 (2)
  135   171          10.1196181024         275.3688080453      PI        B2 (3)
  136   119          10.1196181024         275.3688080453      PI        B1 (2)
  137    53          10.5681519072         287.5740333751     SG+        A1 (1)
  138    54          10.6046467695         288.5671090665      PI        A1 (1)
  139   209          10.6046467695         288.5671090665      PI        A2 (4)
  140   172          10.8501744946         295.2482581288      PH        B2 (3)
  141   120          10.8501744946         295.2482581288      PH        B1 (2)
  142    55          11.0758068500         301.3880266602     SG+        A1 (1)
  143    56          11.0929082467         301.8533793219      DE        A1 (1)
  144   210          11.0929082467         301.8533793219      DE        A2 (4)
  145   173          11.3394754899         308.5628151114      PI        B2 (3)
  146   121          11.3394754899         308.5628151114      PI        B1 (2)
  147    57          11.4851405030         312.5265616288     SG+        A1 (1)
  148   122          11.8552428373         322.5975581456      PH        B1 (2)
  149   174          11.8552428373         322.5975581457      PH        B2 (3)
  150   211          12.2410652956         333.0963209837      DE        A2 (4)
  151    58          12.2410652956         333.0963209839      DE        A1 (1)
  152   175          12.5838720865         342.4245680017      PI        B2 (3)
  153   123          12.5838720865         342.4245680017      PI        B1 (2)
  154   212          12.8459423989         349.5558637507      DE        A2 (4)
  155    59          12.8459423989         349.5558637508      DE        A1 (1)
  156    60          13.1470240303         357.7487114584     SG+        A1 (1)
  157   124          13.9122694217         378.5720971969      PI        B1 (2)
  158   176          13.9122694217         378.5720971969      PI        B2 (3)
  159    61          15.2717319881         415.5649543104     SG+        A1 (1)
  160    62          17.9813806590         489.2982431726     SG+        A1 (1)
  161   177          19.3105486887         525.4667440323      PI        B2 (3)
  162   125          19.3105486887         525.4667440324      PI        B1 (2)
  163    63          20.5660286841         559.6300915386     SG+        A1 (1)
  164    64          26.4884348250         720.7869556880      DE        A1 (1)
  165   213          26.4884348250         720.7869556880      DE        A2 (4)
  166   178          26.9345479041         732.9263097245      PI        B2 (3)
  167   126          26.9345479041         732.9263097245      PI        B1 (2)
  168    65          28.0106217225         762.2077669620     SG+        A1 (1)
  169   179          33.7767850299         919.1130474681      PI        B2 (3)
  170   127          33.7767850299         919.1130474685      PI        B1 (2)
  171    66          34.8808195368         949.1553537224     SG+        A1 (1)
  172    67          36.6189011824         996.4509597616     SG+        A1 (1)
  173    68          47.1105978290        1281.9445397293      DE        A1 (1)
  174   214          47.1105978290        1281.9445397293      DE        A2 (4)
  175   180          47.5903580952        1294.9994802711      PI        B2 (3)
  176   128          47.5903580952        1294.9994802712      PI        B1 (2)
  177    69          48.4421265540        1318.1772783714     SG+        A1 (1)
  178    70          64.1573222961        1745.8094949179     SG+        A1 (1)
  179   181          66.7709301083        1816.9293791508      PI        B2 (3)
  180   129          66.7709301083        1816.9293791509      PI        B1 (2)
  181    71          67.7478480474        1843.5126677432     SG+        A1 (1)
  182   130          98.6523865316        2684.4679132357      PH        B1 (2)
  183   182          98.6523865316        2684.4679132357      PH        B2 (3)
  184   215          98.6715505408        2684.9893924384      DE        A2 (4)
  185    72          98.6715505408        2684.9893924385      DE        A1 (1)
  186   183          98.7304699754        2686.5926717628      PI        B2 (3)
  187   131          98.7304699754        2686.5926717628      PI        B1 (2)
  188    73          98.7446954621        2686.9797669343     SG+        A1 (1)
  189   184         103.2829569469        2810.4721401687      PH        B2 (3)
  190   132         103.2829569469        2810.4721401687      PH        B1 (2)
  191   216         103.3267338365        2811.6633698950      DE        A2 (4)
  192    74         103.3267338365        2811.6633698959      DE        A1 (1)
  193   185         103.3563550417        2812.4694038670      PI        B2 (3)
  194   133         103.3563550417        2812.4694038670      PI        B1 (2)
  195    75         103.4040748953        2813.7679270992     SG+        A1 (1)
  196   217         115.1520606686        3133.4468721540      DE        A2 (4)
  197    76         115.1520606686        3133.4468721540      DE        A1 (1)
  198   186         115.3704555255        3139.3896983365      PI        B2 (3)
  199   134         115.3704555255        3139.3896983366      PI        B1 (2)
  200    77         115.9170564632        3154.2634660191     SG+        A1 (1)
  201   187         117.0287547568        3184.5143145120      PI        B2 (3)
  202   135         117.0287547568        3184.5143145126      PI        B1 (2)
  203    78         117.9119865080        3208.5482723258     SG+        A1 (1)
  204    79         122.7954492319        3341.4340488256     SG+        A1 (1)
  205    80         198.5709090484        5403.3891382020      DE        A1 (1)
  206   218         198.5709090484        5403.3891382020      DE        A2 (4)
  207   188         198.8291568158        5410.4164172148      PI        B2 (3)
  208   136         198.8291568159        5410.4164172151      PI        B1 (2)
  209    81         199.2542734390        5421.9844286365     SG+        A1 (1)
  210    82         216.6393450783        5895.0562784500     SG+        A1 (1)
  211   189         225.1917715215        6127.7796333964      PI        B2 (3)
  212   137         225.1917715215        6127.7796333964      PI        B1 (2)
  213    83         225.9932286682        6149.5883910954     SG+        A1 (1)
  214   190         395.4870687474       10761.7502574279      PI        B2 (3)
  215   138         395.4870687474       10761.7502574286      PI        B1 (2)
  216    84         396.2201836636       10781.6993284898     SG+        A1 (1)
  217    85         509.3573846453       13860.3190812044     SG+        A1 (1)
  218    86         895.4673957038       24366.9066266949     SG+        A1 (1)


  VSCF finished.

 @CHECKOUT-I, Total execution time (CPU/WALL):       46.45/       9.52 seconds.
--executable xvscf finished with status     0 in        9.55 seconds (walltime).
 --invoking executable--
/nfs/workspaces/public/cfour_mpi/bin/xvtran
 @GETMEM-I,  Allocated    3814 MB of main memory.
  Full RHF integral transformation
  Transformation of IIII integrals :
  1 pass through the AO integral file was required.
     4573485 AO integrals were read.
     8808014 MO integrals were written to HF2.
  Transformation of IIJJ integrals :
  1 pass through the AO integral file was required.
    10352282 AO integrals were read.
    14613905 MO integrals were written to HF2.
  Transformation of IJIJ integrals :
  1 pass through the AO integral file was required.
    19644783 AO integrals were read.
    27454614 MO integrals were written to HF2.
  Transformation of IJKL integrals :
  1 pass through the AO integral file was required.
    14534063 AO integrals were read.
    18546220 MO integrals were written to HF2.
  Summary of active molecular orbitals: 
------------------------------------------------------------------------
 
  Index      Eigenvalue    Symmetry    Index      Eigenvalue    Symmetry
------------------------------------------------------------------------
     1       -20.6664878        1       110         4.2061825        2
     2       -11.3831017        1       111         4.2309374        2
     3        -1.4870717        1       112         4.7869446        2
     4        -0.8004121        1       113         5.0506430        2
     5        -0.5599830        1       114         5.7568995        2
     6        -0.6189217        2       115         6.0892415        2
     7        -0.6189217        3       116         6.3134825        2
     8         0.0605676        1       117         6.4341475        2
     9         0.0746636        1       118         7.3748540        2
    10         0.1560765        1       119         8.3298886        2
    11         0.2279606        1       120        10.1196181        2
    12         0.2282311        1       121        10.8501745        2
    13         0.3009694        1       122        11.3394755        2
    14         0.3901298        1       123        11.8552428        2
    15         0.5084048        1       124        12.5838721        2
    16         0.5376358        1       125        13.9122694        2
    17         0.6277951        1       126        19.3105487        2
    18         0.7666552        1       127        26.9345479        2
    19         0.7784786        1       128        33.7767850        2
    20         0.8673448        1       129        47.5903581        2
    21         0.8854691        1       130        66.7709301        2
    22         0.8881175        1       131        98.6523865        2
    23         1.1628447        1       132        98.7304700        2
    24         1.4553334        1       133       103.2829569        2
    25         1.5257455        1       134       103.3563550        2
    26         1.6669230        1       135       115.3704555        2
    27         1.7619577        1       136       117.0287548        2
    28         1.7884032        1       137       198.8291568        2
    29         2.1022735        1       138       225.1917715        2
    30         2.1048575        1       139       395.4870687        2
    31         2.1859661        1       140         0.0611336        3
    32         2.3115660        1       141         0.1284516        3
    33         2.3565146        1       142         0.1660515        3
    34         2.4812391        1       143         0.3159403        3
    35         2.8711886        1       144         0.3952831        3
    36         2.9659954        1       145         0.6241751        3
    37         3.4815691        1       146         0.7478735        3
    38         3.7153428        1       147         0.8174883        3
    39         3.9286497        1       148         0.8850678        3
    40         4.1812418        1       149         1.0658607        3
    41         4.2564295        1       150         1.4436998        3
    42         4.3596431        1       151         1.5610897        3
    43         4.4603253        1       152         1.7661966        3
    44         5.0834104        1       153         1.9923250        3
    45         5.1165983        1       154         2.2476607        3
    46         5.6686207        1       155         2.3146453        3
    47         5.8933687        1       156         2.3446261        3
    48         6.2380307        1       157         2.5861355        3
    49         6.2878963        1       158         2.7871958        3
    50         6.5686770        1       159         3.7311243        3
    51         6.9268033        1       160         4.0865191        3
    52         7.1630335        1       161         4.2061825        3
    53         7.7159346        1       162         4.2309374        3
    54         8.1561178        1       163         4.7869446        3
    55        10.5681519        1       164         5.0506430        3
    56        10.6046468        1       165         5.7568995        3
    57        11.0758069        1       166         6.0892415        3
    58        11.0929082        1       167         6.3134825        3
    59        11.4851405        1       168         6.4341475        3
    60        12.2410653        1       169         7.3748540        3
    61        12.8459424        1       170         8.3298886        3
    62        13.1470240        1       171        10.1196181        3
    63        15.2717320        1       172        10.8501745        3
    64        17.9813807        1       173        11.3394755        3
    65        20.5660287        1       174        11.8552428        3
    66        26.4884348        1       175        12.5838721        3
    67        28.0106217        1       176        13.9122694        3
    68        34.8808195        1       177        19.3105487        3
    69        36.6189012        1       178        26.9345479        3
    70        47.1105978        1       179        33.7767850        3
    71        48.4421266        1       180        47.5903581        3
    72        64.1573223        1       181        66.7709301        3
    73        67.7478480        1       182        98.6523865        3
    74        98.6715505        1       183        98.7304700        3
    75        98.7446955        1       184       103.2829569        3
    76       103.3267338        1       185       103.3563550        3
    77       103.4040749        1       186       115.3704555        3
    78       115.1520607        1       187       117.0287548        3
    79       115.9170565        1       188       198.8291568        3
    80       117.9119865        1       189       225.1917715        3
    81       122.7954492        1       190       395.4870687        3
    82       198.5709090        1       191         0.2279606        4
    83       199.2542734        1       192         0.5376358        4
    84       216.6393451        1       193         0.7666552        4
    85       225.9932287        1       194         0.8881175        4
    86       396.2201837        1       195         1.5257455        4
    87       509.3573846        1       196         1.7619577        4
    88       895.4673957        1       197         2.1022735        4
    89         0.0611336        2       198         2.1859661        4
    90         0.1284516        2       199         2.3565146        4
    91         0.1660515        2       200         2.9659954        4
    92         0.3159403        2       201         3.7153428        4
    93         0.3952831        2       202         4.1812418        4
    94         0.6241751        2       203         4.3596431        4
    95         0.7478735        2       204         5.1165983        4
    96         0.8174883        2       205         5.8933687        4
    97         0.8850678        2       206         6.2878963        4
    98         1.0658607        2       207         6.5686770        4
    99         1.4436998        2       208         7.1630335        4
   100         1.5610897        2       209        10.6046468        4
   101         1.7661966        2       210        11.0929082        4
   102         1.9923250        2       211        12.2410653        4
   103         2.2476607        2       212        12.8459424        4
   104         2.3146453        2       213        26.4884348        4
   105         2.3446261        2       214        47.1105978        4
   106         2.5861355        2       215        98.6715505        4
   107         2.7871958        2       216       103.3267338        4
   108         3.7311243        2       217       115.1520607        4
   109         4.0865191        2       218       198.5709090        4
------------------------------------------------------------------------
  -20.6664877565423       -11.3831017413667       -1.48707174526895     
 -0.800412063853057      -0.559983043636025      -0.618921703130888     
 -0.618921703130889       6.056755081409616E-002  7.466357737320180E-002
  0.156076462363263       0.227960611919756       0.228231110397893     
  0.300969408513552       0.390129824263250       0.508404757604775     
  0.537635785355011       0.627795058282393       0.766655232312287     
  0.778478560458954       0.867344838035884       0.885469137407925     
  0.888117493721973        1.16284468649017        1.45533335144459     
   1.52574545775724        1.66692295412773        1.76195774097405     
   1.78840316690930        2.10227346996453        2.10485746154587     
   2.18596611147255        2.31156597454001        2.35651459529036     
   2.48123905153836        2.87118856896257        2.96599535433569     
   3.48156905764648        3.71534275378500        3.92864970812026     
   4.18124177758819        4.25642947068971        4.35964305800192     
   4.46032531136043        5.08341036126168        5.11659825978793     
   5.66862074371016        5.89336867674588        6.23803070555361     
   6.28789629010056        6.56867699381554        6.92680330282274     
   7.16303348413655        7.71593456189216        8.15611775104858     
   10.5681519071565        10.6046467695023        11.0758068500191     
   11.0929082466954        11.4851405029560        12.2410652956336     
   12.8459423988997        13.1470240303336        15.2717319881063     
   17.9813806589712        20.5660286841059        26.4884348249640     
   28.0106217224531        34.8808195368122        36.6189011824231     
[...]
 Convergence information after     9 iterations: 
 Largest element of residual vector : -0.11630748E-04.
 Largest element of DIIS residual   : -0.59486856E-05.
 Convergence information after    10 iterations: 
 Largest element of residual vector : -0.66636211E-05.
 Largest element of DIIS residual   : -0.45880704E-05.
 Convergence information after    11 iterations: 
 Largest element of residual vector : -0.28366625E-05.
 Largest element of DIIS residual   : -0.88026875E-06.
 Convergence information after    12 iterations: 
 Largest element of residual vector : -0.11940037E-05.
 Largest element of DIIS residual   :  0.47934722E-06.
 Convergence information after    13 iterations: 
 Largest element of residual vector :  0.38285074E-06.
 Largest element of DIIS residual   :  0.18744242E-06.
 Convergence information after    14 iterations: 
 Largest element of residual vector :  0.17016808E-06.
 Largest element of DIIS residual   :  0.79853035E-07.
 Perturbed amplitude equations converged in    14 iterations.
  Dominant contributions to perturbed wavefunction:
    7    7  141   28   0.2377076750 ABAB
    7    7   28  141   0.2377076750 ABAB
    7    7  141   37  -0.2019590382 ABAB
    7    7   37  141  -0.2019590382 ABAB
    7    7  141   39   0.1585163661 ABAB
    7    7   39  141   0.1585163661 ABAB
    7    7  141   55   0.1585024596 ABAB
    7    7   55  141   0.1585024596 ABAB
    7    6   28   90   0.1551672960 ABAB
    6    7   90   28   0.1551672960 ABAB
    7    7  141   53  -0.1479744945 ABAB
    7    7   53  141  -0.1479744945 ABAB
    7    7  141   44   0.1423066974 ABAB
    7    7   44  141   0.1423066974 ABAB
    7    7  140   28   0.1407439711 ABAB
    7    7   28  140   0.1407439711 ABAB
    5    5  141   44   0.1345877621 ABAB
    5    5   44  141   0.1345877621 ABAB
    7    6   37   90  -0.1321840090 ABAB
    6    7   90   37  -0.1321840090 ABAB
  norm of converged amps    2.32091323889263     
 Starting iterative solution of the perturbed Lambda equations.
 The DIIS procedure is used to accelerate convergence.
 Convergence criterion is 10**(-7).
 Maximum number of iterations is 100.
 Convergence information after     1 iterations: 
 Largest element of residual vector :  0.66388080E-01.
 Largest element of DIIS residual   :  0.66388080E-01.
 Convergence information after     2 iterations: 
 Largest element of residual vector : -0.85355283E-02.
 Largest element of DIIS residual   : -0.48848051E-02.
 Convergence information after     3 iterations: 
 Largest element of residual vector : -0.48683191E-02.
 Largest element of DIIS residual   : -0.42591660E-02.
 Convergence information after     4 iterations: 
 Largest element of residual vector : -0.30202545E-02.
 Largest element of DIIS residual   : -0.24305843E-02.
 Convergence information after     5 iterations: 
 Largest element of residual vector : -0.18451528E-02.
 Largest element of DIIS residual   : -0.89365481E-03.
 Convergence information after     6 iterations: 
 Largest element of residual vector : -0.61829771E-03.
 Largest element of DIIS residual   : -0.15621026E-03.
 Convergence information after     7 iterations: 
 Largest element of residual vector : -0.13567459E-03.
 Largest element of DIIS residual   :  0.53994643E-04.
 Convergence information after     8 iterations: 
 Largest element of residual vector :  0.30042752E-04.
 Largest element of DIIS residual   : -0.24503907E-04.
 Convergence information after     9 iterations: 
 Largest element of residual vector : -0.86443353E-05.
 Largest element of DIIS residual   : -0.57971366E-05.
 Convergence information after    10 iterations: 
 Largest element of residual vector : -0.52001587E-05.
 Largest element of DIIS residual   : -0.39569180E-05.
 Convergence information after    11 iterations: 
 Largest element of residual vector : -0.21544490E-05.
 Largest element of DIIS residual   : -0.82876061E-06.
 Convergence information after    12 iterations: 
 Largest element of residual vector : -0.10600077E-05.
 Largest element of DIIS residual   :  0.68544657E-06.
 Convergence information after    13 iterations: 
 Largest element of residual vector :  0.51993365E-06.
 Largest element of DIIS residual   :  0.34180851E-06.
 Convergence information after    14 iterations: 
 Largest element of residual vector :  0.28707294E-06.
 Largest element of DIIS residual   :  0.13875851E-06.
 Convergence information after    15 iterations: 
 Largest element of residual vector :  0.93347570E-07.
 Largest element of DIIS residual   :  0.43267983E-07.
 Perturbed Lambda equations converged in    15 iterations.
  Dominant contributions to perturbed wavefunction:
    7    7  141   28   0.2227302881 ABAB
    7    7   28  141   0.2227302881 ABAB
    7    7  141   37  -0.1905092697 ABAB
    7    7   37  141  -0.1905092697 ABAB
    7    7  141   39   0.1470671228 ABAB
    7    7   39  141   0.1470671228 ABAB
    7    7  141   55   0.1468372024 ABAB
    7    7   55  141   0.1468372024 ABAB
    7    6   28   90   0.1432301027 ABAB
    6    7   90   28   0.1432301027 ABAB
    7    7  141   53  -0.1378148054 ABAB
    7    7   53  141  -0.1378148054 ABAB
    7    7  140   28   0.1327199009 ABAB
    7    7   28  140   0.1327199009 ABAB
    7    7  141   44   0.1299232886 ABAB
    7    7   44  141   0.1299232886 ABAB
    5    5  141   44   0.1290611734 ABAB
    5    5   44  141   0.1290611734 ABAB
    7    7  141   19  -0.1236325789 ABAB
    7    7   19  141  -0.1236325789 ABAB
        The DBOC first-order density matrix is being calculated 
             (Symmetry block 3, perturbation   2)
 term   6.26742356197829     
 final tnorm  0.880858021374862     
  norm contr. I: |<0|L dT/dx|0>|^2   0.000000000000000E+000
  norm contr. II: <0|[nabla(1+L)e-T][nabla e^T]|0>   6.26742356197829     
  total norm contribution   6.26742356197829     
 oo  1.092831182817855E-002
 vv  -47.0377071450294     
 vo  5.169045519929915E-002
  Correlated perturbed 1-el contribution to DBOC  -46.9750883780020       cm**-1
  SUM_I |dc_I/dx|^2 contribution to DBOC   23.5950296975125       cm**-1
 
 
  The total diagonal Born-Oppenheimer correction (DBOC) is:      0.0041408309 a.u.
  The total diagonal Born-Oppenheimer correction (DBOC) is:        908.807332 cm-1
 
 Total CC energy including DBOC  -113.275023749897     
 First-order density matrix is being calculated  (Symmetry block 3, perturbation   2)
 Calculation of the contributions of <pq||rs> to dI(i,j)/dx required   1.8 seconds.
 Calculation of the contributions of <pq||rs> to dI(a,b)/dx required  14.0 seconds.
 Calculation of the contributions of <pq||rs> to dI(i,a)/dx required   8.7 seconds.
 First-order Z-vector equations are solved for 1 perturbation.
 Convergence reached after  18 iterations.
        U*G(pq,rs) contribution is being calculated
             (Symmetry block 3, perturbation   2)

 CCSD contribution to force constants 

        0.0000000000        0.0000000000        0.0000000000
        0.0000000000        0.0000000000        0.0000000000
        0.0000000000        0.0000000000        0.0000000000
        0.0000000000        0.0000000000        0.0000000000
        0.0000000000        0.0000000000        0.0000000000
        0.0000000000        0.0000000000        0.0000000000
        0.0000000000        0.0000000000        0.0000000000
        0.0000000000        0.0000000000        0.0000000000
        0.0000000000        0.0000000000        0.0000000000
        0.0000000000        0.0000000000        0.0000000000
        0.0000000000        0.0000000000        0.0000000000
        0.0000000000       -0.0162639585        0.0162639585

 CCSD contribution to dipole derivatives 

        0.0000000000        0.0000000000        0.0000000000
        0.0000000000        0.0000000000        0.0000000000
        0.0000000000        0.0000000000        0.0000000000
        0.0000000000        0.0000000000       -0.0466991804
        0.0000000000        0.0000000000        0.0000000000
        0.0000000000        0.0000000000        0.0000000000
 @CHECKOUT-I, Total execution time (CPU/WALL):     1064.49/     257.51 seconds.
--executable xsdcc finished with status     0 in      257.56 seconds (walltime).
 --invoking executable--
/nfs/workspaces/public/cfour_mpi/bin/xanti
 @GETMEM-I,  Allocated    3814 MB of main memory.
 CCSD MO derivative gammas will be sorted to Mulliken order.
 @CHECKOUT-I, Total execution time (CPU/WALL):       10.34/      14.02 seconds.
--executable xanti finished with status     0 in       14.03 seconds (walltime).
 --invoking executable--
/nfs/workspaces/public/cfour_mpi/bin/xbcktrn
 @GETMEM-I,  Allocated    3814 MB of main memory.
 CCSD MO derivative gammas will be transformed to the AO basis.
 @CHECKOUT-I, Total execution time (CPU/WALL):       19.81/       3.30 seconds.
--executable xbcktrn finished with status     0 in        3.33 seconds (walltime).
 --invoking executable--
/nfs/workspaces/public/cfour_mpi/bin/xvdint
 @GETMEM-I,  Allocated    3814 MB of main memory.
 One- and two-electron integral derivatives are calculated
 for RHF-CC/MBPT hessians and dipole derivatives.
 Spherical gaussians are used.
  magnet F F
                    8722  records have been written to the Sort file.
  Total length of Sort file :             178609116  words.
 Evaluation of 2el integral derivatives

                      Two-electron integral gradient
                      ------------------------------

                         C #1 z     0.0000000000
                         O #2 z     0.0000000000


 C #1       0.0000000000           -0.4756126639            0.0000000000
 O #2       0.0000000000            0.4756126639            0.0000000000


 Evaluation of 2e integral derivatives required  314.83 seconds.
  contribution to Hessian
        0.0000000000        0.0000000000        0.0000000000
        0.0000000000       -0.4756126639        0.4756126639
 @CHECKOUT-I, Total execution time (CPU/WALL):      314.83/      65.59 seconds.
--executable xvdint finished with status     0 in       65.61 seconds (walltime).
 --invoking executable--
/nfs/workspaces/public/cfour_mpi/bin/xanti
 @GETMEM-I,  Allocated    3814 MB of main memory.
 CCSD MO gammas will be sorted to Mulliken order.
 @CHECKOUT-I, Total execution time (CPU/WALL):       10.80/       9.40 seconds.
--executable xanti finished with status     0 in        9.42 seconds (walltime).
 --invoking executable--
/nfs/workspaces/public/cfour_mpi/bin/xbcktrn
 @GETMEM-I,  Allocated    3814 MB of main memory.
 CCSD MO gammas will be transformed to the AO basis.
 @CHECKOUT-I, Total execution time (CPU/WALL):       25.19/       3.94 seconds.
--executable xbcktrn finished with status     0 in        3.97 seconds (walltime).
 --invoking executable--
/nfs/workspaces/public/cfour_mpi/bin/xvdint
 @GETMEM-I,  Allocated    3814 MB of main memory.
 One- and two-electron integral derivatives are calculated
 for RHF-CC/MBPT hessians and dipole derivatives.
 Spherical gaussians are used.
  magnet F F

                     Kinetic energy integral gradient
                     --------------------------------

                         C #1 z    -1.3530791470
                         O #2 z     1.3530791470


 C #1       0.0000000000            0.0000000000           -1.3530791470
 O #2       0.0000000000            0.0000000000            1.3530791470



                   Nuclear attraction integral gradient
                   ------------------------------------

                         C #1 z    22.3191211918
                         O #2 z   -22.3191211918


 C #1       0.0000000000            0.0000000000           22.3191211918
 O #2       0.0000000000            0.0000000000          -22.3191211918



                      Reorthonormalization gradient
                      -----------------------------

                         C #1 z     0.0000000000
                         O #2 z     0.0000000000


 C #1       0.0000000000            0.0000000000            0.0000000000
 O #2       0.0000000000            0.0000000000            0.0000000000



                     Kinetic energy integral Hessian
                     -------------------------------


           Symmetry 1

           C #1 z      O #2 z

 C #1 z    1.090612
 O #2 z   -1.090612    1.090612


           Symmetry 2

           C #1 x      O #2 x

 C #1 x   -1.669632
 O #2 x    1.669632   -1.669632


           Symmetry 3

           C #1 y      O #2 y

 C #1 y   -1.669632
 O #2 y    1.669632   -1.669632




           C #1 x      C #1 y      C #1 z      O #2 x      O #2 y      O #2 z

 C #1 x   -1.669632
 C #1 y    0.000000   -1.669632
 C #1 z    0.000000    0.000000    1.090612

 O #2 x    1.669632    0.000000    0.000000   -1.669632
 O #2 y    0.000000    1.669632    0.000000    0.000000   -1.669632
 O #2 z    0.000000    0.000000   -1.090612    0.000000    0.000000    1.090612




                   Nuclear attraction integral Hessian
                   -----------------------------------


           Symmetry 1

           C #1 z      O #2 z

 C #1 z  -13.020560
 O #2 z   13.020560  -13.020560


           Symmetry 2

           C #1 x      O #2 x

 C #1 x   18.702090
 O #2 x  -18.702090   18.702090


           Symmetry 3

           C #1 y      O #2 y

 C #1 y   18.702090
 O #2 y  -18.702090   18.702090




           C #1 x      C #1 y      C #1 z      O #2 x      O #2 y      O #2 z

 C #1 x   18.702090
 C #1 y    0.000000   18.702090
 C #1 z    0.000000    0.000000  -13.020560

 O #2 x  -18.702090    0.000000    0.000000   18.702090
 O #2 y    0.000000  -18.702090    0.000000    0.000000   18.702090
 O #2 z    0.000000    0.000000   13.020560    0.000000    0.000000  -13.020560




                Highest order reorthonormalization Hessian
                ------------------------------------------


           Symmetry 1

           C #1 z      O #2 z

 C #1 z    0.000000
 O #2 z    0.000000    0.000000


           Symmetry 2

           C #1 x      O #2 x

 C #1 x    0.000000
 O #2 x    0.000000    0.000000


           Symmetry 3

           C #1 y      O #2 y

 C #1 y    0.000000
 O #2 y    0.000000    0.000000




           C #1 x      C #1 y      C #1 z      O #2 x      O #2 y      O #2 z




                Electronic contributions to dipole moment
                -----------------------------------------

                               au             Debye

                    z      0.02062908      0.05243389

  Conversion factor used: 1 a.u. =   2.54174691 Debye 



   Electronic contributions to static part of dipole moment derivatives
   --------------------------------------------------------------------


                     Total dipole moment derivatives
                     -------------------------------


           Symmetry 1
                              Ez

               C #1 z    -5.71136055
               O #2 z    -8.28863945

           Symmetry 2
                              Ex

               C #1 x    -5.76625032
               O #2 x    -8.23374968

           Symmetry 3
                              Ey

               C #1 y    -5.76625032
               O #2 y    -8.23374968



                       Ex          Ey          Ez

      C #1    x   -5.766250    0.000000    0.000000
      C #1    y    0.000000   -5.766250    0.000000
      C #1    z    0.000000    0.000000   -5.711361

      O #2    x   -8.233750    0.000000    0.000000
      O #2    y    0.000000   -8.233750    0.000000
      O #2    z    0.000000    0.000000   -8.288639

 Evaluation of 1e integral derivatives required    1.67 seconds.
                    8815  records have been written to the Sort file.
  Total length of Sort file :             180513570  words.
 Evaluation of 2el integral derivatives

                      Two-electron integral gradient
                      ------------------------------

                         C #1 z   -10.7414288589
                         O #2 z    10.7414288589


 C #1       0.0000000000            0.0000000000          -10.7414288589
 O #2       0.0000000000            0.0000000000           10.7414288589


 Evaluation of 2e integral derivatives required  702.32 seconds.

                            Molecular gradient
                            ------------------

                         C #1 z     0.5599415100
                         O #2 z    -0.5599415100


 C #1       0.0000000000            0.0000000000            0.5599415100
 O #2       0.0000000000            0.0000000000           -0.5599415100


  Molecular gradient norm 0.792E+00

                            Molecular hessian
                            -----------------


           Symmetry 1

           C #1 z      O #2 z

 C #1 z   57.467544
 O #2 z  -57.467544   57.467544


           Symmetry 2

           C #1 x      O #2 x

 C #1 x    0.687517
 O #2 x   -0.687517    0.687517


           Symmetry 3

           C #1 y      O #2 y

 C #1 y    0.687517
 O #2 y   -0.687517    0.687517




           C #1 x      C #1 y      C #1 z      O #2 x      O #2 y      O #2 z

 C #1 x    0.687517
 C #1 y    0.000000    0.687517
 C #1 z    0.000000    0.000000   57.467544

 O #2 x   -0.687517    0.000000    0.000000    0.687517
 O #2 y    0.000000   -0.687517    0.000000    0.000000    0.687517
 O #2 z    0.000000    0.000000  -57.467544    0.000000    0.000000   57.467544




                           Total dipole moment
                           -------------------

                               au             Debye

                    z      0.01820011      0.04626007

  Conversion factor used: 1 a.u. =   2.54174691 Debye 



                     Total dipole moment derivatives
                     -------------------------------


           Symmetry 1
                              Ez

               C #1 z     0.71899241
               O #2 z    -0.71899241

           Symmetry 2
                              Ex

               C #1 x     0.00552953
               O #2 x    -0.00552953

           Symmetry 3
                              Ey

               C #1 y     0.00552953
               O #2 y    -0.00552953



                       Ex          Ey          Ez

      C #1    x    0.005530    0.000000    0.000000
      C #1    y    0.000000    0.005530    0.000000
      C #1    z    0.000000    0.000000    0.718992

      O #2    x   -0.005530    0.000000    0.000000
      O #2    y    0.000000   -0.005530    0.000000
      O #2    z    0.000000    0.000000   -0.718992

 @CHECKOUT-I, Total execution time (CPU/WALL):      703.98/     119.22 seconds.
--executable xvdint finished with status     0 in      119.24 seconds (walltime).
 --invoking executable--
/nfs/workspaces/public/cfour_mpi/bin/xjoda
  @GTFLGS-I, Hessian will be transformed to curvilinear coordinates.
  @GTFLGS-I, Hessian will be transformed to curvilinear coordinates.
  igrd and ihes are                      0                     1
  gradient from JOBARC 
   0.000000000000000   0.000000000000000   0.559941509967662
   0.000000000000000   0.000000000000000  -0.559941509967662
 
  @PROJFCM-I, Projecting force constant matrix onto totally symmetric subspace.
  Largest difference between matrix elements of symmetrized
  and unsymmetrized FCM :    -0.2156175238E-10.
  read isotopes from ZMAT file 
 
  Summary of diagonal Born-Oppenheimer correction at the correlated level
  The total diagonal Born-Oppenheimer correction (DBOC) is:      0.0041408309 a.u.
  The total diagonal Born-Oppenheimer correction (DBOC) is:        908.807332 cm-1
  The total diagonal Born-Oppenheimer correction (DBOC) is:            10.872 kJ/mole
  hellooooooo 
  readis is  F
 
 @CHECKOUT-I, Total execution time (CPU/WALL):        0.01/       0.05 seconds.
--executable xjoda finished with status     0 in        0.06 seconds (walltime).
  The final electronic energy is      -113.275023749897017 a.u. 
  This computation required                         2593.11 seconds (walltime).
