 --invoking executable--
/nfs/workspaces/public/cfour_mpi/bin/xjoda


   *************************************************************************
         <<<     CCCCCC     CCCCCC   |||     CCCCCC     CCCCCC   >>>
       <<<      CCC        CCC       |||    CCC        CCC         >>>
      <<<      CCC        CCC        |||   CCC        CCC            >>>
    <<<        CCC        CCC        |||   CCC        CCC              >>>
      <<<      CCC        CCC        |||   CCC        CCC            >>>
       <<<      CCC        CCC       |||    CCC        CCC         >>>
         <<<     CCCCCC     CCCCCC   |||     CCCCCC     CCCCCC   >>>
   *************************************************************************

     ****************************************************************
     * CFOUR Coupled-Cluster techniques for Computational Chemistry *
     ****************************************************************
 

   Department of Chemistry                Institut fuer Physikalische Chemie
   University of Florida                  Universitaet Mainz
   Gainesville, FL 32611, USA             D-55099 Mainz, Germany

   Department of Chemistry                Fakultaet fuer Chemie und Biowiss.
   Johns Hopkins University               Karlsruher Institut fuer Technologie
   Baltimore, MD 21218, USA               D-76131 Karlsruhe, Germany

   Department of Chemistry                Department of Physical Chemistry
   Southern Methodist University          Eotvos Lorand University
   Dallas, TX 75275, USA                  H-1053 Budapest, Hungary

 
                       Version 2.1
 
                     vincent.theory.phys.ucl.ac.uk                     
                     Wed 26 Feb 06:52:53 GMT 2025                      
                     integer*8 version is running
 
********************************************************************************
*                          Input from ZMAT file                                *
********************************************************************************
Carbon Monoxide DBOC calculation                                                
C                                                                               
O 1 r                                                                           
                                                                                
r=1.7379310344827585                                                            
                                                                                
                                                                                
*CFOUR(CALC=CCSD,BASIS=AUG-PCVQZ,SCF_CONV=10                                    
CC_CONV=14,DBOC=ON,MEMORY=500000000                                             
ZFIELD=200)                                                                     
                                                                                
%isotopes                                                                       
12                                                                              
16                                                                              
********************************************************************************
  @GTFLGS-I, Hessian will be transformed to curvilinear coordinates.
    -------------------------------------------------------------------
                    CFOUR Control Parameters 
    -------------------------------------------------------------------
        External           Internal           Value            Units
          Name               Name
    -------------------------------------------------------------------
       ABCDTYPE             IABCDT         STANDARD    [  0]    ***   
       ANHARMONIC           IANHAR         OFF         [  0]    ***   
       ANH_ALGORIT          IANALG         STANDARD    [  0]    ***   
       ANH_DERIVAT          IANDER         SECOND      [  1]    ***   
       ANH_MODE             ANHMOD         VIBRATION   [  0]    ***   
       ANH_STEPSIZ          ICUBST             50000          x 10-6  
       ANH_SYMMETR          IANHSM         ABELIAN     [  0]    ***   
       AO_LADDERS           IAOLAD         SINGLEPASS  [  1]    ***   
       AV_SCF               IAVSCF         OFF         [  0]    ***   
       BASIS                IBASIS         AUG-PCVQZ   [ 52]    ***   
       BOTHVECTORS          BOTHVC         OFF         [  0]    ***   
       BOX_POTENT           IPIAB          OFF         [  0]    ***   
       BREIT                IBREIT         OFF         [  0]    ***   
       BRUCK_CONV           IBRTOL          10D-  4             ***   
       BRUECKNER            IBRKNR         OFF         [  0]    ***   
       BUFFERSIZE           IBUFFS              4096            ***   
       CACHE_RECS           ICHREC             10               ***   
       CALCLEVEL            ICLLVL         CCSD        [ 10]    ***   
       CCORBOPT             ICCORB         OFF         [  0]  x 0.01  
       CC_CONV              ICCCNV          10D- 14             ***   
       CC_EXPORDER          ICCEOR              5               ***   
       CC_EXTRAPOL          ICCEXT         DIIS        [  1]    ***   
       CC_GUESS             ICCGES         MP2         [  0]    ***   
       CC_MAXCYC            ICCCYC            100              cycles 
       CC_PROGRAM           ICCPRO         VCC         [  0]    ***   
       CHARGE               ICHRGE              0               ***   
       CHOLESKY             ICHOLE         OFF         [  0]    ***   
       CIS_CONV             ICISTL              5               ***   
       COMM_SIZE            IPSIZE            ***               ***   
       CONSTANT             ICONST         OLD         [  1]    ***   
       CONTINUUM            ICONTU         NONE        [  0]    ***   
       CONTRACTION          ICNTYP         GENERAL     [  1]    ***   
       COORDINATES          ICOORD         INTERNAL    [  0]    ***   
       CPHF_CONVER          ICPHFT          10D- 16             ***   
       CPHF_MAXCYC          ICPHFC             64              cycles 
       CUBIC                ICUBIC         OFF         [  0]    ***   
       CURVILINEAR          ICURVY         ON          [  1]    ***   
       DBOC                 IDBOC          ON          [  1]    ***   
       DCT                  IDCT           OFF         [  0]    ***   
       DERIV_LEV            IDRLVL         SECOND      [  2]    ***   
       DEVMEM_SIZE          IDVMEM          50000000           MByte  
       DIAG_MRCC            IEOMST          10D-  0             ***   
       DIFF_TYPE            IDIFTY         RELAXED     [  0]    ***   
       DIRECT               IDIRCT         OFF         [  0]    ***   
       DROPMO               IDRPMO      NONE         
       ECP                  IECP           OFF         [  0]    ***   
       EIGENVECTOR          IVEC                1               ***   
       EL_ANHARM            IELANH         OFF         [  0]    ***   
       EOMFOLLOW            IEOMSR         ENERGY      [  0]    ***   
       EOMIP                IEOMIP         OFF         [  0]    ***   
       EOMLEVEL             HBARFM         SAME        [  0]    ***   
       EOM_MRCC             IMRCCE         NEW         [  1]    ***   
       EOM_NONIT            EOMNON         OFF         [  0]    ***   
       EOM_NSING            IEOMSI          10D-  0             ***   
       EOM_NSTATES          IMRCCD         DAVIDSON    [  0]    ***   
       EOM_NTRIP            IEOMTR          10D-  0             ***   
       EOM_ORDER            IEXORD         ENERGY      [  0]    ***   
       EOM_PROPSTA          IEOMST              0               ***   
       ESTATE_CONV          IEXTOL          10D-  5             ***   
       ESTATE_DIAG          IEXDIG         ITERATIVE   [  0]    ***   
       ESTATE_LOCK          IESLOC         ON          [  1]    ***   
       ESTATE_MAXC          IEXMXC             40               ***   
       ESTATE_PROP          IEXPRP         OFF         [  0]    ***   
       EVAL_HESS            IRECAL              0            # of cyc.
       EXCITATION           IEXCIT              0               ***   
       EXCITE               IEXCIT         NONE        [  0]    ***   
       EXTERN_POT           IEXPOT         OFF         [  0]    ***   
       FCGRADNEW            IFCGNW         OFF         [  0]    ***   
       FC_FIELD             IFINFC              0             x 10-6  
       FD_CALTYPE           IFDCAL         GRADONLY    [  0]    ***   
       FD_PROJECT           IFDPRJ         OFF         [  1]    ***   
       FD_STEPSIZE          IDISFD              0            10-4 bohr
       FD_USEGROUP          IFDGRP         FULL        [  0]    ***   
       FILE_RECSIZ          IFLREC              4096           words  
       FINITE_PERT          IFIPER              0             x 10-6  
       FIXGEOM              IFIXGM         OFF         [  0]    ***   
       FOCK                 IFOCK          AO          [  1]    ***   
       FREQ_ALGORI          IVIALG         STANDARD    [  0]    ***   
       FROZEN_CORE          IFROCO         OFF         [  0]    ***   
       GAMMA_ABCD           IGABCD         STORE       [  0]    ***   
       GAMMA_ABCI           IGABCI         STORE       [  0]    ***   
       GENBAS_1             IGNBS1              0               ***   
       GENBAS_2             IGNBS2              0               ***   
       GENBAS_3             IGNBS3              0               ***   
       GENBAS_4             IGNBS4              0               ***   
       GEO_CONV             ICONTL              5              H/bohr 
       GEO_MAXCYC           IOPTCY             50               ***   
       GEO_MAXSTEP          IMXSTP            300            millibohr
       GEO_METHOD           INR            SINGLE_POINT[  5]    ***   
       GIAO                 IGIAO          OFF         [  1]    ***   
       GIMIC                IGIMIC         OFF         [  0]    ***   
       GRID                 IGRID          OFF         [  0]    ***   
       GRID_ALGO            IGALGO         SERIAL      [  0]    ***   
       GUESS                IGUESS         MOREAD      [  0]    ***   
       HBAR                 IHBAR          OFF         [  0]    ***   
       HESS_TYPE            IHESTP         SCF         [  0]    ***   
       HF2_FILE             IHF2Fl         USE         [  1]    ***   
       HFSTABILITY          ISTABL         OFF         [  0]    ***   
       INCORE               INCORE         OFF         [  0]    ***   
       INPUT_MRCC           IMRCC          ON          [  1]    ***   
       INTEGRALS            INTTYP         VMOL        [  1]    ***   
       JODA_PRINT           IJPRNT              0               ***   
       KEYWORD_OUT          IDMPKW         NO          [  0]    ***   
       LINDEP_TOL           ILINDP              8               ***   
       LINEQ_CONV           IZTACN          10D-  7           cycles  
       LINEQ_EXPOR          ILMAXD              5               ***   
       LINEQ_MAXCY          ILMAXC            100               ***   
       LINEQ_TYPE           ILTYPE         DIIS        [  1]    ***   
       LOCK_ORBOCC          ILOCOC         OFF         [  0]    ***   
       MEMORY_SIZE          IMEMSZ         500000000           words  
       MEM_UNIT             IMEMU          INTEGERWORDS[  0]    ***   
       MRCC                 IMRCCC         OFF         [  0]    ***   
       MULTIPLICTY          IMULTP              1               ***   
       NACOUPLING           IVCOUP         OFF         [  0]    ***   
       NEGEVAL              IDIE           ABORT       [  0]    ***   
       NEWNORM              INEWNO         OFF         [  0]    ***   
       NON-HF               INONHF         OFF         [  0]    ***   
       NTOP_TAMP            ITOPT2             15               ***   
       NUC_MODEL            INUCMO         POINT       [  0]    ***   
       OCCUPATION           IOCCU   ESTIMATED BY SCF 
       OPEN-SHELL           IOPEN          SPIN-ORBITAL[  0]    ***   
       OPTVIB               IOPTVB         OFF         [  0]    ***   
       ORBITALS             IORBTP         STANDARD    [  0]    ***   
       PARALLEL             IPARAL         ON          [  1]    ***   
       PARA_INT             IPINTS         ON          [  1]    ***   
       PARA_PRINT           IPPRIN              0               ***   
       PERT_ORB             IPTORB         STANDARD    [  0]    ***   
       POINTS               IGRDFD              0               ***   
       PRINT                IPRNT               0               ***   
       PROPS                IPROPS         OFF         [  0]    ***   
       PROP_INTEGR          IINTYP         INTERNAL    [  0]    ***   
       PSI                  IPSI           OFF         [  0]    ***   
       QC_ALG               IQCALG         FLM         [  0]    ***   
       QC_LINALG            IQCLIN         TRIDIAG     [  2]    ***   
       QC_MAXCYC            IQCMAX          10D-100           cycles  
       QC_MAXSCFCY          IQCMSC          10D- 15           cycles  
       QC_RTRUST            IQCRTR          10D-  0           x 10-3  
       QC_SKIPSCF           IQCSKI         OFF         [  0]    ***   
       QC_START             IQCSTA          10D-  1             ***   
       QRHFGUESS            IQGUES         OFF         [  0]    ***   
       QUARTIC              IQUART         OFF         [  0]    ***   
       RAMAN_INT            IRAMIN         OFF         [  0]    ***   
       RAMAN_ORB            IRAMRE         UNRELAXED   [  0]    ***   
       RDO                  IRDOFM         ON          [  1]    ***   
       REDUCE_REPR          REDREP         Ir          [  0]    ***   
       REFERENCE            IREFNC         RHF         [  0]    ***   
       RELATIVIST           IRELAT         OFF         [  0]    ***   
       RELAX_DENS           IRDENS         ON          [  1]    ***   
       RESET_FLAGS          IRESET         OFF         [  0]    ***   
       RESTART_CC           ICCRES         OFF         [  0]    ***   
       ROT_EVEC             ROTVEC              0               ***   
       SAVE_INTS            ISVINT         OFF         [  0]    ***   
       SCALE_ON             ISTCRT              0               ***   
       SCF_CONV             ISCFCV          10D- 10             ***   
       SCF_DAMPING          IDAMP               0             x 10-3  
       SCF_EXPORDE          IRPPOR              6               ***   
       SCF_EXPSTAR          IRPPLS              8               ***   
       SCF_EXTRAPO          IRPP           ON          [  1]    ***   
       SCF_MAXCYC           ISCFCY            150              cycles 
       SCF_NOSTOP           ISCFST         OFF         [  0]    ***   
       SCF_PRINT            ISCFPR              0               ***   
       SCF_PROG             ISCFPR         SCF         [  0]    ***   
       SD_FIELD             IFINSD              0             x 10-6  
       SOPERT               IPERSO         OFF         [  0]    ***   
       SPHERICAL            IDFGHI         ON          [  1]    ***   
       SPINORBIT            ISOCAL         OFF         [  0]    ***   
       SPINROTATIO          ISRCON         OFF         [  0]    ***   
       SPIN_FLIP            ISPFLP         OFF         [  0]    ***   
       SPIN_ORBIT           ISPORB         OFF         [  0]    ***   
       SPIN_SCAL            ISCSMP         OFF         [  0]    ***   
       STEEPSCALE           ISTPSC              1000          x 10-3  
       SUBGROUP             ISUBGP         DEFAULT     [  0]    ***   
       SUBGRPAXIS           ISBXYZ         X           [  0]    ***   
       SYMMETRY             ISYM           ON          [  0]    ***   
       SYM_CHECK            ISYMCK         OVERRIDE    [  1]    ***   
       T3_EXTRAPOL          IT3EXT         OFF         [  0]    ***   
       T4_EXTRAPOL          IT4EXP         OFF         [  0]    ***   
       TAMP_SUM             IEVERY              5               ***   
       TESTSUITE            ITESTS         OFF         [  0]    ***   
       THERMOCH             ITHERM         OFF         [  0]    ***   
       TOL_CHOLESK          ITOLCH          10D-  4             ***   
       TRANGRAD             IRESRM         OFF         [  0]    ***   
       TRANS_INV            ITRAIN         IGNORE      [  1]    ***   
       TREAT_PERT           ITREAT         SIMULTANEOUS[  0]    ***   
       TRIP_ALGORI          ITRALG         NORMAL      [  0]    ***   
       UIJ_THRESHO          IUIJTH              1               ***   
       UNITS                IUNITS         ANGSTROM    [  0]    ***   
       UNOS                 IUNOS          OFF         [  0]    ***   
       UPDATE_HESS          IHUPDT         ON          [  1]    ***   
       VIBPHASE             ISETPH         STANDARD    [  0]    ***   
       VIBRATION            IVIB           ANALYTIC    [  1]    ***   
       VIB_ALGORIT          IGEALG         STANDARD    [  0]    ***   
       VNATORB              IVNORB         OFF         [  0]    ***   
       VTRAN                IVTRAN         FULL/PARTIAL[  0]    ***   
       XFIELD               IXEFLD              0             x 10-6  
       XFORM_TOL            IXFTOL          10D- 11             ***   
       YFIELD               IYEFLD              0             x 10-6  
       ZFIELD               IZEFLD            200             x 10-6  
       ZSCALE_EXP           IZEXPS         OFF         [  0]    ***   
    -------------------------------------------------------------------
   2 entries found in Z-matrix 
   Job Title : Carbon Monoxide DBOC calculation                                                
   There are  1 unique internal coordinates.
   Of these,  0 will be optimized.
   User supplied Z-matrix: 
--------------------------------------------------------------------------------
       SYMBOL    BOND      LENGTH    ANGLE     ANGLE     DIHED     ANGLE
                  TO      (ANGST)    WRT      (DEG)      WRT      (DEG)
--------------------------------------------------------------------------------
        C    
        O          1         r    
                  *Initial values for internal coordinates* 
                      Name             Value
                        r               1.7379310345
--------------------------------------------------------------------------------
  read isotopes from ZMAT file 
   Rotational constants (in cm-1): 
          0.8140432004             0.8140432004
   Rotational constants (in MHz): 
      24404.4046145895         24404.4046145895
********************************************************************************
   The full molecular point group is CXv .
   The largest Abelian subgroup of the full molecular point group is C2v .
   The computational point group is C2v .
********************************************************************************
--------------------------------------------------------------------------------
   Analysis of internal coordinates specified by Z-matrix 
--------------------------------------------------------------------------------
   *The nuclear repulsion energy is   14.615367523809523 a.u.
   *There is   1 degree of freedom within the tot. symm. molecular subspace.
   *Z-matrix requests optimization of   0 coordinates.
   *The optimization is constrained.
   *The following   1 parameters can have non-zero 
    derivatives within the totally symmetric subspace:
             r    [ 1]
   *The following   0 parameters are to be optimized:

   *The following coordinates must be varied in an  unconstrained optimization.
             r    [ 1]
--------------------------------------------------------------------------------


 ----------------------------------------------------------------
         Coordinates used in calculation (QCOMP) 
 ----------------------------------------------------------------
 Z-matrix   Atomic            Coordinates (in bohr)
  Symbol    Number           X              Y              Z
 ----------------------------------------------------------------
     C         6        -0.00000000     0.00000000     1.87643824
     O         8         0.00000000     0.00000000    -1.40777612
 ----------------------------------------------------------------
 
   Interatomic distance matrix (Angstroms) 
 
                 C             O    
                [ 1]        [ 2]
  C    [ 1]     0.00000
  O    [ 2]     1.73793     0.00000
 rotcon2
   Rotational constants (in cm-1): 
          0.8140432004             0.0000000000
   Rotational constants (in MHz): 
      24404.4046145895             0.0000000000
  ECPDATA file not present.   Using default ECPDATA. 
  @GTFLGS-I, Hessian will be transformed to curvilinear coordinates.
  There are  218 basis functions.
 @CHECKOUT-I, Total execution time (CPU/WALL):        0.12/       0.16 seconds.
--executable xjoda finished with status     0 in        0.18 seconds (walltime).
 --invoking executable--
/nfs/workspaces/public/cfour_mpi/bin/xvmol
 SERIAL VERSION OF MOLECULE STARTED
********************************************************************************
                    INPUT FROM MOL FILE
********************************************************************************
INTGRL        1    0    1    0    0    0    0    0    0                         
         *** CFOUR Program System (Release V0.1) ***                            
Carbon Monoxide DBOC calculation                                                
    2    2 X  Y       0.10E-08              0    0                              
   9999.00      3.00                                                            
          6.00000000    1    5    1    1    1    1    1                         
C #1  -0.000000000000000   0.000000000000000   1.876438243171017                
   16    9                                                                      
   33980.0000000000       9.100000000000000E-005 -1.900000000000000E-005        
  0.000000000000000E+000  0.000000000000000E+000  0.000000000000000E+000        
  0.000000000000000E+000  0.000000000000000E+000  0.000000000000000E+000        
  0.000000000000000E+000                                                        
   5089.00000000000       7.040000000000000E-004 -1.510000000000000E-004        
  0.000000000000000E+000  0.000000000000000E+000  0.000000000000000E+000        
  0.000000000000000E+000  0.000000000000000E+000  0.000000000000000E+000        
  0.000000000000000E+000                                                        
   1157.00000000000       3.693000000000000E-003 -7.850000000000000E-004        
  0.000000000000000E+000  0.000000000000000E+000  0.000000000000000E+000        
  0.000000000000000E+000  0.000000000000000E+000  0.000000000000000E+000        
  0.000000000000000E+000                                                        
   326.600000000000       1.536000000000000E-002 -3.324000000000000E-003        
  0.000000000000000E+000  0.000000000000000E+000  0.000000000000000E+000        
  0.000000000000000E+000  0.000000000000000E+000  0.000000000000000E+000        
  0.000000000000000E+000                                                        
   106.100000000000       5.292900000000000E-002 -1.151200000000000E-002        
  0.000000000000000E+000  0.000000000000000E+000  0.000000000000000E+000        
  0.000000000000000E+000  0.000000000000000E+000  0.000000000000000E+000        
  0.000000000000000E+000                                                        
   38.1100000000000       0.147043000000000      -3.416000000000000E-002        
  0.000000000000000E+000  0.000000000000000E+000  0.000000000000000E+000        
  0.000000000000000E+000  0.000000000000000E+000  0.000000000000000E+000        
  0.000000000000000E+000                                                        
   14.7500000000000       0.305631000000000      -7.717300000000001E-002        
  0.000000000000000E+000  0.000000000000000E+000  0.000000000000000E+000        
  0.000000000000000E+000  0.000000000000000E+000  0.000000000000000E+000        
  0.000000000000000E+000                                                        
   6.03500000000000       0.399345000000000      -0.141493000000000             
  0.000000000000000E+000  0.000000000000000E+000  0.000000000000000E+000        
  0.000000000000000E+000  0.000000000000000E+000  0.000000000000000E+000        
  0.000000000000000E+000                                                        
   2.53000000000000       0.217051000000000      -0.118019000000000             
  0.000000000000000E+000  0.000000000000000E+000  0.000000000000000E+000        
  0.000000000000000E+000  0.000000000000000E+000  0.000000000000000E+000        
  0.000000000000000E+000                                                        
  0.735500000000000       1.589400000000000E-002  0.273806000000000             
   1.00000000000000       0.000000000000000E+000  0.000000000000000E+000        
  0.000000000000000E+000  0.000000000000000E+000  0.000000000000000E+000        
  0.000000000000000E+000                                                        
  0.290500000000000      -3.084000000000000E-003  0.586510000000000             
  0.000000000000000E+000   1.00000000000000       0.000000000000000E+000        
  0.000000000000000E+000  0.000000000000000E+000  0.000000000000000E+000        
  0.000000000000000E+000                                                        
  0.111100000000000       9.779999999999999E-004  0.285430000000000             
  0.000000000000000E+000  0.000000000000000E+000   1.00000000000000             
  0.000000000000000E+000  0.000000000000000E+000  0.000000000000000E+000        
  0.000000000000000E+000                                                        
   7.21600000000000       0.000000000000000E+000  0.000000000000000E+000        
  0.000000000000000E+000  0.000000000000000E+000  0.000000000000000E+000        
   1.00000000000000       0.000000000000000E+000  0.000000000000000E+000        
  0.000000000000000E+000                                                        
   19.5700000000000       0.000000000000000E+000  0.000000000000000E+000        
  0.000000000000000E+000  0.000000000000000E+000  0.000000000000000E+000        
  0.000000000000000E+000   1.00000000000000       0.000000000000000E+000        
  0.000000000000000E+000                                                        
   53.0730000000000       0.000000000000000E+000  0.000000000000000E+000        
  0.000000000000000E+000  0.000000000000000E+000  0.000000000000000E+000        
  0.000000000000000E+000  0.000000000000000E+000   1.00000000000000             
  0.000000000000000E+000                                                        
  4.145000000000000E-002  0.000000000000000E+000  0.000000000000000E+000        
  0.000000000000000E+000  0.000000000000000E+000  0.000000000000000E+000        
  0.000000000000000E+000  0.000000000000000E+000  0.000000000000000E+000        
   1.00000000000000                                                             
   10    8                                                                      
   34.5100000000000       5.378000000000000E-003  0.000000000000000E+000        
  0.000000000000000E+000  0.000000000000000E+000  0.000000000000000E+000        
  0.000000000000000E+000  0.000000000000000E+000  0.000000000000000E+000        
   7.91500000000000       3.613200000000000E-002  0.000000000000000E+000        
  0.000000000000000E+000  0.000000000000000E+000  0.000000000000000E+000        
  0.000000000000000E+000  0.000000000000000E+000  0.000000000000000E+000        
   2.36800000000000       0.142493000000000       0.000000000000000E+000        
  0.000000000000000E+000  0.000000000000000E+000  0.000000000000000E+000        
  0.000000000000000E+000  0.000000000000000E+000  0.000000000000000E+000        
  0.813200000000000       0.342150000000000        1.00000000000000             
  0.000000000000000E+000  0.000000000000000E+000  0.000000000000000E+000        
  0.000000000000000E+000  0.000000000000000E+000  0.000000000000000E+000        
  0.289000000000000       0.463864000000000       0.000000000000000E+000        
   1.00000000000000       0.000000000000000E+000  0.000000000000000E+000        
  0.000000000000000E+000  0.000000000000000E+000  0.000000000000000E+000        
  0.100700000000000       0.250028000000000       0.000000000000000E+000        
  0.000000000000000E+000   1.00000000000000       0.000000000000000E+000        
  0.000000000000000E+000  0.000000000000000E+000  0.000000000000000E+000        
   8.18200000000000       0.000000000000000E+000  0.000000000000000E+000        
  0.000000000000000E+000  0.000000000000000E+000   1.00000000000000             
  0.000000000000000E+000  0.000000000000000E+000  0.000000000000000E+000        
   24.1860000000000       0.000000000000000E+000  0.000000000000000E+000        
  0.000000000000000E+000  0.000000000000000E+000  0.000000000000000E+000        
   1.00000000000000       0.000000000000000E+000  0.000000000000000E+000        
   71.4940000000000       0.000000000000000E+000  0.000000000000000E+000        
  0.000000000000000E+000  0.000000000000000E+000  0.000000000000000E+000        
  0.000000000000000E+000   1.00000000000000       0.000000000000000E+000        
  3.218000000000000E-002  0.000000000000000E+000  0.000000000000000E+000        
  0.000000000000000E+000  0.000000000000000E+000  0.000000000000000E+000        
  0.000000000000000E+000  0.000000000000000E+000   1.00000000000000             
    6    6                                                                      
   1.84800000000000        1.00000000000000       0.000000000000000E+000        
  0.000000000000000E+000  0.000000000000000E+000  0.000000000000000E+000        
  0.000000000000000E+000                                                        
  0.649000000000000       0.000000000000000E+000   1.00000000000000             
  0.000000000000000E+000  0.000000000000000E+000  0.000000000000000E+000        
  0.000000000000000E+000                                                        
  0.228000000000000       0.000000000000000E+000  0.000000000000000E+000        
   1.00000000000000       0.000000000000000E+000  0.000000000000000E+000        
  0.000000000000000E+000                                                        
   8.65600000000000       0.000000000000000E+000  0.000000000000000E+000        
  0.000000000000000E+000   1.00000000000000       0.000000000000000E+000        
  0.000000000000000E+000                                                        
   33.2130000000000       0.000000000000000E+000  0.000000000000000E+000        
  0.000000000000000E+000  0.000000000000000E+000   1.00000000000000             
  0.000000000000000E+000                                                        
  7.660000000000000E-002  0.000000000000000E+000  0.000000000000000E+000        
  0.000000000000000E+000  0.000000000000000E+000  0.000000000000000E+000        
   1.00000000000000                                                             
    4    4                                                                      
   1.41900000000000        1.00000000000000       0.000000000000000E+000        
  0.000000000000000E+000  0.000000000000000E+000                                
  0.485000000000000       0.000000000000000E+000   1.00000000000000             
  0.000000000000000E+000  0.000000000000000E+000                                
   24.6940000000000       0.000000000000000E+000  0.000000000000000E+000        
   1.00000000000000       0.000000000000000E+000                                
  0.187000000000000       0.000000000000000E+000  0.000000000000000E+000        
  0.000000000000000E+000   1.00000000000000                                     
    2    2                                                                      
   1.01100000000000        1.00000000000000       0.000000000000000E+000        
  0.424000000000000       0.000000000000000E+000   1.00000000000000             
          8.00000000    1    5    1    1    1    1    1                         
O #2   0.000000000000000   0.000000000000000  -1.407776123782426                
   16    9                                                                      
   61420.0000000000       9.000000000000001E-005 -2.000000000000000E-005        
  0.000000000000000E+000  0.000000000000000E+000  0.000000000000000E+000        
  0.000000000000000E+000  0.000000000000000E+000  0.000000000000000E+000        
  0.000000000000000E+000                                                        
   9199.00000000000       6.980000000000001E-004 -1.590000000000000E-004        
  0.000000000000000E+000  0.000000000000000E+000  0.000000000000000E+000        
  0.000000000000000E+000  0.000000000000000E+000  0.000000000000000E+000        
  0.000000000000000E+000                                                        
   2091.00000000000       3.664000000000000E-003 -8.290000000000000E-004        
  0.000000000000000E+000  0.000000000000000E+000  0.000000000000000E+000        
  0.000000000000000E+000  0.000000000000000E+000  0.000000000000000E+000        
  0.000000000000000E+000                                                        
   590.900000000000       1.521800000000000E-002 -3.508000000000000E-003        
  0.000000000000000E+000  0.000000000000000E+000  0.000000000000000E+000        
  0.000000000000000E+000  0.000000000000000E+000  0.000000000000000E+000        
  0.000000000000000E+000                                                        
   192.300000000000       5.242300000000000E-002 -1.215600000000000E-002        
  0.000000000000000E+000  0.000000000000000E+000  0.000000000000000E+000        
  0.000000000000000E+000  0.000000000000000E+000  0.000000000000000E+000        
  0.000000000000000E+000                                                        
   69.3200000000000       0.145921000000000      -3.626100000000000E-002        
  0.000000000000000E+000  0.000000000000000E+000  0.000000000000000E+000        
  0.000000000000000E+000  0.000000000000000E+000  0.000000000000000E+000        
  0.000000000000000E+000                                                        
   26.9700000000000       0.305258000000000      -8.299200000000000E-002        
  0.000000000000000E+000  0.000000000000000E+000  0.000000000000000E+000        
  0.000000000000000E+000  0.000000000000000E+000  0.000000000000000E+000        
  0.000000000000000E+000                                                        
   11.1000000000000       0.398508000000000      -0.152090000000000             
  0.000000000000000E+000  0.000000000000000E+000  0.000000000000000E+000        
  0.000000000000000E+000  0.000000000000000E+000  0.000000000000000E+000        
  0.000000000000000E+000                                                        
   4.68200000000000       0.216980000000000      -0.115331000000000             
  0.000000000000000E+000  0.000000000000000E+000  0.000000000000000E+000        
  0.000000000000000E+000  0.000000000000000E+000  0.000000000000000E+000        
  0.000000000000000E+000                                                        
   1.42800000000000       1.759400000000000E-002  0.288979000000000             
   1.00000000000000       0.000000000000000E+000  0.000000000000000E+000        
  0.000000000000000E+000  0.000000000000000E+000  0.000000000000000E+000        
  0.000000000000000E+000                                                        
  0.554700000000000      -2.502000000000000E-003  0.586128000000000             
  0.000000000000000E+000   1.00000000000000       0.000000000000000E+000        
  0.000000000000000E+000  0.000000000000000E+000  0.000000000000000E+000        
  0.000000000000000E+000                                                        
  0.206700000000000       9.540000000000000E-004  0.277624000000000             
  0.000000000000000E+000  0.000000000000000E+000   1.00000000000000             
  0.000000000000000E+000  0.000000000000000E+000  0.000000000000000E+000        
  0.000000000000000E+000                                                        
   12.9740000000000       0.000000000000000E+000  0.000000000000000E+000        
  0.000000000000000E+000  0.000000000000000E+000  0.000000000000000E+000        
   1.00000000000000       0.000000000000000E+000  0.000000000000000E+000        
  0.000000000000000E+000                                                        
   34.9000000000000       0.000000000000000E+000  0.000000000000000E+000        
  0.000000000000000E+000  0.000000000000000E+000  0.000000000000000E+000        
  0.000000000000000E+000   1.00000000000000       0.000000000000000E+000        
  0.000000000000000E+000                                                        
   93.8810000000000       0.000000000000000E+000  0.000000000000000E+000        
  0.000000000000000E+000  0.000000000000000E+000  0.000000000000000E+000        
  0.000000000000000E+000  0.000000000000000E+000   1.00000000000000             
  0.000000000000000E+000                                                        
  6.959000000000000E-002  0.000000000000000E+000  0.000000000000000E+000        
  0.000000000000000E+000  0.000000000000000E+000  0.000000000000000E+000        
  0.000000000000000E+000  0.000000000000000E+000  0.000000000000000E+000        
   1.00000000000000                                                             
   10    8                                                                      
   63.4200000000000       6.044000000000000E-003  0.000000000000000E+000        
  0.000000000000000E+000  0.000000000000000E+000  0.000000000000000E+000        
  0.000000000000000E+000  0.000000000000000E+000  0.000000000000000E+000        
   14.6600000000000       4.179900000000000E-002  0.000000000000000E+000        
  0.000000000000000E+000  0.000000000000000E+000  0.000000000000000E+000        
  0.000000000000000E+000  0.000000000000000E+000  0.000000000000000E+000        
   4.45900000000000       0.161143000000000       0.000000000000000E+000        
  0.000000000000000E+000  0.000000000000000E+000  0.000000000000000E+000        
  0.000000000000000E+000  0.000000000000000E+000  0.000000000000000E+000        
   1.53100000000000       0.356731000000000        1.00000000000000             
  0.000000000000000E+000  0.000000000000000E+000  0.000000000000000E+000        
  0.000000000000000E+000  0.000000000000000E+000  0.000000000000000E+000        
  0.530200000000000       0.448309000000000       0.000000000000000E+000        
   1.00000000000000       0.000000000000000E+000  0.000000000000000E+000        
  0.000000000000000E+000  0.000000000000000E+000  0.000000000000000E+000        
  0.175000000000000       0.244940000000000       0.000000000000000E+000        
  0.000000000000000E+000   1.00000000000000       0.000000000000000E+000        
  0.000000000000000E+000  0.000000000000000E+000  0.000000000000000E+000        
   14.4750000000000       0.000000000000000E+000  0.000000000000000E+000        
  0.000000000000000E+000  0.000000000000000E+000   1.00000000000000             
  0.000000000000000E+000  0.000000000000000E+000  0.000000000000000E+000        
   42.7300000000000       0.000000000000000E+000  0.000000000000000E+000        
  0.000000000000000E+000  0.000000000000000E+000  0.000000000000000E+000        
   1.00000000000000       0.000000000000000E+000  0.000000000000000E+000        
   126.140000000000       0.000000000000000E+000  0.000000000000000E+000        
  0.000000000000000E+000  0.000000000000000E+000  0.000000000000000E+000        
  0.000000000000000E+000   1.00000000000000       0.000000000000000E+000        
  5.348000000000000E-002  0.000000000000000E+000  0.000000000000000E+000        
  0.000000000000000E+000  0.000000000000000E+000  0.000000000000000E+000        
  0.000000000000000E+000  0.000000000000000E+000   1.00000000000000             
    6    6                                                                      
   3.77500000000000        1.00000000000000       0.000000000000000E+000        
  0.000000000000000E+000  0.000000000000000E+000  0.000000000000000E+000        
  0.000000000000000E+000                                                        
   1.30000000000000       0.000000000000000E+000   1.00000000000000             
  0.000000000000000E+000  0.000000000000000E+000  0.000000000000000E+000        
  0.000000000000000E+000                                                        
  0.444000000000000       0.000000000000000E+000  0.000000000000000E+000        
   1.00000000000000       0.000000000000000E+000  0.000000000000000E+000        
  0.000000000000000E+000                                                        
   14.9270000000000       0.000000000000000E+000  0.000000000000000E+000        
  0.000000000000000E+000   1.00000000000000       0.000000000000000E+000        
  0.000000000000000E+000                                                        
   57.5440000000000       0.000000000000000E+000  0.000000000000000E+000        
  0.000000000000000E+000  0.000000000000000E+000   1.00000000000000             
  0.000000000000000E+000                                                        
  0.154000000000000       0.000000000000000E+000  0.000000000000000E+000        
  0.000000000000000E+000  0.000000000000000E+000  0.000000000000000E+000        
   1.00000000000000                                                             
    4    4                                                                      
   2.66600000000000        1.00000000000000       0.000000000000000E+000        
  0.000000000000000E+000  0.000000000000000E+000                                
  0.859000000000000       0.000000000000000E+000   1.00000000000000             
  0.000000000000000E+000  0.000000000000000E+000                                
   26.4830000000000       0.000000000000000E+000  0.000000000000000E+000        
   1.00000000000000       0.000000000000000E+000                                
  0.324000000000000       0.000000000000000E+000  0.000000000000000E+000        
  0.000000000000000E+000   1.00000000000000                                     
    2    2                                                                      
   1.84600000000000        1.00000000000000       0.000000000000000E+000        
  0.714000000000000       0.000000000000000E+000   1.00000000000000             
FINISH                                                                          
 
********************************************************************************
 ONE- AND TWO-ELECTRON INTEGRALS OVER SYMMETRY-ADAPTED AOS ARE CALCULATED.

  SPHERICAL HARMONICS ARE USED.
  
  INTEGRALS LESS THAN  0.10E-13 ARE NEGLECTED.

  NUCLEAR REPULSION ENERGY :   14.6153675238 A.U.
  @MOLECU-I, ONE ELECTRON INTEGRALS (CPU/WALL):        0.07/       0.07 SECONDS.
  @TWOEL-I,    4377147 INTEGRALS OF SYMMETRY TYPE  I I I I
  @TWOEL-I,   18890118 INTEGRALS OF SYMMETRY TYPE  I J I J
  @TWOEL-I,    9948295 INTEGRALS OF SYMMETRY TYPE  I I J J
  @TWOEL-I,   13942450 INTEGRALS OF SYMMETRY TYPE  I J K L
  @TWOEL-I, TOTAL NUMBER OF 2-E INTEGRALS   47158010.
  @MOLECU-I, TWO ELECTRON INTEGRALS (CPU/WALL):      144.37/      19.98 SECONDS.
 @CHECKOUT-I, Total execution time (CPU/WALL):      144.47/      20.07 seconds.

Running with 14 threads/proc

--executable xvmol finished with status     0 in       20.11 seconds (walltime).
 --invoking executable--
/nfs/workspaces/public/cfour_mpi/bin/xvmol2ja
 @GETMEM-I,  Allocated    3814 MB of main memory.
 @CHECKOUT-I, Total execution time (CPU/WALL):        0.15/       0.03 seconds.
--executable xvmol2ja finished with status     0 in        0.06 seconds (walltime).
 --invoking executable--
/nfs/workspaces/public/cfour_mpi/bin/xvprop
 @GETMEM-I,  Allocated    3814 MB of main memory.
   Property integrals will be calculated.
    --------------------------------------------------------------
                                   Property evaluated at 
    Property type                X             Y             Z
    --------------------------------------------------------------
    Dipole moment               ----          ----          ----  
    Quadrupole moment           ----          ----          ----  
    Octopole moment             ----          ----          ----  
    Relativisitic corr.         ----          ----          ----  
    Second moment            0.0000000     0.0000000     0.0000000
    Electron density         0.0000000     0.0000000     1.8764382
    Electron density         0.0000000     0.0000000    -1.4077761
    Field gradient           0.0000000     0.0000000     1.8764382
    Field gradient           0.0000000     0.0000000    -1.4077761
    Potential                0.0000000     0.0000000     1.8764382
    Potential                0.0000000     0.0000000    -1.4077761
    --------------------------------------------------------------
 @CHECKOUT-I, Total execution time (CPU/WALL):        1.30/       1.31 seconds.
--executable xvprop finished with status     0 in        1.32 seconds (walltime).
 --invoking executable--
/nfs/workspaces/public/cfour_mpi/bin/xvscf
  There are  218 functions in the AO basis.

  There are 4 irreducible representations.

       Irrep        # of functions
         1                 86
         2                 52
         3                 52
         4                 28


  Parameters for SCF calculation: 
        SCF reference function:  RHF  
  Maximum number of iterations:  150
     Full symmetry point group: CXv 
     Computational point group: C2v 
        Initial density matrix: MOREAD                 
     SCF convergence tolerance: 10**(-10)
  DIIS convergence acceleration:  ON
          Latest start for DIIS:   8
                     DIIS order:   6

  Memory information:    2523578 words required.
  Fock matrices are constructed from AO integral file.
 @GETMEM-I,  Allocated      19 MB of main memory.
  Initialization and symmetry analysis required      0.002 seconds.

  Adding electric field perturbation to one-electron Hamiltonian.
  Field direction     : Z
  Field strength      :  0.0002000 a.u.

  @INITGES-I, Occupancies from core Hamiltonian:

          Alpha population by irrep:   5    1    1    0
           Beta population by irrep:   5    1    1    0


 total no. of electrons in initial guess :  0.000000000000000E+000
  --------------------------------------------------------------------
  Iteration         Total Energy            Largest Density Difference
  --------------------------------------------------------------------
       0            14.615368239715766              0.0000000000D+00
   current occupation vector 
     5  1  1  0
     5  1  1  0
       1           -93.730815676753608              0.1756388831D+02
   current occupation vector 
     5  1  1  0
     5  1  1  0
       2           -97.652639738138788              0.1756388154D+02
   current occupation vector 
     5  1  1  0
     5  1  1  0
       3           -99.840884069520598              0.6970707667D+01
   current occupation vector 
     5  1  1  0
     5  1  1  0
       4           -94.323565512439671              0.6968965338D+01
   current occupation vector 
     5  1  1  0
     5  1  1  0
       5           -99.854806541904566              0.7065320877D+01
   current occupation vector 
     5  1  1  0
     5  1  1  0
       6           -94.223869756188108              0.7065373761D+01
   current occupation vector 
     5  1  1  0
     5  1  1  0
       7           -99.852071632914090              0.7069588674D+01
   current occupation vector 
     5  1  1  0
     5  1  1  0
       8           -94.221517827308375              0.7069591433D+01
   current occupation vector 
     5  1  1  0
     5  1  1  0
       9          -106.974125549197510              0.6087957731D+01
   current occupation vector 
     5  1  1  0
     5  1  1  0
      10          -110.537568515118977              0.1322538488D+01
   current occupation vector 
     5  1  1  0
     5  1  1  0
      11          -112.220585669894973              0.9924667622D+00
   current occupation vector 
     5  1  1  0
     5  1  1  0
      12          -112.372475962651393              0.6648378611D+00
   current occupation vector 
     5  1  1  0
     5  1  1  0
      13          -112.437927613644504              0.1514152714D+00
   current occupation vector 
     5  1  1  0
     5  1  1  0
      14          -112.455476267189056              0.1239275889D+00
   current occupation vector 
     5  1  1  0
     5  1  1  0
      15          -112.456917531654938              0.4728351180D-01
   current occupation vector 
     5  1  1  0
     5  1  1  0
      16          -112.458504542874920              0.7786680216D-01
   current occupation vector 
     5  1  1  0
     5  1  1  0
      17          -112.459521236696602              0.7833470410D-01
   current occupation vector 
     5  1  1  0
     5  1  1  0
      18          -112.459742978747073              0.4793124269D-01
   current occupation vector 
     5  1  1  0
     5  1  1  0
      19          -112.459744777736276              0.2446571302D-02
   current occupation vector 
     5  1  1  0
     5  1  1  0
      20          -112.459744887613127              0.1440524621D-02
   current occupation vector 
     5  1  1  0
     5  1  1  0
      21          -112.459744893005109              0.3647558005D-03
   current occupation vector 
     5  1  1  0
     5  1  1  0
      22          -112.459744894021227              0.1187493282D-03
   current occupation vector 
     5  1  1  0
     5  1  1  0
      23          -112.459744894023203              0.5868527836D-05
   current occupation vector 
     5  1  1  0
     5  1  1  0
      24          -112.459744894023302              0.5944428256D-06
   current occupation vector 
     5  1  1  0
     5  1  1  0
      25          -112.459744894023501              0.8603363666D-07
   current occupation vector 
     5  1  1  0
     5  1  1  0
      26          -112.459744894023316              0.4849242763D-07
   current occupation vector 
     5  1  1  0
     5  1  1  0
      27          -112.459744894023288              0.4531410935D-07
   current occupation vector 
     5  1  1  0
     5  1  1  0
      28          -112.459744894023373              0.1478858702D-07
   current occupation vector 
     5  1  1  0
     5  1  1  0
      29          -112.459744894023103              0.3159137396D-09
   current occupation vector 
     5  1  1  0
     5  1  1  0
      30          -112.459744894022592              0.5873663778D-09
   current occupation vector 
     5  1  1  0
     5  1  1  0

  SCF has converged.

 Density matrix saved to file den.dat
 total electron number:   14.0000000000001     
     E(SCF)=      -112.459744894022251              0.7173106553D-10

  Eigenvector printing suppressed.

 @PUTMOS-I, Writing converged MOs to NEWMOS. 
 @PUTMOS-I, Symmetry   1 Full Blocks 21 Partial Blocksize   2
 @PUTMOS-I, Symmetry   2 Full Blocks 13 Partial Blocksize   0
 @PUTMOS-I, Symmetry   3 Full Blocks 13 Partial Blocksize   0
 @PUTMOS-I, Symmetry   4 Full Blocks  7 Partial Blocksize   0
 @PUTFOCK-I, Writing converged Fock matrix to NEWFOCK. 
 @PUTFOCK-I, Symmetry   1 Full Blocks 21 Partial Blocksize   2
 @PUTFOCK-I, Symmetry   2 Full Blocks 13 Partial Blocksize   0
 @PUTFOCK-I, Symmetry   3 Full Blocks 13 Partial Blocksize   0
 @PUTFOCK-I, Symmetry   4 Full Blocks  7 Partial Blocksize   0


 
  ORBITAL EIGENVALUES (ALPHA)  (1H = 27.2113834 eV)

       MO #        E(hartree)               E(eV)           FULLSYM    COMPSYM
       ----   --------------------   --------------------   -------   ---------
    1     1         -20.6283560087        -561.3261042652     SG+        A1 (1)
    2     2         -11.5361698419        -313.9151405361     SG+        A1 (1)
    3     3          -1.2341044714         -33.5816899261     SG+        A1 (1)
    4     4          -0.8132529290         -22.1297372511     SG+        A1 (1)
    5     5          -0.4969104578         -13.5216209840     SG+        A1 (1)
    6   139          -0.4794913972         -13.0476242475      PI        B2 (3)
    7    87          -0.4794913972         -13.0476242475      PI        B1 (2)
  +++++++++++++++++++++++++++++++++++++++++++++++++++++++++++++++++++++++++++++
    8    88          -0.0249140375          -0.6779454270      PI        B1 (2)
    9   140          -0.0249140375          -0.6779454270      PI        B2 (3)
   10     6           0.0577973216           1.5727450783     SG+        A1 (1)
   11     7           0.0686088103           1.8669406405     SG+        A1 (1)
   12    89           0.0811582693           2.2084287823      PI        B1 (2)
   13   141           0.0811582693           2.2084287823      PI        B2 (3)
   14     8           0.1524477590           4.1483144196     SG+        A1 (1)
   15     9           0.1653132139           4.4984012436     SG+        A1 (1)
   16   142           0.1832140098           4.9855066654      PI        B2 (3)
   17    90           0.1832140098           4.9855066654      PI        B1 (2)
   18   191           0.2197386570           5.9793928432      DE        A2 (4)
   19    10           0.2197386570           5.9793928432      DE        A1 (1)
   20    91           0.2798145370           7.6141406470      PI        B1 (2)
   21   143           0.2798145370           7.6141406470      PI        B2 (3)
   22    11           0.2882289889           7.8431095234     SG+        A1 (1)
   23    12           0.3050294526           8.3002733827     SG+        A1 (1)
   24    13           0.4091833784          11.1344457908     SG+        A1 (1)
   25    92           0.4100510429          11.1580561421      PI        B1 (2)
   26   144           0.4100510429          11.1580561421      PI        B2 (3)
   27    14           0.5159375723          14.0393750897     SG+        A1 (1)
   28   192           0.5506247340          14.9832607477      DE        A2 (4)
   29    15           0.5506247340          14.9832607477      DE        A1 (1)
   30    93           0.6238522958          16.9758840055      PI        B1 (2)
   31   145           0.6238522958          16.9758840055      PI        B2 (3)
   32    16           0.6971630178          18.9707701708     SG+        A1 (1)
   33   146           0.7249461308          19.7267871083      PH        B2 (3)
   34    94           0.7249461308          19.7267871083      PH        B1 (2)
   35   193           0.7311349380          19.8951931157      DE        A2 (4)
   36    17           0.7311349380          19.8951931157      DE        A1 (1)
   37   147           0.7674049884          20.8821513624      PI        B2 (3)
   38    95           0.7674049884          20.8821513624      PI        B1 (2)
   39    18           0.8063743903          21.9425626974     SG+        A1 (1)
   40    19           0.8469512568          23.0467153686      DE        A1 (1)
   41   194           0.8469512568          23.0467153686      DE        A2 (4)
   42   148           0.8624628757          23.4688079778      PI        B2 (3)
   43    96           0.8624628757          23.4688079778      PI        B1 (2)
   44    20           0.9074218116          24.6922028211     SG+        A1 (1)
   45    97           1.0570101283          28.7627078588      PI        B1 (2)
   46   149           1.0570101283          28.7627078588      PI        B2 (3)
   47    21           1.1515580987          31.3354889316     SG+        A1 (1)
   48    22           1.3208601733          35.9424325942     SG+        A1 (1)
   49    98           1.4182792046          38.5933392049      PH        B1 (2)
   50   150           1.4182792046          38.5933392049      PH        B2 (3)
   51    99           1.4520626585          39.5126337204      PI        B1 (2)
   52   151           1.4520626585          39.5126337204      PI        B2 (3)
   53    23           1.5761212127          42.8884386030     SG+        A1 (1)
   54   195           1.5864807279          43.1703353442      DE        A2 (4)
   55    24           1.5864807279          43.1703353442      DE        A1 (1)
   56   100           1.6419020465          44.6784260924      PI        B1 (2)
   57   152           1.6419020465          44.6784260924      PI        B2 (3)
   58    25           1.6571753643          45.0940341985      DE        A1 (1)
   59   196           1.6571753643          45.0940341985      DE        A2 (4)
   60    26           1.8615014590          50.6540299017     SG+        A1 (1)
   61    27           1.9222634475          52.3074476658     SG+        A1 (1)
   62   101           2.0146694809          54.8219436692      PI        B1 (2)
   63   153           2.0146694809          54.8219436692      PI        B2 (3)
   64   197           2.0553234503          55.9281944172      PI        A2 (4)
   65    28           2.0553234503          55.9281944172      PI        A1 (1)
   66   198           2.1129409932          57.4960474687      DE        A2 (4)
   67    29           2.1129409932          57.4960474687      DE        A1 (1)
   68   154           2.1640505054          58.8868079983      PH        B2 (3)
   69   102           2.1640505054          58.8868079983      PH        B1 (2)
   70   155           2.1952006809          59.7344473689      PH        B2 (3)
   71   103           2.1952006809          59.7344473689      PH        B1 (2)
   72   104           2.1988155508          59.8328129775      PI        B1 (2)
   73   156           2.1988155508          59.8328129775      PI        B2 (3)
   74    30           2.2205062323          60.4230464292     SG+        A1 (1)
   75    31           2.2659852529          61.6605934952      DE        A1 (1)
   76   199           2.2659852529          61.6605934952      DE        A2 (4)
   77    32           2.3535377281          64.0430174666     SG+        A1 (1)
   78   105           2.4622883287          67.0022717528      PI        B1 (2)
   79   157           2.4622883287          67.0022717528      PI        B2 (3)
   80   200           2.5444152301          69.2370583556      DE        A2 (4)
   81    33           2.5444152301          69.2370583556      DE        A1 (1)
   82   106           2.6450994012          71.9768139379      PI        B1 (2)
   83   158           2.6450994012          71.9768139379      PI        B2 (3)
   84    34           2.6484535993          72.0680863067     SG+        A1 (1)
   85    35           2.7947731151          76.0496427504     SG+        A1 (1)
   86   107           3.2446475789          88.2913492673      PI        B1 (2)
   87   159           3.2446475789          88.2913492673      PI        B2 (3)
   88   201           3.7230077204         101.3081904798      PI        A2 (4)
   89    36           3.7230077204         101.3081904798      PI        A1 (1)
   90    37           3.7785154144         102.8186316229     SG+        A1 (1)
   91   160           3.8557246850         104.9196026873      PH        B2 (3)
   92   108           3.8557246850         104.9196026873      PH        B1 (2)
   93    38           4.0560394588         110.3704447992     SG+        A1 (1)
   94   202           4.1267160199         112.2936518013      DE        A2 (4)
   95    39           4.1267160199         112.2936518013      DE        A1 (1)
   96   109           4.1372808688         112.5811359549      PI        B1 (2)
   97   161           4.1372808688         112.5811359549      PI        B2 (3)
   98   162           4.1532208589         113.0148851353      PH        B2 (3)
   99   110           4.1532208589         113.0148851353      PH        B1 (2)
  100    40           4.3032001590         117.0960293748     SG+        A1 (1)
  101    41           4.3127751603         117.3565784053      DE        A1 (1)
  102   203           4.3127751603         117.3565784053      DE        A2 (4)
  103   111           4.4631291351         121.4479180588      PI        B1 (2)
  104   163           4.4631291351         121.4479180588      PI        B2 (3)
  105   204           4.5597303702         124.0765713031      DE        A2 (4)
  106    42           4.5597303702         124.0765713031      DE        A1 (1)
  107    43           4.8675673894         132.4532424582     SG+        A1 (1)
  108   112           5.0000507252         136.0582973017      PI        B1 (2)
  109   164           5.0000507252         136.0582973017      PI        B2 (3)
  110    44           5.0725330848         138.0306425784     SG+        A1 (1)
  111   113           5.3542728550         145.6971714859      PI        B1 (2)
  112   165           5.3542728550         145.6971714859      PI        B2 (3)
  113    45           5.8056156866         157.9788343215      PI        A1 (1)
  114   205           5.8056156866         157.9788343215      PI        A2 (4)
  115   166           5.8769254107         159.9192705647      PH        B2 (3)
  116   114           5.8769254107         159.9192705647      PH        B1 (2)
  117    46           5.9261156801         161.2578058448     SG+        A1 (1)
  118   206           6.0265877902         163.9917909539      DE        A2 (4)
  119    47           6.0265877902         163.9917909539      DE        A1 (1)
  120   167           6.0963604558         165.8904017074      PI        B2 (3)
  121   115           6.0963604558         165.8904017074      PI        B1 (2)
  122    48           6.1282521590         166.7582190710     SG+        A1 (1)
  123   207           6.2373269666         169.7262954784      DE        A2 (4)
  124    49           6.2373269666         169.7262954784      DE        A1 (1)
  125   116           6.3297667378         172.2417095357      PH        B1 (2)
  126   168           6.3297667378         172.2417095357      PH        B2 (3)
  127   208           6.4574879921         175.7171815537      DE        A2 (4)
  128    50           6.4574879921         175.7171815537      DE        A1 (1)
  129   117           6.6735886257         181.5975787479      PI        B1 (2)
  130   169           6.6735886257         181.5975787479      PI        B2 (3)
  131   170           6.9495071648         189.1057039032      PI        B2 (3)
  132   118           6.9495071648         189.1057039032      PI        B1 (2)
  133    51           7.0397942975         191.5625416861     SG+        A1 (1)
  134    52           7.4014323927         201.4032145467     SG+        A1 (1)
  135    53           9.2736974372         252.3501364988     SG+        A1 (1)
  136   171           9.5825095929         260.7533424653      PI        B2 (3)
  137   119           9.5825095929         260.7533424654      PI        B1 (2)
  138    54          10.6418878305         289.5804898544     SG+        A1 (1)
  139   209          10.6846105240         290.7430334487      PI        A2 (4)
  140    55          10.6846105240         290.7430334487      PI        A1 (1)
  141   172          10.7241465795         291.8188642113      PH        B2 (3)
  142   120          10.7241465795         291.8188642113      PH        B1 (2)
  143   210          10.9124480631         296.9428080788      DE        A2 (4)
  144    56          10.9124480631         296.9428080788      DE        A1 (1)
  145   121          11.0015220142         299.3666335126      PI        B1 (2)
  146   173          11.0015220142         299.3666335126      PI        B2 (3)
  147    57          11.0911133593         301.8045379538     SG+        A1 (1)
  148   174          11.9190641079         324.3342232093      PH        B2 (3)
  149   122          11.9190641079         324.3342232093      PH        B1 (2)
  150   211          11.9729869973         325.8015396254      DE        A2 (4)
  151    58          11.9729869973         325.8015396255      DE        A1 (1)
  152   175          12.1665164875         331.0677447836      PI        B2 (3)
  153   123          12.1665164875         331.0677447836      PI        B1 (2)
  154    59          12.4518921191         338.8332105087     SG+        A1 (1)
  155   212          12.7245904046         346.2537081072      DE        A2 (4)
  156    60          12.7245904046         346.2537081072      DE        A1 (1)
  157   176          13.0858929136         356.0852492030      PI        B2 (3)
  158   124          13.0858929136         356.0852492030      PI        B1 (2)
  159    61          13.3068835414         362.0987099052     SG+        A1 (1)
  160    62          17.1588472302         466.9159706828     SG+        A1 (1)
  161   125          18.6532036882         507.5794771976      PI        B1 (2)
  162   177          18.6532036882         507.5794771977      PI        B2 (3)
  163    63          19.3490409038         526.5141704555     SG+        A1 (1)
  164    64          26.2298575074         713.7507091625      DE        A1 (1)
  165   213          26.2298575074         713.7507091626      DE        A2 (4)
  166   126          26.4297412756         719.1898230141      PI        B1 (2)
  167   178          26.4297412756         719.1898230141      PI        B2 (3)
  168    65          26.8323018897         730.1440542263     SG+        A1 (1)
  169   179          33.3236738518         906.7832654783      PI        B2 (3)
  170   127          33.3236738518         906.7832654791      PI        B1 (2)
  171    66          34.1101569601         928.1845588743     SG+        A1 (1)
  172    67          35.4898760933         965.7286251932     SG+        A1 (1)
  173    68          47.0852278024        1281.2541862083      DE        A1 (1)
  174   214          47.0852278024        1281.2541862084      DE        A2 (4)
  175   180          47.2580015392        1285.9555986001      PI        B2 (3)
  176   128          47.2580015392        1285.9555986002      PI        B1 (2)
  177    69          47.3899685383        1289.5466032097     SG+        A1 (1)
  178    70          63.6155091174        1731.0660087796     SG+        A1 (1)
  179   129          66.2508451352        1802.7771475489      PI        B1 (2)
  180   181          66.2508451352        1802.7771475490      PI        B2 (3)
  181    71          66.7730681221        1816.9875574656     SG+        A1 (1)
  182   182          98.4903850850        2680.0596297605      PH        B2 (3)
  183   130          98.4903850850        2680.0596297605      PH        B1 (2)
  184   215          98.5060450257        2680.4857584114      DE        A2 (4)
  185    72          98.5060450257        2680.4857584114      DE        A1 (1)
  186   131          98.5203755071        2680.8757106351      PI        B1 (2)
  187   183          98.5203755071        2680.8757106351      PI        B2 (3)
  188    73          98.5268540801        2681.0520015700     SG+        A1 (1)
  189   216         103.3251782586        2811.6210404671      DE        A2 (4)
  190    74         103.3251782587        2811.6210404699      DE        A1 (1)
  191   132         103.3314995185        2811.7930506951      PI        B1 (2)
  192   184         103.3314995185        2811.7930506951      PI        B2 (3)
  193   185         103.3377440707        2811.9629735979      PH        B2 (3)
  194   133         103.3377440707        2811.9629735979      PH        B1 (2)
  195    75         103.3433125879        2812.1145006558     SG+        A1 (1)
  196    76         114.9395552352        3127.6643053299      DE        A1 (1)
  197   217         114.9395552352        3127.6643053299      DE        A2 (4)
  198   134         115.0375585775        3130.3311118511      PI        B1 (2)
  199   186         115.0375585775        3130.3311118512      PI        B2 (3)
  200    77         115.2058367349        3134.9101933102     SG+        A1 (1)
  201   187         116.6482919650        3174.1613956145      PI        B2 (3)
  202   135         116.6482919650        3174.1613956154      PI        B1 (2)
  203    78         117.3160464880        3192.3319199563     SG+        A1 (1)
  204    79         121.7521021498        3313.0431313534     SG+        A1 (1)
  205    80         198.5703994752        5403.3752720109      DE        A1 (1)
  206   218         198.5703994752        5403.3752720111      DE        A2 (4)
  207   188         198.6643525972        5405.9318664358      PI        B2 (3)
  208   136         198.6643525972        5405.9318664358      PI        B1 (2)
  209    81         198.7347405850        5407.8472209572     SG+        A1 (1)
  210    82         216.1522324941        5881.8012711628     SG+        A1 (1)
  211   137         224.7418931459        6115.5378204348      PI        B1 (2)
  212   189         224.7418931459        6115.5378204349      PI        B2 (3)
  213    83         225.1538178177        6126.7468606108     SG+        A1 (1)
  214   190         395.2037876241       10754.0417861704      PI        B2 (3)
  215   138         395.2037876241       10754.0417861711      PI        B1 (2)
  216    84         395.7138333996       10767.9208373195     SG+        A1 (1)
  217    85         508.5110234021       13837.2884209206     SG+        A1 (1)
  218    86         894.9630567206       24353.1828652595     SG+        A1 (1)


  VSCF finished.

 @CHECKOUT-I, Total execution time (CPU/WALL):       50.76/       8.64 seconds.
--executable xvscf finished with status     0 in        8.67 seconds (walltime).
 --invoking executable--
/nfs/workspaces/public/cfour_mpi/bin/xvtran
 @GETMEM-I,  Allocated    3814 MB of main memory.
  Full RHF integral transformation
  Transformation of IIII integrals :
  1 pass through the AO integral file was required.
     4377147 AO integrals were read.
     8546965 MO integrals were written to HF2.
  Transformation of IIJJ integrals :
  1 pass through the AO integral file was required.
     9948295 AO integrals were read.
    14311157 MO integrals were written to HF2.
  Transformation of IJIJ integrals :
  1 pass through the AO integral file was required.
    18890118 AO integrals were read.
    26609615 MO integrals were written to HF2.
  Transformation of IJKL integrals :
  1 pass through the AO integral file was required.
    13942450 AO integrals were read.
    18038702 MO integrals were written to HF2.
  Summary of active molecular orbitals: 
------------------------------------------------------------------------
 
  Index      Eigenvalue    Symmetry    Index      Eigenvalue    Symmetry
------------------------------------------------------------------------
     1       -20.6283560        1       110         4.1372809        2
     2       -11.5361698        1       111         4.1532209        2
     3        -1.2341045        1       112         4.4631291        2
     4        -0.8132529        1       113         5.0000507        2
     5        -0.4969105        1       114         5.3542729        2
     6        -0.4794914        2       115         5.8769254        2
     7        -0.4794914        3       116         6.0963605        2
     8         0.0577973        1       117         6.3297667        2
     9         0.0686088        1       118         6.6735886        2
    10         0.1524478        1       119         6.9495072        2
    11         0.1653132        1       120         9.5825096        2
    12         0.2197387        1       121        10.7241466        2
    13         0.2882290        1       122        11.0015220        2
    14         0.3050295        1       123        11.9190641        2
    15         0.4091834        1       124        12.1665165        2
    16         0.5159376        1       125        13.0858929        2
    17         0.5506247        1       126        18.6532037        2
    18         0.6971630        1       127        26.4297413        2
    19         0.7311349        1       128        33.3236739        2
    20         0.8063744        1       129        47.2580015        2
    21         0.8469513        1       130        66.2508451        2
    22         0.9074218        1       131        98.4903851        2
    23         1.1515581        1       132        98.5203755        2
    24         1.3208602        1       133       103.3314995        2
    25         1.5761212        1       134       103.3377441        2
    26         1.5864807        1       135       115.0375586        2
    27         1.6571754        1       136       116.6482920        2
    28         1.8615015        1       137       198.6643526        2
    29         1.9222634        1       138       224.7418931        2
    30         2.0553235        1       139       395.2037876        2
    31         2.1129410        1       140        -0.0249140        3
    32         2.2205062        1       141         0.0811583        3
    33         2.2659853        1       142         0.1832140        3
    34         2.3535377        1       143         0.2798145        3
    35         2.5444152        1       144         0.4100510        3
    36         2.6484536        1       145         0.6238523        3
    37         2.7947731        1       146         0.7249461        3
    38         3.7230077        1       147         0.7674050        3
    39         3.7785154        1       148         0.8624629        3
    40         4.0560395        1       149         1.0570101        3
    41         4.1267160        1       150         1.4182792        3
    42         4.3032002        1       151         1.4520627        3
    43         4.3127752        1       152         1.6419020        3
    44         4.5597304        1       153         2.0146695        3
    45         4.8675674        1       154         2.1640505        3
    46         5.0725331        1       155         2.1952007        3
    47         5.8056157        1       156         2.1988156        3
    48         5.9261157        1       157         2.4622883        3
    49         6.0265878        1       158         2.6450994        3
    50         6.1282522        1       159         3.2446476        3
    51         6.2373270        1       160         3.8557247        3
    52         6.4574880        1       161         4.1372809        3
    53         7.0397943        1       162         4.1532209        3
    54         7.4014324        1       163         4.4631291        3
    55         9.2736974        1       164         5.0000507        3
    56        10.6418878        1       165         5.3542729        3
    57        10.6846105        1       166         5.8769254        3
    58        10.9124481        1       167         6.0963605        3
    59        11.0911134        1       168         6.3297667        3
    60        11.9729870        1       169         6.6735886        3
    61        12.4518921        1       170         6.9495072        3
    62        12.7245904        1       171         9.5825096        3
    63        13.3068835        1       172        10.7241466        3
    64        17.1588472        1       173        11.0015220        3
    65        19.3490409        1       174        11.9190641        3
    66        26.2298575        1       175        12.1665165        3
    67        26.8323019        1       176        13.0858929        3
    68        34.1101570        1       177        18.6532037        3
    69        35.4898761        1       178        26.4297413        3
    70        47.0852278        1       179        33.3236739        3
    71        47.3899685        1       180        47.2580015        3
    72        63.6155091        1       181        66.2508451        3
    73        66.7730681        1       182        98.4903851        3
    74        98.5060450        1       183        98.5203755        3
    75        98.5268541        1       184       103.3314995        3
    76       103.3251783        1       185       103.3377441        3
    77       103.3433126        1       186       115.0375586        3
    78       114.9395552        1       187       116.6482920        3
    79       115.2058367        1       188       198.6643526        3
    80       117.3160465        1       189       224.7418931        3
    81       121.7521021        1       190       395.2037876        3
    82       198.5703995        1       191         0.2197387        4
    83       198.7347406        1       192         0.5506247        4
    84       216.1522325        1       193         0.7311349        4
    85       225.1538178        1       194         0.8469513        4
    86       395.7138334        1       195         1.5864807        4
    87       508.5110234        1       196         1.6571754        4
    88       894.9630567        1       197         2.0553235        4
    89        -0.0249140        2       198         2.1129410        4
    90         0.0811583        2       199         2.2659853        4
    91         0.1832140        2       200         2.5444152        4
    92         0.2798145        2       201         3.7230077        4
    93         0.4100510        2       202         4.1267160        4
    94         0.6238523        2       203         4.3127752        4
    95         0.7249461        2       204         4.5597304        4
    96         0.7674050        2       205         5.8056157        4
    97         0.8624629        2       206         6.0265878        4
    98         1.0570101        2       207         6.2373270        4
    99         1.4182792        2       208         6.4574880        4
   100         1.4520627        2       209        10.6846105        4
   101         1.6419020        2       210        10.9124481        4
   102         2.0146695        2       211        11.9729870        4
   103         2.1640505        2       212        12.7245904        4
   104         2.1952007        2       213        26.2298575        4
   105         2.1988156        2       214        47.0852278        4
   106         2.4622883        2       215        98.5060450        4
   107         2.6450994        2       216       103.3251783        4
   108         3.2446476        2       217       114.9395552        4
   109         3.8557247        2       218       198.5703995        4
------------------------------------------------------------------------
  -20.6283560087289       -11.5361698419219       -1.23410447137020     
 -0.813252928961078      -0.496910457849713      -0.479491397246883     
 -0.479491397246887       5.779732162901185E-002  6.860881025491522E-002
  0.152447759035165       0.165313213865399       0.219738656992716     
  0.288228988877984       0.305029452589584       0.409183378409892     
  0.515937572275781       0.550624734048619       0.697163017841686     
  0.731134938024423       0.806374390264159       0.846951256752483     
  0.907421811603179        1.15155809871733        1.32086017332677     
   1.57612121267738        1.58648072792173        1.65717536428194     
   1.86150145904347        1.92226344750259        2.05532345030118     
   2.11294099324161        2.22050623230156        2.26598525289179     
   2.35353772813477        2.54441523011955        2.64845359926626     
   2.79477311507805        3.72300772035805        3.77851541435832     
   4.05603945881063        4.12671601993303        4.30320015904641     
   4.31277516031270        4.55973037016370        4.86756738939764     
   5.07253308475135        5.80561568661283        5.92611568012943     
[...]
 Convergence information after    20 iterations: 
 Largest element of residual vector : -0.19745588E-06.
 Largest element of DIIS residual   : -0.10307167E-06.
 Convergence information after    21 iterations: 
 Largest element of residual vector :  0.11538690E-06.
 Largest element of DIIS residual   :  0.52166551E-07.
 Perturbed amplitude equations converged in    21 iterations.
  Dominant contributions to perturbed wavefunction:
    7    0   46    0   0.2890285894 AA  
    7    0   22    0   0.2528207998 AA  
    7    7  140   22  -0.2226773949 ABAB
    7    7   22  140  -0.2226773949 ABAB
    7    0   36    0   0.2223565802 AA  
    7    0   28    0   0.2078964370 AA  
    7    7  140   46  -0.2068063488 ABAB
    7    7   46  140  -0.2068063488 ABAB
    7    0   32    0   0.2018761624 AA  
    7    7  140   32  -0.1875557423 ABAB
    7    7   32  140  -0.1875557423 ABAB
    7    0   25    0   0.1843240141 AA  
    7    0   54    0  -0.1823917791 AA  
    7    0   16    0  -0.1791180287 AA  
    7    0   56    0   0.1735821597 AA  
    7    0   39    0   0.1683610497 AA  
    7    0   24    0   0.1657401722 AA  
    7    7  140   36  -0.1538996292 ABAB
    7    7   36  140  -0.1538996292 ABAB
    7    7  140   28  -0.1493494870 ABAB
  norm of converged amps    1.56951223379108     
 Starting iterative solution of the perturbed Lambda equations.
 The DIIS procedure is used to accelerate convergence.
 Convergence criterion is 10**(-7).
 Maximum number of iterations is 100.
 Convergence information after     1 iterations: 
 Largest element of residual vector :  0.76751911E-01.
 Largest element of DIIS residual   :  0.76751911E-01.
 Convergence information after     2 iterations: 
 Largest element of residual vector :  0.19528297E-01.
 Largest element of DIIS residual   :  0.14809127E-01.
 Convergence information after     3 iterations: 
 Largest element of residual vector :  0.65700068E-02.
 Largest element of DIIS residual   :  0.56509172E-02.
 Convergence information after     4 iterations: 
 Largest element of residual vector :  0.30977218E-02.
 Largest element of DIIS residual   :  0.29550663E-02.
 Convergence information after     5 iterations: 
 Largest element of residual vector :  0.30774459E-02.
 Largest element of DIIS residual   :  0.27166681E-02.
 Convergence information after     6 iterations: 
 Largest element of residual vector :  0.18520034E-02.
 Largest element of DIIS residual   :  0.92485340E-03.
 Convergence information after     7 iterations: 
 Largest element of residual vector :  0.10119791E-02.
 Largest element of DIIS residual   :  0.49706241E-03.
 Convergence information after     8 iterations: 
 Largest element of residual vector :  0.38299240E-03.
 Largest element of DIIS residual   :  0.19037831E-03.
 Convergence information after     9 iterations: 
 Largest element of residual vector :  0.16313003E-03.
 Largest element of DIIS residual   :  0.96765795E-04.
 Convergence information after    10 iterations: 
 Largest element of residual vector :  0.11195927E-03.
 Largest element of DIIS residual   : -0.77884978E-04.
 Convergence information after    11 iterations: 
 Largest element of residual vector : -0.43450722E-04.
 Largest element of DIIS residual   : -0.18635789E-04.
 Convergence information after    12 iterations: 
 Largest element of residual vector :  0.24607648E-04.
 Largest element of DIIS residual   :  0.12683989E-04.
 Convergence information after    13 iterations: 
 Largest element of residual vector :  0.68433461E-05.
 Largest element of DIIS residual   :  0.53960936E-05.
 Convergence information after    14 iterations: 
 Largest element of residual vector :  0.67300813E-05.
 Largest element of DIIS residual   :  0.33840348E-05.
 Convergence information after    15 iterations: 
 Largest element of residual vector :  0.37317173E-05.
 Largest element of DIIS residual   :  0.18543062E-05.
 Convergence information after    16 iterations: 
 Largest element of residual vector :  0.15208092E-05.
 Largest element of DIIS residual   :  0.42778031E-06.
 Convergence information after    17 iterations: 
 Largest element of residual vector :  0.81916268E-06.
 Largest element of DIIS residual   :  0.39193034E-06.
 Convergence information after    18 iterations: 
 Largest element of residual vector :  0.18192898E-06.
 Largest element of DIIS residual   : -0.14623889E-06.
 Convergence information after    19 iterations: 
 Largest element of residual vector :  0.16382518E-06.
 Largest element of DIIS residual   :  0.74353372E-07.
 Perturbed Lambda equations converged in    19 iterations.
  Dominant contributions to perturbed wavefunction:
    7    7  140   22  -0.1558946531 ABAB
    7    7   22  140  -0.1558946531 ABAB
    7    7  140   46  -0.1398375336 ABAB
    7    7   46  140  -0.1398375336 ABAB
    7    7  140   32  -0.1321646071 ABAB
    7    7   32  140  -0.1321646071 ABAB
    7    7  140   36  -0.1039207145 ABAB
    7    7   36  140  -0.1039207145 ABAB
    7    7  140   28  -0.1012263670 ABAB
    7    7   28  140  -0.1012263670 ABAB
    7    7  140   56  -0.1010226579 ABAB
    7    7   56  140  -0.1010226579 ABAB
    7    7  140   39  -0.0990399573 ABAB
    7    7   39  140  -0.0990399573 ABAB
    7    6   22   89  -0.0979745816 ABAB
    6    7   89   22  -0.0979745816 ABAB
    7    7  140   45  -0.0975064810 ABAB
    7    7   45  140  -0.0975064810 ABAB
    7    7  140   16   0.0970289987 ABAB
    7    7   16  140   0.0970289987 ABAB
        The DBOC first-order density matrix is being calculated 
             (Symmetry block 3, perturbation   2)
 term   2.57394971565446     
 final tnorm  0.684502093963031     
  norm contr. I: |<0|L dT/dx|0>|^2   0.000000000000000E+000
  norm contr. II: <0|[nabla(1+L)e-T][nabla e^T]|0>   2.57394971565446     
  total norm contribution   2.57394971565446     
 oo  1.264769210115314E-002
 vv  -19.2273390233399     
 vo -2.657463428953854E-003
  Correlated perturbed 1-el contribution to DBOC  -19.2173487946677       cm**-1
  SUM_I |dc_I/dx|^2 contribution to DBOC   9.69017322352486       cm**-1
 
 
  The total diagonal Born-Oppenheimer correction (DBOC) is:      0.0041381119 a.u.
  The total diagonal Born-Oppenheimer correction (DBOC) is:        908.210584 cm-1
 
 Total CC energy including DBOC  -113.014527220265     
 First-order density matrix is being calculated  (Symmetry block 3, perturbation   2)
 Calculation of the contributions of <pq||rs> to dI(i,j)/dx required   1.3 seconds.
 Calculation of the contributions of <pq||rs> to dI(a,b)/dx required  13.0 seconds.
 Calculation of the contributions of <pq||rs> to dI(i,a)/dx required   8.7 seconds.
 First-order Z-vector equations are solved for 1 perturbation.
 Convergence reached after  20 iterations.
        U*G(pq,rs) contribution is being calculated
             (Symmetry block 3, perturbation   2)

 CCSD contribution to force constants 

        0.0000000000        0.0000000000        0.0000000000
        0.0000000000        0.0000000000        0.0000000000
        0.0000000000        0.0000000000        0.0000000000
        0.0000000000        0.0000000000        0.0000000000
        0.0000000000        0.0000000000        0.0000000000
        0.0000000000        0.0000000000        0.0000000000
        0.0000000000        0.0000000000        0.0000000000
        0.0000000000        0.0000000000        0.0000000000
        0.0000000000        0.0000000000        0.0000000000
        0.0000000000        0.0000000000        0.0000000000
        0.0000000000        0.0000000000        0.0000000000
        0.0000000000       -9.8276471379        9.8276471379

 CCSD contribution to dipole derivatives 

        0.0000000000        0.0000000000        0.0000000000
        0.0000000000        0.0000000000        0.0000000000
        0.0000000000        0.0000000000        0.0000000000
        0.0000000000        0.0000000000       -0.0559150511
        0.0000000000        0.0000000000        0.0000000000
        0.0000000000        0.0000000000        0.0000000000
 @CHECKOUT-I, Total execution time (CPU/WALL):     1074.13/     213.13 seconds.
--executable xsdcc finished with status     0 in      213.17 seconds (walltime).
 --invoking executable--
/nfs/workspaces/public/cfour_mpi/bin/xanti
 @GETMEM-I,  Allocated    3814 MB of main memory.
 CCSD MO derivative gammas will be sorted to Mulliken order.
 @CHECKOUT-I, Total execution time (CPU/WALL):        8.77/      14.70 seconds.
--executable xanti finished with status     0 in       14.73 seconds (walltime).
 --invoking executable--
/nfs/workspaces/public/cfour_mpi/bin/xbcktrn
 @GETMEM-I,  Allocated    3814 MB of main memory.
 CCSD MO derivative gammas will be transformed to the AO basis.
 @CHECKOUT-I, Total execution time (CPU/WALL):       17.33/       4.99 seconds.
--executable xbcktrn finished with status     0 in        5.02 seconds (walltime).
 --invoking executable--
/nfs/workspaces/public/cfour_mpi/bin/xvdint
 @GETMEM-I,  Allocated    3814 MB of main memory.
 One- and two-electron integral derivatives are calculated
 for RHF-CC/MBPT hessians and dipole derivatives.
 Spherical gaussians are used.
  magnet F F
                    8722  records have been written to the Sort file.
  Total length of Sort file :             178609116  words.
 Evaluation of 2el integral derivatives

                      Two-electron integral gradient
                      ------------------------------

                         C #1 z     0.0000000000
                         O #2 z     0.0000000000


 C #1       0.0000000000            0.0710164357            0.0000000000
 O #2       0.0000000000           -0.0710164357            0.0000000000


 Evaluation of 2e integral derivatives required  251.44 seconds.
  contribution to Hessian
        0.0000000000        0.0000000000        0.0000000000
        0.0000000000        0.0710164357       -0.0710164357
 @CHECKOUT-I, Total execution time (CPU/WALL):      251.43/      60.04 seconds.
--executable xvdint finished with status     0 in       60.07 seconds (walltime).
 --invoking executable--
/nfs/workspaces/public/cfour_mpi/bin/xanti
 @GETMEM-I,  Allocated    3814 MB of main memory.
 CCSD MO gammas will be sorted to Mulliken order.
 @CHECKOUT-I, Total execution time (CPU/WALL):       10.26/       8.86 seconds.
--executable xanti finished with status     0 in        8.89 seconds (walltime).
 --invoking executable--
/nfs/workspaces/public/cfour_mpi/bin/xbcktrn
 @GETMEM-I,  Allocated    3814 MB of main memory.
 CCSD MO gammas will be transformed to the AO basis.
 @CHECKOUT-I, Total execution time (CPU/WALL):       22.87/       3.51 seconds.
--executable xbcktrn finished with status     0 in        3.53 seconds (walltime).
 --invoking executable--
/nfs/workspaces/public/cfour_mpi/bin/xvdint
 @GETMEM-I,  Allocated    3814 MB of main memory.
 One- and two-electron integral derivatives are calculated
 for RHF-CC/MBPT hessians and dipole derivatives.
 Spherical gaussians are used.
  magnet F F

                     Kinetic energy integral gradient
                     --------------------------------

                         C #1 z    -0.3946820289
                         O #2 z     0.3946820289


 C #1       0.0000000000            0.0000000000           -0.3946820289
 O #2       0.0000000000            0.0000000000            0.3946820289



                   Nuclear attraction integral gradient
                   ------------------------------------

                         C #1 z    11.7987773926
                         O #2 z   -11.7987773926


 C #1       0.0000000000            0.0000000000           11.7987773926
 O #2       0.0000000000            0.0000000000          -11.7987773926



                      Reorthonormalization gradient
                      -----------------------------

                         C #1 z     0.0000000000
                         O #2 z     0.0000000000


 C #1       0.0000000000            0.0000000000            0.0000000000
 O #2       0.0000000000            0.0000000000            0.0000000000



                     Kinetic energy integral Hessian
                     -------------------------------


           Symmetry 1

           C #1 z      O #2 z

 C #1 z    0.419262
 O #2 z   -0.419262    0.419262


           Symmetry 2

           C #1 x      O #2 x

 C #1 x   -0.262995
 O #2 x    0.262995   -0.262995


           Symmetry 3

           C #1 y      O #2 y

 C #1 y   -0.262995
 O #2 y    0.262995   -0.262995




           C #1 x      C #1 y      C #1 z      O #2 x      O #2 y      O #2 z

 C #1 x   -0.262995
 C #1 y    0.000000   -0.262995
 C #1 z    0.000000    0.000000    0.419262

 O #2 x    0.262995    0.000000    0.000000   -0.262995
 O #2 y    0.000000    0.262995    0.000000    0.000000   -0.262995
 O #2 z    0.000000    0.000000   -0.419262    0.000000    0.000000    0.419262




                   Nuclear attraction integral Hessian
                   -----------------------------------


           Symmetry 1

           C #1 z      O #2 z

 C #1 z   -6.979870
 O #2 z    6.979870   -6.979870


           Symmetry 2

           C #1 x      O #2 x

 C #1 x    5.563915
 O #2 x   -5.563915    5.563915


           Symmetry 3

           C #1 y      O #2 y

 C #1 y    5.563915
 O #2 y   -5.563915    5.563915




           C #1 x      C #1 y      C #1 z      O #2 x      O #2 y      O #2 z

 C #1 x    5.563915
 C #1 y    0.000000    5.563915
 C #1 z    0.000000    0.000000   -6.979870

 O #2 x   -5.563915    0.000000    0.000000    5.563915
 O #2 y    0.000000   -5.563915    0.000000    0.000000    5.563915
 O #2 z    0.000000    0.000000    6.979870    0.000000    0.000000   -6.979870




                Highest order reorthonormalization Hessian
                ------------------------------------------


           Symmetry 1

           C #1 z      O #2 z

 C #1 z    0.000000
 O #2 z    0.000000    0.000000


           Symmetry 2

           C #1 x      O #2 x

 C #1 x    0.000000
 O #2 x    0.000000    0.000000


           Symmetry 3

           C #1 y      O #2 y

 C #1 y    0.000000
 O #2 y    0.000000    0.000000




           C #1 x      C #1 y      C #1 z      O #2 x      O #2 y      O #2 z




                Electronic contributions to dipole moment
                -----------------------------------------

                               au             Debye

                    z      0.59204811      1.50483647

  Conversion factor used: 1 a.u. =   2.54174691 Debye 



   Electronic contributions to static part of dipole moment derivatives
   --------------------------------------------------------------------


                     Total dipole moment derivatives
                     -------------------------------


           Symmetry 1
                              Ez

               C #1 z    -5.67614915
               O #2 z    -8.32385085

           Symmetry 2
                              Ex

               C #1 x    -5.68983262
               O #2 x    -8.31016738

           Symmetry 3
                              Ey

               C #1 y    -5.68983262
               O #2 y    -8.31016738



                       Ex          Ey          Ez

      C #1    x   -5.689833    0.000000    0.000000
      C #1    y    0.000000   -5.689833    0.000000
      C #1    z    0.000000    0.000000   -5.676149

      O #2    x   -8.310167    0.000000    0.000000
      O #2    y    0.000000   -8.310167    0.000000
      O #2    z    0.000000    0.000000   -8.323851

 Evaluation of 1e integral derivatives required    1.67 seconds.
                    8815  records have been written to the Sort file.
  Total length of Sort file :             180513570  words.
 Evaluation of 2el integral derivatives

                      Two-electron integral gradient
                      ------------------------------

                         C #1 z    -6.4451910649
                         O #2 z     6.4451910649


 C #1       0.0000000000            0.0000000000           -6.4451910649
 O #2       0.0000000000            0.0000000000            6.4451910649


 Evaluation of 2e integral derivatives required  546.80 seconds.

                            Molecular gradient
                            ------------------

                         C #1 z     0.5087174685
                         O #2 z    -0.5087174685


 C #1       0.0000000000            0.0000000000            0.5087174685
 O #2       0.0000000000            0.0000000000           -0.5087174685


  Molecular gradient norm 0.719E+00

                            Molecular hessian
                            -----------------


           Symmetry 1

           C #1 z      O #2 z

 C #1 z    8.065514
 O #2 z   -8.065514    8.065514


           Symmetry 2

           C #1 x      O #2 x

 C #1 x    9.983279
 O #2 x   -9.983279    9.983279


           Symmetry 3

           C #1 y      O #2 y

 C #1 y    9.983279
 O #2 y   -9.983279    9.983279




           C #1 x      C #1 y      C #1 z      O #2 x      O #2 y      O #2 z

 C #1 x    9.983279
 C #1 y    0.000000    9.983279
 C #1 z    0.000000    0.000000    8.065514

 O #2 x   -9.983279    0.000000    0.000000    9.983279
 O #2 y    0.000000   -9.983279    0.000000    0.000000    9.983279
 O #2 z    0.000000    0.000000   -8.065514    0.000000    0.000000    8.065514




                           Total dipole moment
                           -------------------

                               au             Debye

                    z      0.58846858      1.49573820

  Conversion factor used: 1 a.u. =   2.54174691 Debye 



                     Total dipole moment derivatives
                     -------------------------------


           Symmetry 1
                              Ez

               C #1 z     0.44227569
               O #2 z    -0.44227569

           Symmetry 2
                              Ex

               C #1 x     0.19199339
               O #2 x    -0.19199339

           Symmetry 3
                              Ey

               C #1 y     0.19199339
               O #2 y    -0.19199339



                       Ex          Ey          Ez

      C #1    x    0.191993    0.000000    0.000000
      C #1    y    0.000000    0.191993    0.000000
      C #1    z    0.000000    0.000000    0.442276

      O #2    x   -0.191993    0.000000    0.000000
      O #2    y    0.000000   -0.191993    0.000000
      O #2    z    0.000000    0.000000   -0.442276

 @CHECKOUT-I, Total execution time (CPU/WALL):      548.46/      97.39 seconds.
--executable xvdint finished with status     0 in       97.42 seconds (walltime).
 --invoking executable--
/nfs/workspaces/public/cfour_mpi/bin/xjoda
  @GTFLGS-I, Hessian will be transformed to curvilinear coordinates.
  @GTFLGS-I, Hessian will be transformed to curvilinear coordinates.
  igrd and ihes are                      0                     1
  gradient from JOBARC 
   0.000000000000000   0.000000000000000   0.508717468493724
   0.000000000000000   0.000000000000000  -0.508717468493724
 
  @PROJFCM-I, Projecting force constant matrix onto totally symmetric subspace.
  Largest difference between matrix elements of symmetrized
  and unsymmetrized FCM :     0.3659295089E-12.
  read isotopes from ZMAT file 
 
  Summary of diagonal Born-Oppenheimer correction at the correlated level
  The total diagonal Born-Oppenheimer correction (DBOC) is:      0.0041381119 a.u.
  The total diagonal Born-Oppenheimer correction (DBOC) is:        908.210584 cm-1
  The total diagonal Born-Oppenheimer correction (DBOC) is:            10.865 kJ/mole
  hellooooooo 
  readis is  F
 
 @CHECKOUT-I, Total execution time (CPU/WALL):        0.01/       0.01 seconds.
--executable xjoda finished with status     0 in        0.04 seconds (walltime).
  The final electronic energy is      -113.014527220265407 a.u. 
  This computation required                         2303.61 seconds (walltime).
