 --invoking executable--
/nfs/workspaces/public/cfour_mpi/bin/xjoda


   *************************************************************************
         <<<     CCCCCC     CCCCCC   |||     CCCCCC     CCCCCC   >>>
       <<<      CCC        CCC       |||    CCC        CCC         >>>
      <<<      CCC        CCC        |||   CCC        CCC            >>>
    <<<        CCC        CCC        |||   CCC        CCC              >>>
      <<<      CCC        CCC        |||   CCC        CCC            >>>
       <<<      CCC        CCC       |||    CCC        CCC         >>>
         <<<     CCCCCC     CCCCCC   |||     CCCCCC     CCCCCC   >>>
   *************************************************************************

     ****************************************************************
     * CFOUR Coupled-Cluster techniques for Computational Chemistry *
     ****************************************************************
 

   Department of Chemistry                Institut fuer Physikalische Chemie
   University of Florida                  Universitaet Mainz
   Gainesville, FL 32611, USA             D-55099 Mainz, Germany

   Department of Chemistry                Fakultaet fuer Chemie und Biowiss.
   Johns Hopkins University               Karlsruher Institut fuer Technologie
   Baltimore, MD 21218, USA               D-76131 Karlsruhe, Germany

   Department of Chemistry                Department of Physical Chemistry
   Southern Methodist University          Eotvos Lorand University
   Dallas, TX 75275, USA                  H-1053 Budapest, Hungary

 
                       Version 2.1
 
                     vincent.theory.phys.ucl.ac.uk                     
                     Wed 26 Feb 08:48:27 GMT 2025                      
                     integer*8 version is running
 
********************************************************************************
*                          Input from ZMAT file                                *
********************************************************************************
Carbon Monoxide DBOC calculation                                                
C                                                                               
O 1 r                                                                           
                                                                                
r=1.7689655172413794                                                            
                                                                                
                                                                                
*CFOUR(CALC=CCSD,BASIS=AUG-PCVQZ,SCF_CONV=10                                    
CC_CONV=14,DBOC=ON,MEMORY=500000000                                             
ZFIELD=-200)                                                                    
                                                                                
%isotopes                                                                       
12                                                                              
16                                                                              
********************************************************************************
  @GTFLGS-I, Hessian will be transformed to curvilinear coordinates.
    -------------------------------------------------------------------
                    CFOUR Control Parameters 
    -------------------------------------------------------------------
        External           Internal           Value            Units
          Name               Name
    -------------------------------------------------------------------
       ABCDTYPE             IABCDT         STANDARD    [  0]    ***   
       ANHARMONIC           IANHAR         OFF         [  0]    ***   
       ANH_ALGORIT          IANALG         STANDARD    [  0]    ***   
       ANH_DERIVAT          IANDER         SECOND      [  1]    ***   
       ANH_MODE             ANHMOD         VIBRATION   [  0]    ***   
       ANH_STEPSIZ          ICUBST             50000          x 10-6  
       ANH_SYMMETR          IANHSM         ABELIAN     [  0]    ***   
       AO_LADDERS           IAOLAD         SINGLEPASS  [  1]    ***   
       AV_SCF               IAVSCF         OFF         [  0]    ***   
       BASIS                IBASIS         AUG-PCVQZ   [ 52]    ***   
       BOTHVECTORS          BOTHVC         OFF         [  0]    ***   
       BOX_POTENT           IPIAB          OFF         [  0]    ***   
       BREIT                IBREIT         OFF         [  0]    ***   
       BRUCK_CONV           IBRTOL          10D-  4             ***   
       BRUECKNER            IBRKNR         OFF         [  0]    ***   
       BUFFERSIZE           IBUFFS              4096            ***   
       CACHE_RECS           ICHREC             10               ***   
       CALCLEVEL            ICLLVL         CCSD        [ 10]    ***   
       CCORBOPT             ICCORB         OFF         [  0]  x 0.01  
       CC_CONV              ICCCNV          10D- 14             ***   
       CC_EXPORDER          ICCEOR              5               ***   
       CC_EXTRAPOL          ICCEXT         DIIS        [  1]    ***   
       CC_GUESS             ICCGES         MP2         [  0]    ***   
       CC_MAXCYC            ICCCYC            100              cycles 
       CC_PROGRAM           ICCPRO         VCC         [  0]    ***   
       CHARGE               ICHRGE              0               ***   
       CHOLESKY             ICHOLE         OFF         [  0]    ***   
       CIS_CONV             ICISTL              5               ***   
       COMM_SIZE            IPSIZE            ***               ***   
       CONSTANT             ICONST         OLD         [  1]    ***   
       CONTINUUM            ICONTU         NONE        [  0]    ***   
       CONTRACTION          ICNTYP         GENERAL     [  1]    ***   
       COORDINATES          ICOORD         INTERNAL    [  0]    ***   
       CPHF_CONVER          ICPHFT          10D- 16             ***   
       CPHF_MAXCYC          ICPHFC             64              cycles 
       CUBIC                ICUBIC         OFF         [  0]    ***   
       CURVILINEAR          ICURVY         ON          [  1]    ***   
       DBOC                 IDBOC          ON          [  1]    ***   
       DCT                  IDCT           OFF         [  0]    ***   
       DERIV_LEV            IDRLVL         SECOND      [  2]    ***   
       DEVMEM_SIZE          IDVMEM          50000000           MByte  
       DIAG_MRCC            IEOMST          10D-  0             ***   
       DIFF_TYPE            IDIFTY         RELAXED     [  0]    ***   
       DIRECT               IDIRCT         OFF         [  0]    ***   
       DROPMO               IDRPMO      NONE         
       ECP                  IECP           OFF         [  0]    ***   
       EIGENVECTOR          IVEC                1               ***   
       EL_ANHARM            IELANH         OFF         [  0]    ***   
       EOMFOLLOW            IEOMSR         ENERGY      [  0]    ***   
       EOMIP                IEOMIP         OFF         [  0]    ***   
       EOMLEVEL             HBARFM         SAME        [  0]    ***   
       EOM_MRCC             IMRCCE         NEW         [  1]    ***   
       EOM_NONIT            EOMNON         OFF         [  0]    ***   
       EOM_NSING            IEOMSI          10D-  0             ***   
       EOM_NSTATES          IMRCCD         DAVIDSON    [  0]    ***   
       EOM_NTRIP            IEOMTR          10D-  0             ***   
       EOM_ORDER            IEXORD         ENERGY      [  0]    ***   
       EOM_PROPSTA          IEOMST              0               ***   
       ESTATE_CONV          IEXTOL          10D-  5             ***   
       ESTATE_DIAG          IEXDIG         ITERATIVE   [  0]    ***   
       ESTATE_LOCK          IESLOC         ON          [  1]    ***   
       ESTATE_MAXC          IEXMXC             40               ***   
       ESTATE_PROP          IEXPRP         OFF         [  0]    ***   
       EVAL_HESS            IRECAL              0            # of cyc.
       EXCITATION           IEXCIT              0               ***   
       EXCITE               IEXCIT         NONE        [  0]    ***   
       EXTERN_POT           IEXPOT         OFF         [  0]    ***   
       FCGRADNEW            IFCGNW         OFF         [  0]    ***   
       FC_FIELD             IFINFC              0             x 10-6  
       FD_CALTYPE           IFDCAL         GRADONLY    [  0]    ***   
       FD_PROJECT           IFDPRJ         OFF         [  1]    ***   
       FD_STEPSIZE          IDISFD              0            10-4 bohr
       FD_USEGROUP          IFDGRP         FULL        [  0]    ***   
       FILE_RECSIZ          IFLREC              4096           words  
       FINITE_PERT          IFIPER              0             x 10-6  
       FIXGEOM              IFIXGM         OFF         [  0]    ***   
       FOCK                 IFOCK          AO          [  1]    ***   
       FREQ_ALGORI          IVIALG         STANDARD    [  0]    ***   
       FROZEN_CORE          IFROCO         OFF         [  0]    ***   
       GAMMA_ABCD           IGABCD         STORE       [  0]    ***   
       GAMMA_ABCI           IGABCI         STORE       [  0]    ***   
       GENBAS_1             IGNBS1              0               ***   
       GENBAS_2             IGNBS2              0               ***   
       GENBAS_3             IGNBS3              0               ***   
       GENBAS_4             IGNBS4              0               ***   
       GEO_CONV             ICONTL              5              H/bohr 
       GEO_MAXCYC           IOPTCY             50               ***   
       GEO_MAXSTEP          IMXSTP            300            millibohr
       GEO_METHOD           INR            SINGLE_POINT[  5]    ***   
       GIAO                 IGIAO          OFF         [  1]    ***   
       GIMIC                IGIMIC         OFF         [  0]    ***   
       GRID                 IGRID          OFF         [  0]    ***   
       GRID_ALGO            IGALGO         SERIAL      [  0]    ***   
       GUESS                IGUESS         MOREAD      [  0]    ***   
       HBAR                 IHBAR          OFF         [  0]    ***   
       HESS_TYPE            IHESTP         SCF         [  0]    ***   
       HF2_FILE             IHF2Fl         USE         [  1]    ***   
       HFSTABILITY          ISTABL         OFF         [  0]    ***   
       INCORE               INCORE         OFF         [  0]    ***   
       INPUT_MRCC           IMRCC          ON          [  1]    ***   
       INTEGRALS            INTTYP         VMOL        [  1]    ***   
       JODA_PRINT           IJPRNT              0               ***   
       KEYWORD_OUT          IDMPKW         NO          [  0]    ***   
       LINDEP_TOL           ILINDP              8               ***   
       LINEQ_CONV           IZTACN          10D-  7           cycles  
       LINEQ_EXPOR          ILMAXD              5               ***   
       LINEQ_MAXCY          ILMAXC            100               ***   
       LINEQ_TYPE           ILTYPE         DIIS        [  1]    ***   
       LOCK_ORBOCC          ILOCOC         OFF         [  0]    ***   
       MEMORY_SIZE          IMEMSZ         500000000           words  
       MEM_UNIT             IMEMU          INTEGERWORDS[  0]    ***   
       MRCC                 IMRCCC         OFF         [  0]    ***   
       MULTIPLICTY          IMULTP              1               ***   
       NACOUPLING           IVCOUP         OFF         [  0]    ***   
       NEGEVAL              IDIE           ABORT       [  0]    ***   
       NEWNORM              INEWNO         OFF         [  0]    ***   
       NON-HF               INONHF         OFF         [  0]    ***   
       NTOP_TAMP            ITOPT2             15               ***   
       NUC_MODEL            INUCMO         POINT       [  0]    ***   
       OCCUPATION           IOCCU   ESTIMATED BY SCF 
       OPEN-SHELL           IOPEN          SPIN-ORBITAL[  0]    ***   
       OPTVIB               IOPTVB         OFF         [  0]    ***   
       ORBITALS             IORBTP         STANDARD    [  0]    ***   
       PARALLEL             IPARAL         ON          [  1]    ***   
       PARA_INT             IPINTS         ON          [  1]    ***   
       PARA_PRINT           IPPRIN              0               ***   
       PERT_ORB             IPTORB         STANDARD    [  0]    ***   
       POINTS               IGRDFD              0               ***   
       PRINT                IPRNT               0               ***   
       PROPS                IPROPS         OFF         [  0]    ***   
       PROP_INTEGR          IINTYP         INTERNAL    [  0]    ***   
       PSI                  IPSI           OFF         [  0]    ***   
       QC_ALG               IQCALG         FLM         [  0]    ***   
       QC_LINALG            IQCLIN         TRIDIAG     [  2]    ***   
       QC_MAXCYC            IQCMAX          10D-100           cycles  
       QC_MAXSCFCY          IQCMSC          10D- 15           cycles  
       QC_RTRUST            IQCRTR          10D-  0           x 10-3  
       QC_SKIPSCF           IQCSKI         OFF         [  0]    ***   
       QC_START             IQCSTA          10D-  1             ***   
       QRHFGUESS            IQGUES         OFF         [  0]    ***   
       QUARTIC              IQUART         OFF         [  0]    ***   
       RAMAN_INT            IRAMIN         OFF         [  0]    ***   
       RAMAN_ORB            IRAMRE         UNRELAXED   [  0]    ***   
       RDO                  IRDOFM         ON          [  1]    ***   
       REDUCE_REPR          REDREP         Ir          [  0]    ***   
       REFERENCE            IREFNC         RHF         [  0]    ***   
       RELATIVIST           IRELAT         OFF         [  0]    ***   
       RELAX_DENS           IRDENS         ON          [  1]    ***   
       RESET_FLAGS          IRESET         OFF         [  0]    ***   
       RESTART_CC           ICCRES         OFF         [  0]    ***   
       ROT_EVEC             ROTVEC              0               ***   
       SAVE_INTS            ISVINT         OFF         [  0]    ***   
       SCALE_ON             ISTCRT              0               ***   
       SCF_CONV             ISCFCV          10D- 10             ***   
       SCF_DAMPING          IDAMP               0             x 10-3  
       SCF_EXPORDE          IRPPOR              6               ***   
       SCF_EXPSTAR          IRPPLS              8               ***   
       SCF_EXTRAPO          IRPP           ON          [  1]    ***   
       SCF_MAXCYC           ISCFCY            150              cycles 
       SCF_NOSTOP           ISCFST         OFF         [  0]    ***   
       SCF_PRINT            ISCFPR              0               ***   
       SCF_PROG             ISCFPR         SCF         [  0]    ***   
       SD_FIELD             IFINSD              0             x 10-6  
       SOPERT               IPERSO         OFF         [  0]    ***   
       SPHERICAL            IDFGHI         ON          [  1]    ***   
       SPINORBIT            ISOCAL         OFF         [  0]    ***   
       SPINROTATIO          ISRCON         OFF         [  0]    ***   
       SPIN_FLIP            ISPFLP         OFF         [  0]    ***   
       SPIN_ORBIT           ISPORB         OFF         [  0]    ***   
       SPIN_SCAL            ISCSMP         OFF         [  0]    ***   
       STEEPSCALE           ISTPSC              1000          x 10-3  
       SUBGROUP             ISUBGP         DEFAULT     [  0]    ***   
       SUBGRPAXIS           ISBXYZ         X           [  0]    ***   
       SYMMETRY             ISYM           ON          [  0]    ***   
       SYM_CHECK            ISYMCK         OVERRIDE    [  1]    ***   
       T3_EXTRAPOL          IT3EXT         OFF         [  0]    ***   
       T4_EXTRAPOL          IT4EXP         OFF         [  0]    ***   
       TAMP_SUM             IEVERY              5               ***   
       TESTSUITE            ITESTS         OFF         [  0]    ***   
       THERMOCH             ITHERM         OFF         [  0]    ***   
       TOL_CHOLESK          ITOLCH          10D-  4             ***   
       TRANGRAD             IRESRM         OFF         [  0]    ***   
       TRANS_INV            ITRAIN         IGNORE      [  1]    ***   
       TREAT_PERT           ITREAT         SIMULTANEOUS[  0]    ***   
       TRIP_ALGORI          ITRALG         NORMAL      [  0]    ***   
       UIJ_THRESHO          IUIJTH              1               ***   
       UNITS                IUNITS         ANGSTROM    [  0]    ***   
       UNOS                 IUNOS          OFF         [  0]    ***   
       UPDATE_HESS          IHUPDT         ON          [  1]    ***   
       VIBPHASE             ISETPH         STANDARD    [  0]    ***   
       VIBRATION            IVIB           ANALYTIC    [  1]    ***   
       VIB_ALGORIT          IGEALG         STANDARD    [  0]    ***   
       VNATORB              IVNORB         OFF         [  0]    ***   
       VTRAN                IVTRAN         FULL/PARTIAL[  0]    ***   
       XFIELD               IXEFLD              0             x 10-6  
       XFORM_TOL            IXFTOL          10D- 11             ***   
       YFIELD               IYEFLD              0             x 10-6  
       ZFIELD               IZEFLD            ***             x 10-6  
       ZSCALE_EXP           IZEXPS         OFF         [  0]    ***   
    -------------------------------------------------------------------
   2 entries found in Z-matrix 
   Job Title : Carbon Monoxide DBOC calculation                                                
   There are  1 unique internal coordinates.
   Of these,  0 will be optimized.
   User supplied Z-matrix: 
--------------------------------------------------------------------------------
       SYMBOL    BOND      LENGTH    ANGLE     ANGLE     DIHED     ANGLE
                  TO      (ANGST)    WRT      (DEG)      WRT      (DEG)
--------------------------------------------------------------------------------
        C    
        O          1         r    
                  *Initial values for internal coordinates* 
                      Name             Value
                        r               1.7689655172
--------------------------------------------------------------------------------
  read isotopes from ZMAT file 
   Rotational constants (in cm-1): 
          0.7857308330             0.7857308330
   Rotational constants (in MHz): 
      23555.6210745930         23555.6210745930
********************************************************************************
   The full molecular point group is CXv .
   The largest Abelian subgroup of the full molecular point group is C2v .
   The computational point group is C2v .
********************************************************************************
--------------------------------------------------------------------------------
   Analysis of internal coordinates specified by Z-matrix 
--------------------------------------------------------------------------------
   *The nuclear repulsion energy is   14.358957567251460 a.u.
   *There is   1 degree of freedom within the tot. symm. molecular subspace.
   *Z-matrix requests optimization of   0 coordinates.
   *The optimization is constrained.
   *The following   1 parameters can have non-zero 
    derivatives within the totally symmetric subspace:
             r    [ 1]
   *The following   0 parameters are to be optimized:

   *The following coordinates must be varied in an  unconstrained optimization.
             r    [ 1]
--------------------------------------------------------------------------------


 ----------------------------------------------------------------
         Coordinates used in calculation (QCOMP) 
 ----------------------------------------------------------------
 Z-matrix   Atomic            Coordinates (in bohr)
  Symbol    Number           X              Y              Z
 ----------------------------------------------------------------
     C         6        -0.00000000     0.00000000     1.90994607
     O         8         0.00000000     0.00000000    -1.43291498
 ----------------------------------------------------------------
 
   Interatomic distance matrix (Angstroms) 
 
                 C             O    
                [ 1]        [ 2]
  C    [ 1]     0.00000
  O    [ 2]     1.76897     0.00000
 rotcon2
   Rotational constants (in cm-1): 
          0.7857308330             0.0000000000
   Rotational constants (in MHz): 
      23555.6210745930             0.0000000000
  ECPDATA file not present.   Using default ECPDATA. 
  @GTFLGS-I, Hessian will be transformed to curvilinear coordinates.
  There are  218 basis functions.
 @CHECKOUT-I, Total execution time (CPU/WALL):        0.12/       0.15 seconds.
--executable xjoda finished with status     0 in        0.18 seconds (walltime).
 --invoking executable--
/nfs/workspaces/public/cfour_mpi/bin/xvmol
 SERIAL VERSION OF MOLECULE STARTED
********************************************************************************
                    INPUT FROM MOL FILE
********************************************************************************
INTGRL        1    0    1    0    0    0    0    0    0                         
         *** CFOUR Program System (Release V0.1) ***                            
Carbon Monoxide DBOC calculation                                                
    2    2 X  Y       0.10E-08              0    0                              
   9999.00      3.00                                                            
          6.00000000    1    5    1    1    1    1    1                         
C #1  -0.000000000000000   0.000000000000000   1.909946068941928                
   16    9                                                                      
   33980.0000000000       9.100000000000000E-005 -1.900000000000000E-005        
  0.000000000000000E+000  0.000000000000000E+000  0.000000000000000E+000        
  0.000000000000000E+000  0.000000000000000E+000  0.000000000000000E+000        
  0.000000000000000E+000                                                        
   5089.00000000000       7.040000000000000E-004 -1.510000000000000E-004        
  0.000000000000000E+000  0.000000000000000E+000  0.000000000000000E+000        
  0.000000000000000E+000  0.000000000000000E+000  0.000000000000000E+000        
  0.000000000000000E+000                                                        
   1157.00000000000       3.693000000000000E-003 -7.850000000000000E-004        
  0.000000000000000E+000  0.000000000000000E+000  0.000000000000000E+000        
  0.000000000000000E+000  0.000000000000000E+000  0.000000000000000E+000        
  0.000000000000000E+000                                                        
   326.600000000000       1.536000000000000E-002 -3.324000000000000E-003        
  0.000000000000000E+000  0.000000000000000E+000  0.000000000000000E+000        
  0.000000000000000E+000  0.000000000000000E+000  0.000000000000000E+000        
  0.000000000000000E+000                                                        
   106.100000000000       5.292900000000000E-002 -1.151200000000000E-002        
  0.000000000000000E+000  0.000000000000000E+000  0.000000000000000E+000        
  0.000000000000000E+000  0.000000000000000E+000  0.000000000000000E+000        
  0.000000000000000E+000                                                        
   38.1100000000000       0.147043000000000      -3.416000000000000E-002        
  0.000000000000000E+000  0.000000000000000E+000  0.000000000000000E+000        
  0.000000000000000E+000  0.000000000000000E+000  0.000000000000000E+000        
  0.000000000000000E+000                                                        
   14.7500000000000       0.305631000000000      -7.717300000000001E-002        
  0.000000000000000E+000  0.000000000000000E+000  0.000000000000000E+000        
  0.000000000000000E+000  0.000000000000000E+000  0.000000000000000E+000        
  0.000000000000000E+000                                                        
   6.03500000000000       0.399345000000000      -0.141493000000000             
  0.000000000000000E+000  0.000000000000000E+000  0.000000000000000E+000        
  0.000000000000000E+000  0.000000000000000E+000  0.000000000000000E+000        
  0.000000000000000E+000                                                        
   2.53000000000000       0.217051000000000      -0.118019000000000             
  0.000000000000000E+000  0.000000000000000E+000  0.000000000000000E+000        
  0.000000000000000E+000  0.000000000000000E+000  0.000000000000000E+000        
  0.000000000000000E+000                                                        
  0.735500000000000       1.589400000000000E-002  0.273806000000000             
   1.00000000000000       0.000000000000000E+000  0.000000000000000E+000        
  0.000000000000000E+000  0.000000000000000E+000  0.000000000000000E+000        
  0.000000000000000E+000                                                        
  0.290500000000000      -3.084000000000000E-003  0.586510000000000             
  0.000000000000000E+000   1.00000000000000       0.000000000000000E+000        
  0.000000000000000E+000  0.000000000000000E+000  0.000000000000000E+000        
  0.000000000000000E+000                                                        
  0.111100000000000       9.779999999999999E-004  0.285430000000000             
  0.000000000000000E+000  0.000000000000000E+000   1.00000000000000             
  0.000000000000000E+000  0.000000000000000E+000  0.000000000000000E+000        
  0.000000000000000E+000                                                        
   7.21600000000000       0.000000000000000E+000  0.000000000000000E+000        
  0.000000000000000E+000  0.000000000000000E+000  0.000000000000000E+000        
   1.00000000000000       0.000000000000000E+000  0.000000000000000E+000        
  0.000000000000000E+000                                                        
   19.5700000000000       0.000000000000000E+000  0.000000000000000E+000        
  0.000000000000000E+000  0.000000000000000E+000  0.000000000000000E+000        
  0.000000000000000E+000   1.00000000000000       0.000000000000000E+000        
  0.000000000000000E+000                                                        
   53.0730000000000       0.000000000000000E+000  0.000000000000000E+000        
  0.000000000000000E+000  0.000000000000000E+000  0.000000000000000E+000        
  0.000000000000000E+000  0.000000000000000E+000   1.00000000000000             
  0.000000000000000E+000                                                        
  4.145000000000000E-002  0.000000000000000E+000  0.000000000000000E+000        
  0.000000000000000E+000  0.000000000000000E+000  0.000000000000000E+000        
  0.000000000000000E+000  0.000000000000000E+000  0.000000000000000E+000        
   1.00000000000000                                                             
   10    8                                                                      
   34.5100000000000       5.378000000000000E-003  0.000000000000000E+000        
  0.000000000000000E+000  0.000000000000000E+000  0.000000000000000E+000        
  0.000000000000000E+000  0.000000000000000E+000  0.000000000000000E+000        
   7.91500000000000       3.613200000000000E-002  0.000000000000000E+000        
  0.000000000000000E+000  0.000000000000000E+000  0.000000000000000E+000        
  0.000000000000000E+000  0.000000000000000E+000  0.000000000000000E+000        
   2.36800000000000       0.142493000000000       0.000000000000000E+000        
  0.000000000000000E+000  0.000000000000000E+000  0.000000000000000E+000        
  0.000000000000000E+000  0.000000000000000E+000  0.000000000000000E+000        
  0.813200000000000       0.342150000000000        1.00000000000000             
  0.000000000000000E+000  0.000000000000000E+000  0.000000000000000E+000        
  0.000000000000000E+000  0.000000000000000E+000  0.000000000000000E+000        
  0.289000000000000       0.463864000000000       0.000000000000000E+000        
   1.00000000000000       0.000000000000000E+000  0.000000000000000E+000        
  0.000000000000000E+000  0.000000000000000E+000  0.000000000000000E+000        
  0.100700000000000       0.250028000000000       0.000000000000000E+000        
  0.000000000000000E+000   1.00000000000000       0.000000000000000E+000        
  0.000000000000000E+000  0.000000000000000E+000  0.000000000000000E+000        
   8.18200000000000       0.000000000000000E+000  0.000000000000000E+000        
  0.000000000000000E+000  0.000000000000000E+000   1.00000000000000             
  0.000000000000000E+000  0.000000000000000E+000  0.000000000000000E+000        
   24.1860000000000       0.000000000000000E+000  0.000000000000000E+000        
  0.000000000000000E+000  0.000000000000000E+000  0.000000000000000E+000        
   1.00000000000000       0.000000000000000E+000  0.000000000000000E+000        
   71.4940000000000       0.000000000000000E+000  0.000000000000000E+000        
  0.000000000000000E+000  0.000000000000000E+000  0.000000000000000E+000        
  0.000000000000000E+000   1.00000000000000       0.000000000000000E+000        
  3.218000000000000E-002  0.000000000000000E+000  0.000000000000000E+000        
  0.000000000000000E+000  0.000000000000000E+000  0.000000000000000E+000        
  0.000000000000000E+000  0.000000000000000E+000   1.00000000000000             
    6    6                                                                      
   1.84800000000000        1.00000000000000       0.000000000000000E+000        
  0.000000000000000E+000  0.000000000000000E+000  0.000000000000000E+000        
  0.000000000000000E+000                                                        
  0.649000000000000       0.000000000000000E+000   1.00000000000000             
  0.000000000000000E+000  0.000000000000000E+000  0.000000000000000E+000        
  0.000000000000000E+000                                                        
  0.228000000000000       0.000000000000000E+000  0.000000000000000E+000        
   1.00000000000000       0.000000000000000E+000  0.000000000000000E+000        
  0.000000000000000E+000                                                        
   8.65600000000000       0.000000000000000E+000  0.000000000000000E+000        
  0.000000000000000E+000   1.00000000000000       0.000000000000000E+000        
  0.000000000000000E+000                                                        
   33.2130000000000       0.000000000000000E+000  0.000000000000000E+000        
  0.000000000000000E+000  0.000000000000000E+000   1.00000000000000             
  0.000000000000000E+000                                                        
  7.660000000000000E-002  0.000000000000000E+000  0.000000000000000E+000        
  0.000000000000000E+000  0.000000000000000E+000  0.000000000000000E+000        
   1.00000000000000                                                             
    4    4                                                                      
   1.41900000000000        1.00000000000000       0.000000000000000E+000        
  0.000000000000000E+000  0.000000000000000E+000                                
  0.485000000000000       0.000000000000000E+000   1.00000000000000             
  0.000000000000000E+000  0.000000000000000E+000                                
   24.6940000000000       0.000000000000000E+000  0.000000000000000E+000        
   1.00000000000000       0.000000000000000E+000                                
  0.187000000000000       0.000000000000000E+000  0.000000000000000E+000        
  0.000000000000000E+000   1.00000000000000                                     
    2    2                                                                      
   1.01100000000000        1.00000000000000       0.000000000000000E+000        
  0.424000000000000       0.000000000000000E+000   1.00000000000000             
          8.00000000    1    5    1    1    1    1    1                         
O #2   0.000000000000000   0.000000000000000  -1.432914983135683                
   16    9                                                                      
   61420.0000000000       9.000000000000001E-005 -2.000000000000000E-005        
  0.000000000000000E+000  0.000000000000000E+000  0.000000000000000E+000        
  0.000000000000000E+000  0.000000000000000E+000  0.000000000000000E+000        
  0.000000000000000E+000                                                        
   9199.00000000000       6.980000000000001E-004 -1.590000000000000E-004        
  0.000000000000000E+000  0.000000000000000E+000  0.000000000000000E+000        
  0.000000000000000E+000  0.000000000000000E+000  0.000000000000000E+000        
  0.000000000000000E+000                                                        
   2091.00000000000       3.664000000000000E-003 -8.290000000000000E-004        
  0.000000000000000E+000  0.000000000000000E+000  0.000000000000000E+000        
  0.000000000000000E+000  0.000000000000000E+000  0.000000000000000E+000        
  0.000000000000000E+000                                                        
   590.900000000000       1.521800000000000E-002 -3.508000000000000E-003        
  0.000000000000000E+000  0.000000000000000E+000  0.000000000000000E+000        
  0.000000000000000E+000  0.000000000000000E+000  0.000000000000000E+000        
  0.000000000000000E+000                                                        
   192.300000000000       5.242300000000000E-002 -1.215600000000000E-002        
  0.000000000000000E+000  0.000000000000000E+000  0.000000000000000E+000        
  0.000000000000000E+000  0.000000000000000E+000  0.000000000000000E+000        
  0.000000000000000E+000                                                        
   69.3200000000000       0.145921000000000      -3.626100000000000E-002        
  0.000000000000000E+000  0.000000000000000E+000  0.000000000000000E+000        
  0.000000000000000E+000  0.000000000000000E+000  0.000000000000000E+000        
  0.000000000000000E+000                                                        
   26.9700000000000       0.305258000000000      -8.299200000000000E-002        
  0.000000000000000E+000  0.000000000000000E+000  0.000000000000000E+000        
  0.000000000000000E+000  0.000000000000000E+000  0.000000000000000E+000        
  0.000000000000000E+000                                                        
   11.1000000000000       0.398508000000000      -0.152090000000000             
  0.000000000000000E+000  0.000000000000000E+000  0.000000000000000E+000        
  0.000000000000000E+000  0.000000000000000E+000  0.000000000000000E+000        
  0.000000000000000E+000                                                        
   4.68200000000000       0.216980000000000      -0.115331000000000             
  0.000000000000000E+000  0.000000000000000E+000  0.000000000000000E+000        
  0.000000000000000E+000  0.000000000000000E+000  0.000000000000000E+000        
  0.000000000000000E+000                                                        
   1.42800000000000       1.759400000000000E-002  0.288979000000000             
   1.00000000000000       0.000000000000000E+000  0.000000000000000E+000        
  0.000000000000000E+000  0.000000000000000E+000  0.000000000000000E+000        
  0.000000000000000E+000                                                        
  0.554700000000000      -2.502000000000000E-003  0.586128000000000             
  0.000000000000000E+000   1.00000000000000       0.000000000000000E+000        
  0.000000000000000E+000  0.000000000000000E+000  0.000000000000000E+000        
  0.000000000000000E+000                                                        
  0.206700000000000       9.540000000000000E-004  0.277624000000000             
  0.000000000000000E+000  0.000000000000000E+000   1.00000000000000             
  0.000000000000000E+000  0.000000000000000E+000  0.000000000000000E+000        
  0.000000000000000E+000                                                        
   12.9740000000000       0.000000000000000E+000  0.000000000000000E+000        
  0.000000000000000E+000  0.000000000000000E+000  0.000000000000000E+000        
   1.00000000000000       0.000000000000000E+000  0.000000000000000E+000        
  0.000000000000000E+000                                                        
   34.9000000000000       0.000000000000000E+000  0.000000000000000E+000        
  0.000000000000000E+000  0.000000000000000E+000  0.000000000000000E+000        
  0.000000000000000E+000   1.00000000000000       0.000000000000000E+000        
  0.000000000000000E+000                                                        
   93.8810000000000       0.000000000000000E+000  0.000000000000000E+000        
  0.000000000000000E+000  0.000000000000000E+000  0.000000000000000E+000        
  0.000000000000000E+000  0.000000000000000E+000   1.00000000000000             
  0.000000000000000E+000                                                        
  6.959000000000000E-002  0.000000000000000E+000  0.000000000000000E+000        
  0.000000000000000E+000  0.000000000000000E+000  0.000000000000000E+000        
  0.000000000000000E+000  0.000000000000000E+000  0.000000000000000E+000        
   1.00000000000000                                                             
   10    8                                                                      
   63.4200000000000       6.044000000000000E-003  0.000000000000000E+000        
  0.000000000000000E+000  0.000000000000000E+000  0.000000000000000E+000        
  0.000000000000000E+000  0.000000000000000E+000  0.000000000000000E+000        
   14.6600000000000       4.179900000000000E-002  0.000000000000000E+000        
  0.000000000000000E+000  0.000000000000000E+000  0.000000000000000E+000        
  0.000000000000000E+000  0.000000000000000E+000  0.000000000000000E+000        
   4.45900000000000       0.161143000000000       0.000000000000000E+000        
  0.000000000000000E+000  0.000000000000000E+000  0.000000000000000E+000        
  0.000000000000000E+000  0.000000000000000E+000  0.000000000000000E+000        
   1.53100000000000       0.356731000000000        1.00000000000000             
  0.000000000000000E+000  0.000000000000000E+000  0.000000000000000E+000        
  0.000000000000000E+000  0.000000000000000E+000  0.000000000000000E+000        
  0.530200000000000       0.448309000000000       0.000000000000000E+000        
   1.00000000000000       0.000000000000000E+000  0.000000000000000E+000        
  0.000000000000000E+000  0.000000000000000E+000  0.000000000000000E+000        
  0.175000000000000       0.244940000000000       0.000000000000000E+000        
  0.000000000000000E+000   1.00000000000000       0.000000000000000E+000        
  0.000000000000000E+000  0.000000000000000E+000  0.000000000000000E+000        
   14.4750000000000       0.000000000000000E+000  0.000000000000000E+000        
  0.000000000000000E+000  0.000000000000000E+000   1.00000000000000             
  0.000000000000000E+000  0.000000000000000E+000  0.000000000000000E+000        
   42.7300000000000       0.000000000000000E+000  0.000000000000000E+000        
  0.000000000000000E+000  0.000000000000000E+000  0.000000000000000E+000        
   1.00000000000000       0.000000000000000E+000  0.000000000000000E+000        
   126.140000000000       0.000000000000000E+000  0.000000000000000E+000        
  0.000000000000000E+000  0.000000000000000E+000  0.000000000000000E+000        
  0.000000000000000E+000   1.00000000000000       0.000000000000000E+000        
  5.348000000000000E-002  0.000000000000000E+000  0.000000000000000E+000        
  0.000000000000000E+000  0.000000000000000E+000  0.000000000000000E+000        
  0.000000000000000E+000  0.000000000000000E+000   1.00000000000000             
    6    6                                                                      
   3.77500000000000        1.00000000000000       0.000000000000000E+000        
  0.000000000000000E+000  0.000000000000000E+000  0.000000000000000E+000        
  0.000000000000000E+000                                                        
   1.30000000000000       0.000000000000000E+000   1.00000000000000             
  0.000000000000000E+000  0.000000000000000E+000  0.000000000000000E+000        
  0.000000000000000E+000                                                        
  0.444000000000000       0.000000000000000E+000  0.000000000000000E+000        
   1.00000000000000       0.000000000000000E+000  0.000000000000000E+000        
  0.000000000000000E+000                                                        
   14.9270000000000       0.000000000000000E+000  0.000000000000000E+000        
  0.000000000000000E+000   1.00000000000000       0.000000000000000E+000        
  0.000000000000000E+000                                                        
   57.5440000000000       0.000000000000000E+000  0.000000000000000E+000        
  0.000000000000000E+000  0.000000000000000E+000   1.00000000000000             
  0.000000000000000E+000                                                        
  0.154000000000000       0.000000000000000E+000  0.000000000000000E+000        
  0.000000000000000E+000  0.000000000000000E+000  0.000000000000000E+000        
   1.00000000000000                                                             
    4    4                                                                      
   2.66600000000000        1.00000000000000       0.000000000000000E+000        
  0.000000000000000E+000  0.000000000000000E+000                                
  0.859000000000000       0.000000000000000E+000   1.00000000000000             
  0.000000000000000E+000  0.000000000000000E+000                                
   26.4830000000000       0.000000000000000E+000  0.000000000000000E+000        
   1.00000000000000       0.000000000000000E+000                                
  0.324000000000000       0.000000000000000E+000  0.000000000000000E+000        
  0.000000000000000E+000   1.00000000000000                                     
    2    2                                                                      
   1.84600000000000        1.00000000000000       0.000000000000000E+000        
  0.714000000000000       0.000000000000000E+000   1.00000000000000             
FINISH                                                                          
 
********************************************************************************
 ONE- AND TWO-ELECTRON INTEGRALS OVER SYMMETRY-ADAPTED AOS ARE CALCULATED.

  SPHERICAL HARMONICS ARE USED.
  
  INTEGRALS LESS THAN  0.10E-13 ARE NEGLECTED.

  NUCLEAR REPULSION ENERGY :   14.3589575673 A.U.
  @MOLECU-I, ONE ELECTRON INTEGRALS (CPU/WALL):        0.07/       0.07 SECONDS.
  @TWOEL-I,    4363857 INTEGRALS OF SYMMETRY TYPE  I I I I
  @TWOEL-I,   18829869 INTEGRALS OF SYMMETRY TYPE  I J I J
  @TWOEL-I,    9917521 INTEGRALS OF SYMMETRY TYPE  I I J J
  @TWOEL-I,   13891592 INTEGRALS OF SYMMETRY TYPE  I J K L
  @TWOEL-I, TOTAL NUMBER OF 2-E INTEGRALS   47002839.
  @MOLECU-I, TWO ELECTRON INTEGRALS (CPU/WALL):      147.69/      21.12 SECONDS.
 @CHECKOUT-I, Total execution time (CPU/WALL):      147.78/      21.22 seconds.

Running with 14 threads/proc

--executable xvmol finished with status     0 in       21.25 seconds (walltime).
 --invoking executable--
/nfs/workspaces/public/cfour_mpi/bin/xvmol2ja
 @GETMEM-I,  Allocated    3814 MB of main memory.
 @CHECKOUT-I, Total execution time (CPU/WALL):        0.15/       0.03 seconds.
--executable xvmol2ja finished with status     0 in        0.06 seconds (walltime).
 --invoking executable--
/nfs/workspaces/public/cfour_mpi/bin/xvprop
 @GETMEM-I,  Allocated    3814 MB of main memory.
   Property integrals will be calculated.
    --------------------------------------------------------------
                                   Property evaluated at 
    Property type                X             Y             Z
    --------------------------------------------------------------
    Dipole moment               ----          ----          ----  
    Quadrupole moment           ----          ----          ----  
    Octopole moment             ----          ----          ----  
    Relativisitic corr.         ----          ----          ----  
    Second moment            0.0000000     0.0000000     0.0000000
    Electron density         0.0000000     0.0000000     1.9099461
    Electron density         0.0000000     0.0000000    -1.4329150
    Field gradient           0.0000000     0.0000000     1.9099461
    Field gradient           0.0000000     0.0000000    -1.4329150
    Potential                0.0000000     0.0000000     1.9099461
    Potential                0.0000000     0.0000000    -1.4329150
    --------------------------------------------------------------
 @CHECKOUT-I, Total execution time (CPU/WALL):        1.31/       1.31 seconds.
--executable xvprop finished with status     0 in        1.32 seconds (walltime).
 --invoking executable--
/nfs/workspaces/public/cfour_mpi/bin/xvscf
  There are  218 functions in the AO basis.

  There are 4 irreducible representations.

       Irrep        # of functions
         1                 86
         2                 52
         3                 52
         4                 28


  Parameters for SCF calculation: 
        SCF reference function:  RHF  
  Maximum number of iterations:  150
     Full symmetry point group: CXv 
     Computational point group: C2v 
        Initial density matrix: MOREAD                 
     SCF convergence tolerance: 10**(-10)
  DIIS convergence acceleration:  ON
          Latest start for DIIS:   8
                     DIIS order:   6

  Memory information:    2523578 words required.
  Fock matrices are constructed from AO integral file.
 @GETMEM-I,  Allocated      19 MB of main memory.
  Initialization and symmetry analysis required      0.001 seconds.

  Adding electric field perturbation to one-electron Hamiltonian.
  Field direction     : Z
  Field strength      : -0.0002000 a.u.

  @INITGES-I, Occupancies from core Hamiltonian:

          Alpha population by irrep:   5    1    1    0
           Beta population by irrep:   5    1    1    0


 total no. of electrons in initial guess :  0.000000000000000E+000
  --------------------------------------------------------------------
  Iteration         Total Energy            Largest Density Difference
  --------------------------------------------------------------------
       0            14.358956838561177              0.0000000000D+00
   current occupation vector 
     5  1  1  0
     5  1  1  0
       1           -93.745703325919777              0.1756529651D+02
   current occupation vector 
     5  1  1  0
     5  1  1  0
       2           -97.587937164019451              0.1756529140D+02
   current occupation vector 
     5  1  1  0
     5  1  1  0
       3           -99.747193262643719              0.6997006928D+01
   current occupation vector 
     5  1  1  0
     5  1  1  0
       4           -94.164408183426076              0.6995531906D+01
   current occupation vector 
     5  1  1  0
     5  1  1  0
       5           -99.768401487190545              0.7074887526D+01
   current occupation vector 
     5  1  1  0
     5  1  1  0
       6           -94.073240868743568              0.7074899371D+01
   current occupation vector 
     5  1  1  0
     5  1  1  0
       7           -99.766302313922409              0.7078178967D+01
   current occupation vector 
     5  1  1  0
     5  1  1  0
       8           -94.071216702913574              0.7078180055D+01
   current occupation vector 
     5  1  1  0
     5  1  1  0
       9          -106.761068393759302              0.6125557761D+01
   current occupation vector 
     5  1  1  0
     5  1  1  0
      10          -110.499835609003384              0.1336474207D+01
   current occupation vector 
     5  1  1  0
     5  1  1  0
      11          -112.137964419824470              0.9585339677D+00
   current occupation vector 
     5  1  1  0
     5  1  1  0
      12          -112.306710402973835              0.7451289332D+00
   current occupation vector 
     5  1  1  0
     5  1  1  0
      13          -112.411424951135558              0.1632235244D+00
   current occupation vector 
     5  1  1  0
     5  1  1  0
      14          -112.438405841263034              0.1517555079D+00
   current occupation vector 
     5  1  1  0
     5  1  1  0
      15          -112.440410117501500              0.5585957092D-01
   current occupation vector 
     5  1  1  0
     5  1  1  0
      16          -112.442764202545533              0.9421847292D-01
   current occupation vector 
     5  1  1  0
     5  1  1  0
      17          -112.444492577959863              0.1063460370D+00
   current occupation vector 
     5  1  1  0
     5  1  1  0
      18          -112.444855721869089              0.6259575772D-01
   current occupation vector 
     5  1  1  0
     5  1  1  0
      19          -112.444857540724286              0.2419592810D-02
   current occupation vector 
     5  1  1  0
     5  1  1  0
      20          -112.444857910438998              0.2915177373D-02
   current occupation vector 
     5  1  1  0
     5  1  1  0
      21          -112.444857937776248              0.8106172059D-03
   current occupation vector 
     5  1  1  0
     5  1  1  0
      22          -112.444857940821009              0.2014008406D-03
   current occupation vector 
     5  1  1  0
     5  1  1  0
      23          -112.444857940836442              0.1552328491D-04
   current occupation vector 
     5  1  1  0
     5  1  1  0
      24          -112.444857940837977              0.1093852624D-05
   current occupation vector 
     5  1  1  0
     5  1  1  0
      25          -112.444857940838290              0.1000932430D-06
   current occupation vector 
     5  1  1  0
     5  1  1  0
      26          -112.444857940837238              0.4425504985D-07
   current occupation vector 
     5  1  1  0
     5  1  1  0
      27          -112.444857940837437              0.1469579569D-07
   current occupation vector 
     5  1  1  0
     5  1  1  0
      28          -112.444857940836727              0.2288107126D-07
   current occupation vector 
     5  1  1  0
     5  1  1  0
      29          -112.444857940836812              0.4870293058D-08
   current occupation vector 
     5  1  1  0
     5  1  1  0
      30          -112.444857940839228              0.9701237591D-09
   current occupation vector 
     5  1  1  0
     5  1  1  0

  SCF has converged.

 Density matrix saved to file den.dat
 total electron number:   14.0000000000000     
     E(SCF)=      -112.444857940836897              0.7843969918D-10

  Eigenvector printing suppressed.

 @PUTMOS-I, Writing converged MOs to NEWMOS. 
 @PUTMOS-I, Symmetry   1 Full Blocks 21 Partial Blocksize   2
 @PUTMOS-I, Symmetry   2 Full Blocks 13 Partial Blocksize   0
 @PUTMOS-I, Symmetry   3 Full Blocks 13 Partial Blocksize   0
 @PUTMOS-I, Symmetry   4 Full Blocks  7 Partial Blocksize   0
 @PUTFOCK-I, Writing converged Fock matrix to NEWFOCK. 
 @PUTFOCK-I, Symmetry   1 Full Blocks 21 Partial Blocksize   2
 @PUTFOCK-I, Symmetry   2 Full Blocks 13 Partial Blocksize   0
 @PUTFOCK-I, Symmetry   3 Full Blocks 13 Partial Blocksize   0
 @PUTFOCK-I, Symmetry   4 Full Blocks  7 Partial Blocksize   0


 
  ORBITAL EIGENVALUES (ALPHA)  (1H = 27.2113834 eV)

       MO #        E(hartree)               E(eV)           FULLSYM    COMPSYM
       ----   --------------------   --------------------   -------   ---------
    1     1         -20.6246284996        -561.2246735861     SG+        A1 (1)
    2     2         -11.5349330481        -313.8814856660     SG+        A1 (1)
    3     3          -1.2261648003         -33.3656404924     SG+        A1 (1)
    4     4          -0.8140418414         -22.1512046496     SG+        A1 (1)
    5     5          -0.4892431988         -13.3129842588     SG+        A1 (1)
    6   139          -0.4777556470         -13.0003920825      PI        B2 (3)
    7    87          -0.4777556470         -13.0003920825      PI        B1 (2)
  +++++++++++++++++++++++++++++++++++++++++++++++++++++++++++++++++++++++++++++
    8   140          -0.0274223562          -0.7462002495      PI        B2 (3)
    9    88          -0.0274223562          -0.7462002495      PI        B1 (2)
   10     6           0.0554602091           1.5091490135     SG+        A1 (1)
   11     7           0.0691542271           1.8817821886     SG+        A1 (1)
   12   141           0.0803082196           2.1852977535      PI        B2 (3)
   13    89           0.0803082196           2.1852977535      PI        B1 (2)
   14     8           0.1479316674           4.0254253181     SG+        A1 (1)
   15     9           0.1629106631           4.4330245128     SG+        A1 (1)
   16   142           0.1845192293           5.0210234921      PI        B2 (3)
   17    90           0.1845192293           5.0210234921      PI        B1 (2)
   18    10           0.2186181320           5.9489018086      DE        A1 (1)
   19   191           0.2186181320           5.9489018086      DE        A2 (4)
   20   143           0.2779989368           7.5647356546      PI        B2 (3)
   21    91           0.2779989368           7.5647356546      PI        B1 (2)
   22    11           0.2853661882           7.7652087556     SG+        A1 (1)
   23    12           0.3060938365           8.3292367407     SG+        A1 (1)
   24    13           0.4074502925          11.0872861251     SG+        A1 (1)
   25   144           0.4109468000          11.1824309327      PI        B2 (3)
   26    92           0.4109468000          11.1824309327      PI        B1 (2)
   27    14           0.5169503691          14.0669346912     SG+        A1 (1)
   28   192           0.5506933836          14.9851287971      DE        A2 (4)
   29    15           0.5506933836          14.9851287971      DE        A1 (1)
   30   145           0.6248347008          17.0026166045      PI        B2 (3)
   31    93           0.6248347008          17.0026166045      PI        B1 (2)
   32    16           0.6963962699          18.9499058998     SG+        A1 (1)
   33    94           0.7231088704          19.6767927137      PH        B1 (2)
   34   146           0.7231088704          19.6767927137      PH        B2 (3)
   35    17           0.7296305300          19.8542560927      DE        A1 (1)
   36   193           0.7296305300          19.8542560927      DE        A2 (4)
   37    95           0.7653927073          20.8273944093      PI        B1 (2)
   38   147           0.7653927073          20.8273944093      PI        B2 (3)
   39    18           0.8028573507          21.8468591852     SG+        A1 (1)
   40    19           0.8439161078          22.9641247658      DE        A1 (1)
   41   194           0.8439161078          22.9641247658      DE        A2 (4)
   42    96           0.8570797768          23.3223264114      PI        B1 (2)
   43   148           0.8570797768          23.3223264114      PI        B2 (3)
   44    20           0.9126437031          24.8342977140     SG+        A1 (1)
   45   149           1.0603356372          28.8531995566      PI        B2 (3)
   46    97           1.0603356372          28.8531995566      PI        B1 (2)
   47    21           1.1556741792          31.4474931751     SG+        A1 (1)
   48    22           1.3105720468          35.6624784381     SG+        A1 (1)
   49   150           1.4180095718          38.5860021221      PH        B2 (3)
   50    98           1.4180095718          38.5860021221      PH        B1 (2)
   51   151           1.4472945295          39.3828863341      PI        B2 (3)
   52    99           1.4472945295          39.3828863341      PI        B1 (2)
   53    23           1.5759932627          42.8849569061     SG+        A1 (1)
   54   195           1.5841977404          43.1082120947      DE        A2 (4)
   55    24           1.5841977404          43.1082120947      DE        A1 (1)
   56   152           1.6427519005          44.7015517956      PI        B2 (3)
   57   100           1.6427519005          44.7015517956      PI        B1 (2)
   58    25           1.6547816578          45.0288981332      DE        A1 (1)
   59   196           1.6547816578          45.0288981332      DE        A2 (4)
   60    26           1.8390639414          50.0434740069     SG+        A1 (1)
   61    27           1.9226458271          52.3178527436     SG+        A1 (1)
   62   153           2.0004769249          54.4357445874      PI        B2 (3)
   63   101           2.0004769249          54.4357445875      PI        B1 (2)
   64   197           2.0526544442          55.8555670700      PI        A2 (4)
   65    28           2.0526544442          55.8555670701      PI        A1 (1)
   66    29           2.1113083387          57.4516206806      DE        A1 (1)
   67   198           2.1113083387          57.4516206806      DE        A2 (4)
   68   102           2.1561537520          58.6719264137      PH        B1 (2)
   69   154           2.1561537520          58.6719264137      PH        B2 (3)
   70   155           2.1927786979          59.6685418609      PH        B2 (3)
   71   103           2.1927786979          59.6685418609      PH        B1 (2)
   72   156           2.1947995246          59.7235313490      PI        B2 (3)
   73   104           2.1947995246          59.7235313490      PI        B1 (2)
   74    30           2.2231441668          60.4948282769     SG+        A1 (1)
   75    31           2.2629348981          61.5775891217      DE        A1 (1)
   76   199           2.2629348981          61.5775891217      DE        A2 (4)
   77    32           2.3485696227          63.9078284446     SG+        A1 (1)
   78   157           2.4525531897          66.7373651537      PI        B2 (3)
   79   105           2.4525531897          66.7373651537      PI        B1 (2)
   80    33           2.5256030297          68.7251523582      DE        A1 (1)
   81   200           2.5256030297          68.7251523582      DE        A2 (4)
   82    34           2.6317187376          71.6127075690     SG+        A1 (1)
   83   158           2.6587271108          72.3476427668      PI        B2 (3)
   84   106           2.6587271108          72.3476427668      PI        B1 (2)
   85    35           2.7952924816          76.0637754329     SG+        A1 (1)
   86   159           3.2149589929          87.4834817699      PI        B2 (3)
   87   107           3.2149589929          87.4834817699      PI        B1 (2)
   88    36           3.7261471400         101.3936184314      PI        A1 (1)
   89   201           3.7261471400         101.3936184314      PI        A2 (4)
   90    37           3.7414347859         101.8096164251     SG+        A1 (1)
   91   108           3.8451800511         104.6326686115      PH        B1 (2)
   92   160           3.8451800511         104.6326686115      PH        B2 (3)
   93    38           4.0538854427         110.3118310397     SG+        A1 (1)
   94    39           4.1137618248         111.9411502304      DE        A1 (1)
   95   202           4.1137618248         111.9411502304      DE        A2 (4)
   96   161           4.1308123800         112.4051194263      PI        B2 (3)
   97   109           4.1308123800         112.4051194263      PI        B1 (2)
   98   162           4.1560252620         113.0911968250      PH        B2 (3)
   99   110           4.1560252620         113.0911968250      PH        B1 (2)
  100    40           4.2860545389         116.6294733311     SG+        A1 (1)
  101    41           4.3141406751         117.3937359518      DE        A1 (1)
  102   203           4.3141406751         117.3937359519      DE        A2 (4)
  103   163           4.4538963197         121.1966803789      PI        B2 (3)
  104   111           4.4538963197         121.1966803789      PI        B1 (2)
  105    42           4.5415717453         123.5824499995      DE        A1 (1)
  106   204           4.5415717453         123.5824499995      DE        A2 (4)
  107    43           4.8373840237         131.6319113226     SG+        A1 (1)
  108   112           4.9706377376         135.2579292214      PI        B1 (2)
  109   164           4.9706377376         135.2579292214      PI        B2 (3)
  110    44           5.0926001211         138.5766943980     SG+        A1 (1)
  111   113           5.3507403327         145.6010466660      PI        B1 (2)
  112   165           5.3507403327         145.6010466660      PI        B2 (3)
  113   205           5.8022741532         157.8879065756      PI        A2 (4)
  114    45           5.8022741532         157.8879065756      PI        A1 (1)
  115   166           5.8741743543         159.8444105131      PH        B2 (3)
  116   114           5.8741743543         159.8444105131      PH        B1 (2)
  117    46           5.8995501444         160.5349208676     SG+        A1 (1)
  118    47           6.0167436815         163.7239191359      DE        A1 (1)
  119   206           6.0167436815         163.7239191359      DE        A2 (4)
  120   167           6.0930936454         165.8015072768      PI        B2 (3)
  121   115           6.0930936454         165.8015072768      PI        B1 (2)
  122    48           6.1172987498         166.4601616533     SG+        A1 (1)
  123    49           6.2307898378         169.5484111602      DE        A1 (1)
  124   207           6.2307898378         169.5484111602      DE        A2 (4)
  125   168           6.3267718788         172.1602152796      PH        B2 (3)
  126   116           6.3267718788         172.1602152796      PH        B1 (2)
  127    50           6.4524117011         175.5790486543      DE        A1 (1)
  128   208           6.4524117011         175.5790486543      DE        A2 (4)
  129   169           6.6511673214         180.9874640403      PI        B2 (3)
  130   117           6.6511673214         180.9874640403      PI        B1 (2)
  131   118           6.9023724250         187.8231024271      PI        B1 (2)
  132   170           6.9023724250         187.8231024271      PI        B2 (3)
  133    51           7.0220838941         191.0806171097     SG+        A1 (1)
  134    52           7.3478042632         199.9439189546     SG+        A1 (1)
  135    53           9.2250208142         251.0255782486     SG+        A1 (1)
  136   119           9.5618540197         260.1912757458      PI        B1 (2)
  137   171           9.5618540197         260.1912757459      PI        B2 (3)
  138    54          10.6177219063         288.9229016260     SG+        A1 (1)
  139   209          10.6907618159         290.9104186100      PI        A2 (4)
  140    55          10.6907618159         290.9104186100      PI        A1 (1)
  141   172          10.7220478216         291.7617541072      PH        B2 (3)
  142   120          10.7220478216         291.7617541072      PH        B1 (2)
  143    56          10.8999093830         296.6016132461      DE        A1 (1)
  144   210          10.8999093830         296.6016132461      DE        A2 (4)
  145   173          11.0055935145         299.4774246680      PI        B2 (3)
  146   121          11.0055935145         299.4774246680      PI        B1 (2)
  147    57          11.0660680966         301.1230217073     SG+        A1 (1)
  148   174          11.9247235453         324.4882243296      PH        B2 (3)
  149   122          11.9247235453         324.4882243296      PH        B1 (2)
  150   211          11.9712399591         325.7540003002      DE        A2 (4)
  151    58          11.9712399591         325.7540003005      DE        A1 (1)
  152   123          12.1380802628         330.2939557714      PI        B1 (2)
  153   175          12.1380802628         330.2939557714      PI        B2 (3)
  154    59          12.4204326029         337.9771535506     SG+        A1 (1)
  155    60          12.7253605539         346.2746649350      DE        A1 (1)
  156   212          12.7253605539         346.2746649350      DE        A2 (4)
  157   124          13.0723737036         355.7173727960      PI        B1 (2)
  158   176          13.0723737036         355.7173727960      PI        B2 (3)
  159    61          13.2941355098         361.7518183290     SG+        A1 (1)
  160    62          17.1217328728         465.9060376737     SG+        A1 (1)
  161   125          18.6453816665         507.3666291660      PI        B1 (2)
  162   177          18.6453816665         507.3666291661      PI        B2 (3)
  163    63          19.3095392774         525.4392765554     SG+        A1 (1)
  164    64          26.2288339301         713.7228562073      DE        A1 (1)
  165   213          26.2288339301         713.7228562073      DE        A2 (4)
  166   126          26.4124458152         718.7191896101      PI        B1 (2)
  167   178          26.4124458152         718.7191896101      PI        B2 (3)
  168    65          26.8009604875         729.2912113142     SG+        A1 (1)
  169   127          33.3103488265         906.4206731068      PI        B1 (2)
  170   179          33.3103488266         906.4206731071      PI        B2 (3)
  171    66          34.0486712071         926.5114464770     SG+        A1 (1)
  172    67          35.4831328309         965.5451316951     SG+        A1 (1)
  173    68          47.0887021120        1281.3487269772      DE        A1 (1)
  174   214          47.0887021120        1281.3487269773      DE        A2 (4)
  175   128          47.2527267799        1285.8120651024      PI        B1 (2)
  176   180          47.2527267799        1285.8120651026      PI        B2 (3)
  177    69          47.3816431775        1289.3200586246     SG+        A1 (1)
  178    70          63.5886961708        1730.3363914091     SG+        A1 (1)
  179   129          66.2454120877        1802.6293068097      PI        B1 (2)
  180   181          66.2454120877        1802.6293068097      PI        B2 (3)
  181    71          66.7452229915        1816.2298529414     SG+        A1 (1)
  182   182          98.4909448030        2680.0748604628      PH        B2 (3)
  183   130          98.4909448030        2680.0748604628      PH        B1 (2)
  184    72          98.5072794580        2680.5193490233      DE        A1 (1)
  185   215          98.5072794580        2680.5193490233      DE        A2 (4)
  186   183          98.5221725628        2680.9246110066      PI        B2 (3)
  187   131          98.5221725628        2680.9246110066      PI        B1 (2)
  188    73          98.5282845826        2681.0909275217     SG+        A1 (1)
  189    74         103.3283994717        2811.7086941337      DE        A1 (1)
  190   216         103.3283994718        2811.7086941358      DE        A2 (4)
  191   132         103.3309937478        2811.7792879754      PI        B1 (2)
  192   184         103.3309937478        2811.7792879754      PI        B2 (3)
  193    75         103.3424521663        2812.0910873920     SG+        A1 (1)
  194   133         103.3438395093        2812.1288389168      PH        B1 (2)
  195   185         103.3438395093        2812.1288389168      PH        B2 (3)
  196    76         114.9400472242        3127.6776930324      DE        A1 (1)
  197   217         114.9400472242        3127.6776930324      DE        A2 (4)
  198   134         115.0301837399        3130.1304323191      PI        B1 (2)
  199   186         115.0301837399        3130.1304323191      PI        B2 (3)
  200    77         115.1932871532        3134.5687018325     SG+        A1 (1)
  201   135         116.6384406856        3173.8933286749      PI        B1 (2)
  202   187         116.6384406856        3173.8933286749      PI        B2 (3)
  203    78         117.2708289894        3191.1014892672     SG+        A1 (1)
  204    79         121.7407352387        3312.7338219785     SG+        A1 (1)
  205    80         198.5742603723        5403.4803323634      DE        A1 (1)
  206   218         198.5742603723        5403.4803323634      DE        A2 (4)
  207   136         198.6633926420        5405.9057447250      PI        B1 (2)
  208   188         198.6633926420        5405.9057447252      PI        B2 (3)
  209    81         198.7326562021        5407.7905020169     SG+        A1 (1)
  210    82         216.1293296737        5881.1780537353     SG+        A1 (1)
  211   137         224.7381741682        6115.4366219073      PI        B1 (2)
  212   189         224.7381741682        6115.4366219074      PI        B2 (3)
  213    83         225.1317089514        6126.1452477730     SG+        A1 (1)
  214   190         395.1973600824       10753.8668838711      PI        B2 (3)
  215   138         395.1973600824       10753.8668838713      PI        B1 (2)
  216    84         395.6829490450       10767.0804313070     SG+        A1 (1)
  217    85         508.5029429447       13837.0685404968     SG+        A1 (1)
  218    86         894.9404757226       24352.5684050659     SG+        A1 (1)


  VSCF finished.

 @CHECKOUT-I, Total execution time (CPU/WALL):       52.22/       8.86 seconds.
--executable xvscf finished with status     0 in        8.89 seconds (walltime).
 --invoking executable--
/nfs/workspaces/public/cfour_mpi/bin/xvtran
 @GETMEM-I,  Allocated    3814 MB of main memory.
  Full RHF integral transformation
  Transformation of IIII integrals :
  1 pass through the AO integral file was required.
     4363857 AO integrals were read.
     8544509 MO integrals were written to HF2.
  Transformation of IIJJ integrals :
  1 pass through the AO integral file was required.
     9917521 AO integrals were read.
    14274411 MO integrals were written to HF2.
  Transformation of IJIJ integrals :
  1 pass through the AO integral file was required.
    18829869 AO integrals were read.
    26494465 MO integrals were written to HF2.
  Transformation of IJKL integrals :
  1 pass through the AO integral file was required.
    13891592 AO integrals were read.
    17942759 MO integrals were written to HF2.
  Summary of active molecular orbitals: 
------------------------------------------------------------------------
 
  Index      Eigenvalue    Symmetry    Index      Eigenvalue    Symmetry
------------------------------------------------------------------------
     1       -20.6246285        1       110         4.1308124        2
     2       -11.5349330        1       111         4.1560253        2
     3        -1.2261648        1       112         4.4538963        2
     4        -0.8140418        1       113         4.9706377        2
     5        -0.4892432        1       114         5.3507403        2
     6        -0.4777556        2       115         5.8741744        2
     7        -0.4777556        3       116         6.0930936        2
     8         0.0554602        1       117         6.3267719        2
     9         0.0691542        1       118         6.6511673        2
    10         0.1479317        1       119         6.9023724        2
    11         0.1629107        1       120         9.5618540        2
    12         0.2186181        1       121        10.7220478        2
    13         0.2853662        1       122        11.0055935        2
    14         0.3060938        1       123        11.9247235        2
    15         0.4074503        1       124        12.1380803        2
    16         0.5169504        1       125        13.0723737        2
    17         0.5506934        1       126        18.6453817        2
    18         0.6963963        1       127        26.4124458        2
    19         0.7296305        1       128        33.3103488        2
    20         0.8028574        1       129        47.2527268        2
    21         0.8439161        1       130        66.2454121        2
    22         0.9126437        1       131        98.4909448        2
    23         1.1556742        1       132        98.5221726        2
    24         1.3105720        1       133       103.3309937        2
    25         1.5759933        1       134       103.3438395        2
    26         1.5841977        1       135       115.0301837        2
    27         1.6547817        1       136       116.6384407        2
    28         1.8390639        1       137       198.6633926        2
    29         1.9226458        1       138       224.7381742        2
    30         2.0526544        1       139       395.1973601        2
    31         2.1113083        1       140        -0.0274224        3
    32         2.2231442        1       141         0.0803082        3
    33         2.2629349        1       142         0.1845192        3
    34         2.3485696        1       143         0.2779989        3
    35         2.5256030        1       144         0.4109468        3
    36         2.6317187        1       145         0.6248347        3
    37         2.7952925        1       146         0.7231089        3
    38         3.7261471        1       147         0.7653927        3
    39         3.7414348        1       148         0.8570798        3
    40         4.0538854        1       149         1.0603356        3
    41         4.1137618        1       150         1.4180096        3
    42         4.2860545        1       151         1.4472945        3
    43         4.3141407        1       152         1.6427519        3
    44         4.5415717        1       153         2.0004769        3
    45         4.8373840        1       154         2.1561538        3
    46         5.0926001        1       155         2.1927787        3
    47         5.8022742        1       156         2.1947995        3
    48         5.8995501        1       157         2.4525532        3
    49         6.0167437        1       158         2.6587271        3
    50         6.1172987        1       159         3.2149590        3
    51         6.2307898        1       160         3.8451801        3
    52         6.4524117        1       161         4.1308124        3
    53         7.0220839        1       162         4.1560253        3
    54         7.3478043        1       163         4.4538963        3
    55         9.2250208        1       164         4.9706377        3
    56        10.6177219        1       165         5.3507403        3
    57        10.6907618        1       166         5.8741744        3
    58        10.8999094        1       167         6.0930936        3
    59        11.0660681        1       168         6.3267719        3
    60        11.9712400        1       169         6.6511673        3
    61        12.4204326        1       170         6.9023724        3
    62        12.7253606        1       171         9.5618540        3
    63        13.2941355        1       172        10.7220478        3
    64        17.1217329        1       173        11.0055935        3
    65        19.3095393        1       174        11.9247235        3
    66        26.2288339        1       175        12.1380803        3
    67        26.8009605        1       176        13.0723737        3
    68        34.0486712        1       177        18.6453817        3
    69        35.4831328        1       178        26.4124458        3
    70        47.0887021        1       179        33.3103488        3
    71        47.3816432        1       180        47.2527268        3
    72        63.5886962        1       181        66.2454121        3
    73        66.7452230        1       182        98.4909448        3
    74        98.5072795        1       183        98.5221726        3
    75        98.5282846        1       184       103.3309937        3
    76       103.3283995        1       185       103.3438395        3
    77       103.3424522        1       186       115.0301837        3
    78       114.9400472        1       187       116.6384407        3
    79       115.1932872        1       188       198.6633926        3
    80       117.2708290        1       189       224.7381742        3
    81       121.7407352        1       190       395.1973601        3
    82       198.5742604        1       191         0.2186181        4
    83       198.7326562        1       192         0.5506934        4
    84       216.1293297        1       193         0.7296305        4
    85       225.1317090        1       194         0.8439161        4
    86       395.6829490        1       195         1.5841977        4
    87       508.5029429        1       196         1.6547817        4
    88       894.9404757        1       197         2.0526544        4
    89        -0.0274224        2       198         2.1113083        4
    90         0.0803082        2       199         2.2629349        4
    91         0.1845192        2       200         2.5256030        4
    92         0.2779989        2       201         3.7261471        4
    93         0.4109468        2       202         4.1137618        4
    94         0.6248347        2       203         4.3141407        4
    95         0.7231089        2       204         4.5415717        4
    96         0.7653927        2       205         5.8022742        4
    97         0.8570798        2       206         6.0167437        4
    98         1.0603356        2       207         6.2307898        4
    99         1.4180096        2       208         6.4524117        4
   100         1.4472945        2       209        10.6907618        4
   101         1.6427519        2       210        10.8999094        4
   102         2.0004769        2       211        11.9712400        4
   103         2.1561538        2       212        12.7253606        4
   104         2.1927787        2       213        26.2288339        4
   105         2.1947995        2       214        47.0887021        4
   106         2.4525532        2       215        98.5072795        4
   107         2.6587271        2       216       103.3283995        4
   108         3.2149590        2       217       114.9400472        4
   109         3.8451801        2       218       198.5742604        4
------------------------------------------------------------------------
  -20.6246284996352       -11.5349330481303       -1.22616480029416     
 -0.814041841385335      -0.489243198815452      -0.477755647018781     
 -0.477755647018812       5.546020910745601E-002  6.915422714726936E-002
  0.147931667381305       0.162910663073719       0.218618132019239     
  0.285366188168045       0.306093836475623       0.407450292479294     
  0.516950369056658       0.550693383603872       0.696396269946581     
  0.729630530018070       0.802857350692535       0.843916107764774     
  0.912643703148460        1.15567417917838        1.31057204677482     
   1.57599326266030        1.58419774037248        1.65478165778278     
   1.83906394141368        1.92264582709846        2.05265444424447     
   2.11130833872334        2.22314416682456        2.26293489810825     
   2.34856962269027        2.52560302972875        2.63171873757019     
   2.79529248163302        3.72614714000083        3.74143478589627     
   4.05388544265320        4.11376182478149        4.28605453889359     
   4.31414067510546        4.54157174528181        4.83738402372583     
   5.09260012109522        5.80227415323405        5.89955014443056     
[...]
 Convergence information after    22 iterations: 
 Largest element of residual vector :  0.15085629E-06.
 Largest element of DIIS residual   :  0.94994210E-07.
 Perturbed amplitude equations converged in    22 iterations.
  Dominant contributions to perturbed wavefunction:
    7    0   46    0   0.3425032994 AA  
    7    0   22    0   0.2888839945 AA  
    7    0   32    0   0.2328541874 AA  
    7    0   36    0   0.2300659322 AA  
    7    7  140   46  -0.2271412480 ABAB
    7    7   46  140  -0.2271412480 ABAB
    7    0   28    0   0.2242187483 AA  
    7    7  140   22  -0.2237604548 ABAB
    7    7   22  140  -0.2237604548 ABAB
    7    0   54    0  -0.2083459987 AA  
    7    0   16    0  -0.2035851913 AA  
    7    0   25    0   0.1998339631 AA  
    7    0   56    0   0.1890316341 AA  
    7    7  140   32  -0.1887661580 ABAB
    7    7   32  140  -0.1887661580 ABAB
    7    0   24    0   0.1794175502 AA  
    7    0   37    0   0.1775217029 AA  
    7    0   39    0   0.1717037047 AA  
    7    0   63    0  -0.1602773277 AA  
    7    7  140   36  -0.1529516410 ABAB
  norm of converged amps    1.56926824864174     
 Starting iterative solution of the perturbed Lambda equations.
 The DIIS procedure is used to accelerate convergence.
 Convergence criterion is 10**(-7).
 Maximum number of iterations is 100.
 Convergence information after     1 iterations: 
 Largest element of residual vector :  0.75832192E-01.
 Largest element of DIIS residual   :  0.75832192E-01.
 Convergence information after     2 iterations: 
 Largest element of residual vector :  0.21275537E-01.
 Largest element of DIIS residual   :  0.14896730E-01.
 Convergence information after     3 iterations: 
 Largest element of residual vector :  0.67031367E-02.
 Largest element of DIIS residual   :  0.55221327E-02.
 Convergence information after     4 iterations: 
 Largest element of residual vector :  0.29355559E-02.
 Largest element of DIIS residual   :  0.28322581E-02.
 Convergence information after     5 iterations: 
 Largest element of residual vector :  0.29540476E-02.
 Largest element of DIIS residual   :  0.26240414E-02.
 Convergence information after     6 iterations: 
 Largest element of residual vector :  0.18213433E-02.
 Largest element of DIIS residual   :  0.97122785E-03.
 Convergence information after     7 iterations: 
 Largest element of residual vector :  0.10473675E-02.
 Largest element of DIIS residual   :  0.50312682E-03.
 Convergence information after     8 iterations: 
 Largest element of residual vector :  0.39620788E-03.
 Largest element of DIIS residual   :  0.19447446E-03.
 Convergence information after     9 iterations: 
 Largest element of residual vector :  0.15931661E-03.
 Largest element of DIIS residual   :  0.99183874E-04.
 Convergence information after    10 iterations: 
 Largest element of residual vector :  0.11794540E-03.
 Largest element of DIIS residual   :  0.83281700E-04.
 Convergence information after    11 iterations: 
 Largest element of residual vector :  0.41027801E-04.
 Largest element of DIIS residual   : -0.21975909E-04.
 Convergence information after    12 iterations: 
 Largest element of residual vector :  0.31423132E-04.
 Largest element of DIIS residual   :  0.15798270E-04.
 Convergence information after    13 iterations: 
 Largest element of residual vector :  0.94240929E-05.
 Largest element of DIIS residual   :  0.69215273E-05.
 Convergence information after    14 iterations: 
 Largest element of residual vector :  0.84714298E-05.
 Largest element of DIIS residual   :  0.40471098E-05.
 Convergence information after    15 iterations: 
 Largest element of residual vector :  0.47647161E-05.
 Largest element of DIIS residual   :  0.25219968E-05.
 Convergence information after    16 iterations: 
 Largest element of residual vector :  0.19150953E-05.
 Largest element of DIIS residual   :  0.56890490E-06.
 Convergence information after    17 iterations: 
 Largest element of residual vector :  0.11219911E-05.
 Largest element of DIIS residual   :  0.55872507E-06.
 Convergence information after    18 iterations: 
 Largest element of residual vector :  0.28029948E-06.
 Largest element of DIIS residual   : -0.18209881E-06.
 Convergence information after    19 iterations: 
 Largest element of residual vector :  0.25416841E-06.
 Largest element of DIIS residual   :  0.12898283E-06.
 Convergence information after    20 iterations: 
 Largest element of residual vector :  0.89574810E-07.
 Largest element of DIIS residual   :  0.68180856E-07.
 Perturbed Lambda equations converged in    20 iterations.
  Dominant contributions to perturbed wavefunction:
    7    7  140   22  -0.1478660586 ABAB
    7    7   22  140  -0.1478660586 ABAB
    7    7  140   46  -0.1456958350 ABAB
    7    7   46  140  -0.1456958350 ABAB
    7    7  140   32  -0.1255520096 ABAB
    7    7   32  140  -0.1255520096 ABAB
    7    0   46    0   0.0995651943 AA  
    7    7  140   36  -0.0986424047 ABAB
    7    7   36  140  -0.0986424047 ABAB
    7    6   22   89  -0.0938108631 ABAB
    6    7   89   22  -0.0938108631 ABAB
    7    6   46   89  -0.0935394760 ABAB
    6    7   89   46  -0.0935394760 ABAB
    7    7  140   16   0.0928258868 ABAB
    7    7   16  140   0.0928258868 ABAB
    7    7  140   56  -0.0921389126 ABAB
    7    7   56  140  -0.0921389126 ABAB
    7    7  140   28  -0.0904080187 ABAB
    7    7   28  140  -0.0904080187 ABAB
    7    7  140   39  -0.0858580581 ABAB
        The DBOC first-order density matrix is being calculated 
             (Symmetry block 3, perturbation   2)
 term   2.59966250221032     
 final tnorm  0.641625657714916     
  norm contr. I: |<0|L dT/dx|0>|^2   0.000000000000000E+000
  norm contr. II: <0|[nabla(1+L)e-T][nabla e^T]|0>   2.59966250221032     
  total norm contribution   2.59966250221032     
 oo  1.370042686075056E-002
 vv  -19.4212304604538     
 vo -2.511641079646254E-002
  Correlated perturbed 1-el contribution to DBOC  -19.4326464443895       cm**-1
  SUM_I |dc_I/dx|^2 contribution to DBOC   9.78697439810507       cm**-1
 
 
  The total diagonal Born-Oppenheimer correction (DBOC) is:      0.0041355461 a.u.
  The total diagonal Born-Oppenheimer correction (DBOC) is:        907.647466 cm-1
 
 Total CC energy including DBOC  -113.001741889445     
 First-order density matrix is being calculated  (Symmetry block 3, perturbation   2)
 Calculation of the contributions of <pq||rs> to dI(i,j)/dx required   1.4 seconds.
 Calculation of the contributions of <pq||rs> to dI(a,b)/dx required  13.0 seconds.
 Calculation of the contributions of <pq||rs> to dI(i,a)/dx required   8.7 seconds.
 First-order Z-vector equations are solved for 1 perturbation.
 Convergence reached after  20 iterations.
        U*G(pq,rs) contribution is being calculated
             (Symmetry block 3, perturbation   2)

 CCSD contribution to force constants 

        0.0000000000        0.0000000000        0.0000000000
        0.0000000000        0.0000000000        0.0000000000
        0.0000000000        0.0000000000        0.0000000000
        0.0000000000        0.0000000000        0.0000000000
        0.0000000000        0.0000000000        0.0000000000
        0.0000000000        0.0000000000        0.0000000000
        0.0000000000        0.0000000000        0.0000000000
        0.0000000000        0.0000000000        0.0000000000
        0.0000000000        0.0000000000        0.0000000000
        0.0000000000        0.0000000000        0.0000000000
        0.0000000000        0.0000000000        0.0000000000
        0.0000000000      -11.1619171984       11.1619171984

 CCSD contribution to dipole derivatives 

        0.0000000000        0.0000000000        0.0000000000
        0.0000000000        0.0000000000        0.0000000000
        0.0000000000        0.0000000000        0.0000000000
        0.0000000000        0.0000000000       -0.0549700186
        0.0000000000        0.0000000000        0.0000000000
        0.0000000000        0.0000000000        0.0000000000
 @CHECKOUT-I, Total execution time (CPU/WALL):     1099.23/     216.85 seconds.
--executable xsdcc finished with status     0 in      216.89 seconds (walltime).
 --invoking executable--
/nfs/workspaces/public/cfour_mpi/bin/xanti
 @GETMEM-I,  Allocated    3814 MB of main memory.
 CCSD MO derivative gammas will be sorted to Mulliken order.
 @CHECKOUT-I, Total execution time (CPU/WALL):        9.23/      20.38 seconds.
--executable xanti finished with status     0 in       20.41 seconds (walltime).
 --invoking executable--
/nfs/workspaces/public/cfour_mpi/bin/xbcktrn
 @GETMEM-I,  Allocated    3814 MB of main memory.
 CCSD MO derivative gammas will be transformed to the AO basis.
 @CHECKOUT-I, Total execution time (CPU/WALL):       16.94/       3.32 seconds.
--executable xbcktrn finished with status     0 in        3.35 seconds (walltime).
 --invoking executable--
/nfs/workspaces/public/cfour_mpi/bin/xvdint
 @GETMEM-I,  Allocated    3814 MB of main memory.
 One- and two-electron integral derivatives are calculated
 for RHF-CC/MBPT hessians and dipole derivatives.
 Spherical gaussians are used.
  magnet F F
                    8722  records have been written to the Sort file.
  Total length of Sort file :             178609116  words.
 Evaluation of 2el integral derivatives

                      Two-electron integral gradient
                      ------------------------------

                         C #1 z     0.0000000000
                         O #2 z     0.0000000000


 C #1       0.0000000000            0.0612379449            0.0000000000
 O #2       0.0000000000           -0.0612379449            0.0000000000


 Evaluation of 2e integral derivatives required  289.03 seconds.
  contribution to Hessian
        0.0000000000        0.0000000000        0.0000000000
        0.0000000000        0.0612379449       -0.0612379449
 @CHECKOUT-I, Total execution time (CPU/WALL):      289.02/      65.91 seconds.
--executable xvdint finished with status     0 in       65.94 seconds (walltime).
 --invoking executable--
/nfs/workspaces/public/cfour_mpi/bin/xanti
 @GETMEM-I,  Allocated    3814 MB of main memory.
 CCSD MO gammas will be sorted to Mulliken order.
 @CHECKOUT-I, Total execution time (CPU/WALL):       10.25/       8.85 seconds.
--executable xanti finished with status     0 in        8.88 seconds (walltime).
 --invoking executable--
/nfs/workspaces/public/cfour_mpi/bin/xbcktrn
 @GETMEM-I,  Allocated    3814 MB of main memory.
 CCSD MO gammas will be transformed to the AO basis.
 @CHECKOUT-I, Total execution time (CPU/WALL):       22.71/       4.51 seconds.
--executable xbcktrn finished with status     0 in        4.54 seconds (walltime).
 --invoking executable--
/nfs/workspaces/public/cfour_mpi/bin/xvdint
 @GETMEM-I,  Allocated    3814 MB of main memory.
 One- and two-electron integral derivatives are calculated
 for RHF-CC/MBPT hessians and dipole derivatives.
 Spherical gaussians are used.
  magnet F F

                     Kinetic energy integral gradient
                     --------------------------------

                         C #1 z    -0.3697719626
                         O #2 z     0.3697719626


 C #1       0.0000000000            0.0000000000           -0.3697719626
 O #2       0.0000000000            0.0000000000            0.3697719626



                   Nuclear attraction integral gradient
                   ------------------------------------

                         C #1 z    11.4300156070
                         O #2 z   -11.4300156070


 C #1       0.0000000000            0.0000000000           11.4300156070
 O #2       0.0000000000            0.0000000000          -11.4300156070



                      Reorthonormalization gradient
                      -----------------------------

                         C #1 z     0.0000000000
                         O #2 z     0.0000000000


 C #1       0.0000000000            0.0000000000            0.0000000000
 O #2       0.0000000000            0.0000000000            0.0000000000



                     Kinetic energy integral Hessian
                     -------------------------------


           Symmetry 1

           C #1 z      O #2 z

 C #1 z    0.394253
 O #2 z   -0.394253    0.394253


           Symmetry 2

           C #1 x      O #2 x

 C #1 x   -0.239216
 O #2 x    0.239216   -0.239216


           Symmetry 3

           C #1 y      O #2 y

 C #1 y   -0.239216
 O #2 y    0.239216   -0.239216




           C #1 x      C #1 y      C #1 z      O #2 x      O #2 y      O #2 z

 C #1 x   -0.239216
 C #1 y    0.000000   -0.239216
 C #1 z    0.000000    0.000000    0.394253

 O #2 x    0.239216    0.000000    0.000000   -0.239216
 O #2 y    0.000000    0.239216    0.000000    0.000000   -0.239216
 O #2 z    0.000000    0.000000   -0.394253    0.000000    0.000000    0.394253




                   Nuclear attraction integral Hessian
                   -----------------------------------


           Symmetry 1

           C #1 z      O #2 z

 C #1 z   -6.725891
 O #2 z    6.725891   -6.725891


           Symmetry 2

           C #1 x      O #2 x

 C #1 x    5.247037
 O #2 x   -5.247037    5.247037


           Symmetry 3

           C #1 y      O #2 y

 C #1 y    5.247037
 O #2 y   -5.247037    5.247037




           C #1 x      C #1 y      C #1 z      O #2 x      O #2 y      O #2 z

 C #1 x    5.247037
 C #1 y    0.000000    5.247037
 C #1 z    0.000000    0.000000   -6.725891

 O #2 x   -5.247037    0.000000    0.000000    5.247037
 O #2 y    0.000000   -5.247037    0.000000    0.000000    5.247037
 O #2 z    0.000000    0.000000    6.725891    0.000000    0.000000   -6.725891




                Highest order reorthonormalization Hessian
                ------------------------------------------


           Symmetry 1

           C #1 z      O #2 z

 C #1 z    0.000000
 O #2 z    0.000000    0.000000


           Symmetry 2

           C #1 x      O #2 x

 C #1 x    0.000000
 O #2 x    0.000000    0.000000


           Symmetry 3

           C #1 y      O #2 y

 C #1 y    0.000000
 O #2 y    0.000000    0.000000




           C #1 x      C #1 y      C #1 z      O #2 x      O #2 y      O #2 z




                Electronic contributions to dipole moment
                -----------------------------------------

                               au             Debye

                    z      0.59232331      1.50553595

  Conversion factor used: 1 a.u. =   2.54174691 Debye 



   Electronic contributions to static part of dipole moment derivatives
   --------------------------------------------------------------------


                     Total dipole moment derivatives
                     -------------------------------


           Symmetry 1
                              Ez

               C #1 z    -5.68521148
               O #2 z    -8.31478852

           Symmetry 2
                              Ex

               C #1 x    -5.69852231
               O #2 x    -8.30147769

           Symmetry 3
                              Ey

               C #1 y    -5.69852231
               O #2 y    -8.30147769



                       Ex          Ey          Ez

      C #1    x   -5.698522    0.000000    0.000000
      C #1    y    0.000000   -5.698522    0.000000
      C #1    z    0.000000    0.000000   -5.685211

      O #2    x   -8.301478    0.000000    0.000000
      O #2    y    0.000000   -8.301478    0.000000
      O #2    z    0.000000    0.000000   -8.314789

 Evaluation of 1e integral derivatives required    1.61 seconds.
                    8815  records have been written to the Sort file.
  Total length of Sort file :             180513570  words.
 Evaluation of 2el integral derivatives

                      Two-electron integral gradient
                      ------------------------------

                         C #1 z    -6.2727304964
                         O #2 z     6.2727304964


 C #1       0.0000000000            0.0000000000           -6.2727304964
 O #2       0.0000000000            0.0000000000            6.2727304964


 Evaluation of 2e integral derivatives required  555.65 seconds.

                            Molecular gradient
                            ------------------

                         C #1 z     0.4921035143
                         O #2 z    -0.4921035143


 C #1       0.0000000000            0.0000000000            0.4921035143
 O #2       0.0000000000            0.0000000000           -0.4921035143


  Molecular gradient norm 0.696E+00

                            Molecular hessian
                            -----------------


           Symmetry 1

           C #1 z      O #2 z

 C #1 z    6.734780
 O #2 z   -6.734780    6.734780


           Symmetry 2

           C #1 x      O #2 x

 C #1 x   11.322398
 O #2 x  -11.322398   11.322398


           Symmetry 3

           C #1 y      O #2 y

 C #1 y   11.322398
 O #2 y  -11.322398   11.322398




           C #1 x      C #1 y      C #1 z      O #2 x      O #2 y      O #2 z

 C #1 x   11.322398
 C #1 y    0.000000   11.322398
 C #1 z    0.000000    0.000000    6.734780

 O #2 x  -11.322398    0.000000    0.000000   11.322398
 O #2 y    0.000000  -11.322398    0.000000    0.000000   11.322398
 O #2 z    0.000000    0.000000   -6.734780    0.000000    0.000000    6.734780




                           Total dipole moment
                           -------------------

                               au             Debye

                    z      0.58867986      1.49627522

  Conversion factor used: 1 a.u. =   2.54174691 Debye 



                     Total dipole moment derivatives
                     -------------------------------


           Symmetry 1
                              Ez

               C #1 z     0.37022450
               O #2 z    -0.37022450

           Symmetry 2
                              Ex

               C #1 x     0.19256785
               O #2 x    -0.19256785

           Symmetry 3
                              Ey

               C #1 y     0.19256785
               O #2 y    -0.19256785



                       Ex          Ey          Ez

      C #1    x    0.192568    0.000000    0.000000
      C #1    y    0.000000    0.192568    0.000000
      C #1    z    0.000000    0.000000    0.370224

      O #2    x   -0.192568    0.000000    0.000000
      O #2    y    0.000000   -0.192568    0.000000
      O #2    z    0.000000    0.000000   -0.370224

 @CHECKOUT-I, Total execution time (CPU/WALL):      557.25/      97.75 seconds.
--executable xvdint finished with status     0 in       97.78 seconds (walltime).
 --invoking executable--
/nfs/workspaces/public/cfour_mpi/bin/xjoda
  @GTFLGS-I, Hessian will be transformed to curvilinear coordinates.
  @GTFLGS-I, Hessian will be transformed to curvilinear coordinates.
  igrd and ihes are                      0                     1
  gradient from JOBARC 
   0.000000000000000   0.000000000000000   0.492103514305180
   0.000000000000000   0.000000000000000  -0.492103514305180
 
  @PROJFCM-I, Projecting force constant matrix onto totally symmetric subspace.
  Largest difference between matrix elements of symmetrized
  and unsymmetrized FCM :     0.3392841563E-12.
  read isotopes from ZMAT file 
 
  Summary of diagonal Born-Oppenheimer correction at the correlated level
  The total diagonal Born-Oppenheimer correction (DBOC) is:      0.0041355461 a.u.
  The total diagonal Born-Oppenheimer correction (DBOC) is:        907.647466 cm-1
  The total diagonal Born-Oppenheimer correction (DBOC) is:            10.858 kJ/mole
  hellooooooo 
  readis is  F
 
 @CHECKOUT-I, Total execution time (CPU/WALL):        0.01/       0.01 seconds.
--executable xjoda finished with status     0 in        0.04 seconds (walltime).
  The final electronic energy is      -113.001741889444546 a.u. 
  This computation required                         2287.44 seconds (walltime).
