 --invoking executable--
/nfs/workspaces/public/cfour_mpi/bin/xjoda


   *************************************************************************
         <<<     CCCCCC     CCCCCC   |||     CCCCCC     CCCCCC   >>>
       <<<      CCC        CCC       |||    CCC        CCC         >>>
      <<<      CCC        CCC        |||   CCC        CCC            >>>
    <<<        CCC        CCC        |||   CCC        CCC              >>>
      <<<      CCC        CCC        |||   CCC        CCC            >>>
       <<<      CCC        CCC       |||    CCC        CCC         >>>
         <<<     CCCCCC     CCCCCC   |||     CCCCCC     CCCCCC   >>>
   *************************************************************************

     ****************************************************************
     * CFOUR Coupled-Cluster techniques for Computational Chemistry *
     ****************************************************************
 

   Department of Chemistry                Institut fuer Physikalische Chemie
   University of Florida                  Universitaet Mainz
   Gainesville, FL 32611, USA             D-55099 Mainz, Germany

   Department of Chemistry                Fakultaet fuer Chemie und Biowiss.
   Johns Hopkins University               Karlsruher Institut fuer Technologie
   Baltimore, MD 21218, USA               D-76131 Karlsruhe, Germany

   Department of Chemistry                Department of Physical Chemistry
   Southern Methodist University          Eotvos Lorand University
   Dallas, TX 75275, USA                  H-1053 Budapest, Hungary

 
                       Version 2.1
 
                     vincent.theory.phys.ucl.ac.uk                     
                     Mon 24 Feb 19:12:20 GMT 2025                      
                     integer*8 version is running
 
********************************************************************************
*                          Input from ZMAT file                                *
********************************************************************************
Carbon Monoxide DBOC calculation                                                
C                                                                               
O 1 r                                                                           
                                                                                
r=1.0551724137931036                                                            
                                                                                
                                                                                
*CFOUR(CALC=CCSD,BASIS=AUG-PCVQZ,SCF_CONV=10                                    
CC_CONV=14,DBOC=ON,MEMORY=500000000                                             
ZFIELD=200)                                                                     
                                                                                
%isotopes                                                                       
12                                                                              
16                                                                              
********************************************************************************
  @GTFLGS-I, Hessian will be transformed to curvilinear coordinates.
    -------------------------------------------------------------------
                    CFOUR Control Parameters 
    -------------------------------------------------------------------
        External           Internal           Value            Units
          Name               Name
    -------------------------------------------------------------------
       ABCDTYPE             IABCDT         STANDARD    [  0]    ***   
       ANHARMONIC           IANHAR         OFF         [  0]    ***   
       ANH_ALGORIT          IANALG         STANDARD    [  0]    ***   
       ANH_DERIVAT          IANDER         SECOND      [  1]    ***   
       ANH_MODE             ANHMOD         VIBRATION   [  0]    ***   
       ANH_STEPSIZ          ICUBST             50000          x 10-6  
       ANH_SYMMETR          IANHSM         ABELIAN     [  0]    ***   
       AO_LADDERS           IAOLAD         SINGLEPASS  [  1]    ***   
       AV_SCF               IAVSCF         OFF         [  0]    ***   
       BASIS                IBASIS         AUG-PCVQZ   [ 52]    ***   
       BOTHVECTORS          BOTHVC         OFF         [  0]    ***   
       BOX_POTENT           IPIAB          OFF         [  0]    ***   
       BREIT                IBREIT         OFF         [  0]    ***   
       BRUCK_CONV           IBRTOL          10D-  4             ***   
       BRUECKNER            IBRKNR         OFF         [  0]    ***   
       BUFFERSIZE           IBUFFS              4096            ***   
       CACHE_RECS           ICHREC             10               ***   
       CALCLEVEL            ICLLVL         CCSD        [ 10]    ***   
       CCORBOPT             ICCORB         OFF         [  0]  x 0.01  
       CC_CONV              ICCCNV          10D- 14             ***   
       CC_EXPORDER          ICCEOR              5               ***   
       CC_EXTRAPOL          ICCEXT         DIIS        [  1]    ***   
       CC_GUESS             ICCGES         MP2         [  0]    ***   
       CC_MAXCYC            ICCCYC            100              cycles 
       CC_PROGRAM           ICCPRO         VCC         [  0]    ***   
       CHARGE               ICHRGE              0               ***   
       CHOLESKY             ICHOLE         OFF         [  0]    ***   
       CIS_CONV             ICISTL              5               ***   
       COMM_SIZE            IPSIZE            ***               ***   
       CONSTANT             ICONST         OLD         [  1]    ***   
       CONTINUUM            ICONTU         NONE        [  0]    ***   
       CONTRACTION          ICNTYP         GENERAL     [  1]    ***   
       COORDINATES          ICOORD         INTERNAL    [  0]    ***   
       CPHF_CONVER          ICPHFT          10D- 16             ***   
       CPHF_MAXCYC          ICPHFC             64              cycles 
       CUBIC                ICUBIC         OFF         [  0]    ***   
       CURVILINEAR          ICURVY         ON          [  1]    ***   
       DBOC                 IDBOC          ON          [  1]    ***   
       DCT                  IDCT           OFF         [  0]    ***   
       DERIV_LEV            IDRLVL         SECOND      [  2]    ***   
       DEVMEM_SIZE          IDVMEM          50000000           MByte  
       DIAG_MRCC            IEOMST          10D-  0             ***   
       DIFF_TYPE            IDIFTY         RELAXED     [  0]    ***   
       DIRECT               IDIRCT         OFF         [  0]    ***   
       DROPMO               IDRPMO      NONE         
       ECP                  IECP           OFF         [  0]    ***   
       EIGENVECTOR          IVEC                1               ***   
       EL_ANHARM            IELANH         OFF         [  0]    ***   
       EOMFOLLOW            IEOMSR         ENERGY      [  0]    ***   
       EOMIP                IEOMIP         OFF         [  0]    ***   
       EOMLEVEL             HBARFM         SAME        [  0]    ***   
       EOM_MRCC             IMRCCE         NEW         [  1]    ***   
       EOM_NONIT            EOMNON         OFF         [  0]    ***   
       EOM_NSING            IEOMSI          10D-  0             ***   
       EOM_NSTATES          IMRCCD         DAVIDSON    [  0]    ***   
       EOM_NTRIP            IEOMTR          10D-  0             ***   
       EOM_ORDER            IEXORD         ENERGY      [  0]    ***   
       EOM_PROPSTA          IEOMST              0               ***   
       ESTATE_CONV          IEXTOL          10D-  5             ***   
       ESTATE_DIAG          IEXDIG         ITERATIVE   [  0]    ***   
       ESTATE_LOCK          IESLOC         ON          [  1]    ***   
       ESTATE_MAXC          IEXMXC             40               ***   
       ESTATE_PROP          IEXPRP         OFF         [  0]    ***   
       EVAL_HESS            IRECAL              0            # of cyc.
       EXCITATION           IEXCIT              0               ***   
       EXCITE               IEXCIT         NONE        [  0]    ***   
       EXTERN_POT           IEXPOT         OFF         [  0]    ***   
       FCGRADNEW            IFCGNW         OFF         [  0]    ***   
       FC_FIELD             IFINFC              0             x 10-6  
       FD_CALTYPE           IFDCAL         GRADONLY    [  0]    ***   
       FD_PROJECT           IFDPRJ         OFF         [  1]    ***   
       FD_STEPSIZE          IDISFD              0            10-4 bohr
       FD_USEGROUP          IFDGRP         FULL        [  0]    ***   
       FILE_RECSIZ          IFLREC              4096           words  
       FINITE_PERT          IFIPER              0             x 10-6  
       FIXGEOM              IFIXGM         OFF         [  0]    ***   
       FOCK                 IFOCK          AO          [  1]    ***   
       FREQ_ALGORI          IVIALG         STANDARD    [  0]    ***   
       FROZEN_CORE          IFROCO         OFF         [  0]    ***   
       GAMMA_ABCD           IGABCD         STORE       [  0]    ***   
       GAMMA_ABCI           IGABCI         STORE       [  0]    ***   
       GENBAS_1             IGNBS1              0               ***   
       GENBAS_2             IGNBS2              0               ***   
       GENBAS_3             IGNBS3              0               ***   
       GENBAS_4             IGNBS4              0               ***   
       GEO_CONV             ICONTL              5              H/bohr 
       GEO_MAXCYC           IOPTCY             50               ***   
       GEO_MAXSTEP          IMXSTP            300            millibohr
       GEO_METHOD           INR            SINGLE_POINT[  5]    ***   
       GIAO                 IGIAO          OFF         [  1]    ***   
       GIMIC                IGIMIC         OFF         [  0]    ***   
       GRID                 IGRID          OFF         [  0]    ***   
       GRID_ALGO            IGALGO         SERIAL      [  0]    ***   
       GUESS                IGUESS         MOREAD      [  0]    ***   
       HBAR                 IHBAR          OFF         [  0]    ***   
       HESS_TYPE            IHESTP         SCF         [  0]    ***   
       HF2_FILE             IHF2Fl         USE         [  1]    ***   
       HFSTABILITY          ISTABL         OFF         [  0]    ***   
       INCORE               INCORE         OFF         [  0]    ***   
       INPUT_MRCC           IMRCC          ON          [  1]    ***   
       INTEGRALS            INTTYP         VMOL        [  1]    ***   
       JODA_PRINT           IJPRNT              0               ***   
       KEYWORD_OUT          IDMPKW         NO          [  0]    ***   
       LINDEP_TOL           ILINDP              8               ***   
       LINEQ_CONV           IZTACN          10D-  7           cycles  
       LINEQ_EXPOR          ILMAXD              5               ***   
       LINEQ_MAXCY          ILMAXC            100               ***   
       LINEQ_TYPE           ILTYPE         DIIS        [  1]    ***   
       LOCK_ORBOCC          ILOCOC         OFF         [  0]    ***   
       MEMORY_SIZE          IMEMSZ         500000000           words  
       MEM_UNIT             IMEMU          INTEGERWORDS[  0]    ***   
       MRCC                 IMRCCC         OFF         [  0]    ***   
       MULTIPLICTY          IMULTP              1               ***   
       NACOUPLING           IVCOUP         OFF         [  0]    ***   
       NEGEVAL              IDIE           ABORT       [  0]    ***   
       NEWNORM              INEWNO         OFF         [  0]    ***   
       NON-HF               INONHF         OFF         [  0]    ***   
       NTOP_TAMP            ITOPT2             15               ***   
       NUC_MODEL            INUCMO         POINT       [  0]    ***   
       OCCUPATION           IOCCU   ESTIMATED BY SCF 
       OPEN-SHELL           IOPEN          SPIN-ORBITAL[  0]    ***   
       OPTVIB               IOPTVB         OFF         [  0]    ***   
       ORBITALS             IORBTP         STANDARD    [  0]    ***   
       PARALLEL             IPARAL         ON          [  1]    ***   
       PARA_INT             IPINTS         ON          [  1]    ***   
       PARA_PRINT           IPPRIN              0               ***   
       PERT_ORB             IPTORB         STANDARD    [  0]    ***   
       POINTS               IGRDFD              0               ***   
       PRINT                IPRNT               0               ***   
       PROPS                IPROPS         OFF         [  0]    ***   
       PROP_INTEGR          IINTYP         INTERNAL    [  0]    ***   
       PSI                  IPSI           OFF         [  0]    ***   
       QC_ALG               IQCALG         FLM         [  0]    ***   
       QC_LINALG            IQCLIN         TRIDIAG     [  2]    ***   
       QC_MAXCYC            IQCMAX          10D-100           cycles  
       QC_MAXSCFCY          IQCMSC          10D- 15           cycles  
       QC_RTRUST            IQCRTR          10D-  0           x 10-3  
       QC_SKIPSCF           IQCSKI         OFF         [  0]    ***   
       QC_START             IQCSTA          10D-  1             ***   
       QRHFGUESS            IQGUES         OFF         [  0]    ***   
       QUARTIC              IQUART         OFF         [  0]    ***   
       RAMAN_INT            IRAMIN         OFF         [  0]    ***   
       RAMAN_ORB            IRAMRE         UNRELAXED   [  0]    ***   
       RDO                  IRDOFM         ON          [  1]    ***   
       REDUCE_REPR          REDREP         Ir          [  0]    ***   
       REFERENCE            IREFNC         RHF         [  0]    ***   
       RELATIVIST           IRELAT         OFF         [  0]    ***   
       RELAX_DENS           IRDENS         ON          [  1]    ***   
       RESET_FLAGS          IRESET         OFF         [  0]    ***   
       RESTART_CC           ICCRES         OFF         [  0]    ***   
       ROT_EVEC             ROTVEC              0               ***   
       SAVE_INTS            ISVINT         OFF         [  0]    ***   
       SCALE_ON             ISTCRT              0               ***   
       SCF_CONV             ISCFCV          10D- 10             ***   
       SCF_DAMPING          IDAMP               0             x 10-3  
       SCF_EXPORDE          IRPPOR              6               ***   
       SCF_EXPSTAR          IRPPLS              8               ***   
       SCF_EXTRAPO          IRPP           ON          [  1]    ***   
       SCF_MAXCYC           ISCFCY            150              cycles 
       SCF_NOSTOP           ISCFST         OFF         [  0]    ***   
       SCF_PRINT            ISCFPR              0               ***   
       SCF_PROG             ISCFPR         SCF         [  0]    ***   
       SD_FIELD             IFINSD              0             x 10-6  
       SOPERT               IPERSO         OFF         [  0]    ***   
       SPHERICAL            IDFGHI         ON          [  1]    ***   
       SPINORBIT            ISOCAL         OFF         [  0]    ***   
       SPINROTATIO          ISRCON         OFF         [  0]    ***   
       SPIN_FLIP            ISPFLP         OFF         [  0]    ***   
       SPIN_ORBIT           ISPORB         OFF         [  0]    ***   
       SPIN_SCAL            ISCSMP         OFF         [  0]    ***   
       STEEPSCALE           ISTPSC              1000          x 10-3  
       SUBGROUP             ISUBGP         DEFAULT     [  0]    ***   
       SUBGRPAXIS           ISBXYZ         X           [  0]    ***   
       SYMMETRY             ISYM           ON          [  0]    ***   
       SYM_CHECK            ISYMCK         OVERRIDE    [  1]    ***   
       T3_EXTRAPOL          IT3EXT         OFF         [  0]    ***   
       T4_EXTRAPOL          IT4EXP         OFF         [  0]    ***   
       TAMP_SUM             IEVERY              5               ***   
       TESTSUITE            ITESTS         OFF         [  0]    ***   
       THERMOCH             ITHERM         OFF         [  0]    ***   
       TOL_CHOLESK          ITOLCH          10D-  4             ***   
       TRANGRAD             IRESRM         OFF         [  0]    ***   
       TRANS_INV            ITRAIN         IGNORE      [  1]    ***   
       TREAT_PERT           ITREAT         SIMULTANEOUS[  0]    ***   
       TRIP_ALGORI          ITRALG         NORMAL      [  0]    ***   
       UIJ_THRESHO          IUIJTH              1               ***   
       UNITS                IUNITS         ANGSTROM    [  0]    ***   
       UNOS                 IUNOS          OFF         [  0]    ***   
       UPDATE_HESS          IHUPDT         ON          [  1]    ***   
       VIBPHASE             ISETPH         STANDARD    [  0]    ***   
       VIBRATION            IVIB           ANALYTIC    [  1]    ***   
       VIB_ALGORIT          IGEALG         STANDARD    [  0]    ***   
       VNATORB              IVNORB         OFF         [  0]    ***   
       VTRAN                IVTRAN         FULL/PARTIAL[  0]    ***   
       XFIELD               IXEFLD              0             x 10-6  
       XFORM_TOL            IXFTOL          10D- 11             ***   
       YFIELD               IYEFLD              0             x 10-6  
       ZFIELD               IZEFLD            200             x 10-6  
       ZSCALE_EXP           IZEXPS         OFF         [  0]    ***   
    -------------------------------------------------------------------
   2 entries found in Z-matrix 
   Job Title : Carbon Monoxide DBOC calculation                                                
   There are  1 unique internal coordinates.
   Of these,  0 will be optimized.
   User supplied Z-matrix: 
--------------------------------------------------------------------------------
       SYMBOL    BOND      LENGTH    ANGLE     ANGLE     DIHED     ANGLE
                  TO      (ANGST)    WRT      (DEG)      WRT      (DEG)
--------------------------------------------------------------------------------
        C    
        O          1         r    
                  *Initial values for internal coordinates* 
                      Name             Value
                        r               1.0551724138
--------------------------------------------------------------------------------
  read isotopes from ZMAT file 
   Rotational constants (in cm-1): 
          2.2083386474             2.2083386474
   Rotational constants (in MHz): 
      66204.3363939036         66204.3363939036
********************************************************************************
   The full molecular point group is CXv .
   The largest Abelian subgroup of the full molecular point group is C2v .
   The computational point group is C2v .
********************************************************************************
--------------------------------------------------------------------------------
   Analysis of internal coordinates specified by Z-matrix 
--------------------------------------------------------------------------------
   *The nuclear repulsion energy is   24.072370039215681 a.u.
   *There is   1 degree of freedom within the tot. symm. molecular subspace.
   *Z-matrix requests optimization of   0 coordinates.
   *The optimization is constrained.
   *The following   1 parameters can have non-zero 
    derivatives within the totally symmetric subspace:
             r    [ 1]
   *The following   0 parameters are to be optimized:

   *The following coordinates must be varied in an  unconstrained optimization.
             r    [ 1]
--------------------------------------------------------------------------------


 ----------------------------------------------------------------
         Coordinates used in calculation (QCOMP) 
 ----------------------------------------------------------------
 Z-matrix   Atomic            Coordinates (in bohr)
  Symbol    Number           X              Y              Z
 ----------------------------------------------------------------
     C         6        -0.00000000     0.00000000     1.13926608
     O         8         0.00000000     0.00000000    -0.85472122
 ----------------------------------------------------------------
 
   Interatomic distance matrix (Angstroms) 
 
                 C             O    
                [ 1]        [ 2]
  C    [ 1]     0.00000
  O    [ 2]     1.05517     0.00000
 rotcon2
   Rotational constants (in cm-1): 
          2.2083386474             0.0000000000
   Rotational constants (in MHz): 
      66204.3363939036             0.0000000000
  ECPDATA file not present.   Using default ECPDATA. 
  @GTFLGS-I, Hessian will be transformed to curvilinear coordinates.
  There are  218 basis functions.
 @CHECKOUT-I, Total execution time (CPU/WALL):        0.10/       0.15 seconds.
--executable xjoda finished with status     0 in        0.16 seconds (walltime).
 --invoking executable--
/nfs/workspaces/public/cfour_mpi/bin/xvmol
 SERIAL VERSION OF MOLECULE STARTED
********************************************************************************
                    INPUT FROM MOL FILE
********************************************************************************
INTGRL        1    0    1    0    0    0    0    0    0                         
         *** CFOUR Program System (Release V0.1) ***                            
Carbon Monoxide DBOC calculation                                                
    2    2 X  Y       0.10E-08              0    0                              
   9999.00      3.00                                                            
          6.00000000    1    5    1    1    1    1    1                         
C #1  -0.000000000000000   0.000000000000000   1.139266076210975                
   16    9                                                                      
   33980.0000000000       9.100000000000000E-005 -1.900000000000000E-005        
  0.000000000000000E+000  0.000000000000000E+000  0.000000000000000E+000        
  0.000000000000000E+000  0.000000000000000E+000  0.000000000000000E+000        
  0.000000000000000E+000                                                        
   5089.00000000000       7.040000000000000E-004 -1.510000000000000E-004        
  0.000000000000000E+000  0.000000000000000E+000  0.000000000000000E+000        
  0.000000000000000E+000  0.000000000000000E+000  0.000000000000000E+000        
  0.000000000000000E+000                                                        
   1157.00000000000       3.693000000000000E-003 -7.850000000000000E-004        
  0.000000000000000E+000  0.000000000000000E+000  0.000000000000000E+000        
  0.000000000000000E+000  0.000000000000000E+000  0.000000000000000E+000        
  0.000000000000000E+000                                                        
   326.600000000000       1.536000000000000E-002 -3.324000000000000E-003        
  0.000000000000000E+000  0.000000000000000E+000  0.000000000000000E+000        
  0.000000000000000E+000  0.000000000000000E+000  0.000000000000000E+000        
  0.000000000000000E+000                                                        
   106.100000000000       5.292900000000000E-002 -1.151200000000000E-002        
  0.000000000000000E+000  0.000000000000000E+000  0.000000000000000E+000        
  0.000000000000000E+000  0.000000000000000E+000  0.000000000000000E+000        
  0.000000000000000E+000                                                        
   38.1100000000000       0.147043000000000      -3.416000000000000E-002        
  0.000000000000000E+000  0.000000000000000E+000  0.000000000000000E+000        
  0.000000000000000E+000  0.000000000000000E+000  0.000000000000000E+000        
  0.000000000000000E+000                                                        
   14.7500000000000       0.305631000000000      -7.717300000000001E-002        
  0.000000000000000E+000  0.000000000000000E+000  0.000000000000000E+000        
  0.000000000000000E+000  0.000000000000000E+000  0.000000000000000E+000        
  0.000000000000000E+000                                                        
   6.03500000000000       0.399345000000000      -0.141493000000000             
  0.000000000000000E+000  0.000000000000000E+000  0.000000000000000E+000        
  0.000000000000000E+000  0.000000000000000E+000  0.000000000000000E+000        
  0.000000000000000E+000                                                        
   2.53000000000000       0.217051000000000      -0.118019000000000             
  0.000000000000000E+000  0.000000000000000E+000  0.000000000000000E+000        
  0.000000000000000E+000  0.000000000000000E+000  0.000000000000000E+000        
  0.000000000000000E+000                                                        
  0.735500000000000       1.589400000000000E-002  0.273806000000000             
   1.00000000000000       0.000000000000000E+000  0.000000000000000E+000        
  0.000000000000000E+000  0.000000000000000E+000  0.000000000000000E+000        
  0.000000000000000E+000                                                        
  0.290500000000000      -3.084000000000000E-003  0.586510000000000             
  0.000000000000000E+000   1.00000000000000       0.000000000000000E+000        
  0.000000000000000E+000  0.000000000000000E+000  0.000000000000000E+000        
  0.000000000000000E+000                                                        
  0.111100000000000       9.779999999999999E-004  0.285430000000000             
  0.000000000000000E+000  0.000000000000000E+000   1.00000000000000             
  0.000000000000000E+000  0.000000000000000E+000  0.000000000000000E+000        
  0.000000000000000E+000                                                        
   7.21600000000000       0.000000000000000E+000  0.000000000000000E+000        
  0.000000000000000E+000  0.000000000000000E+000  0.000000000000000E+000        
   1.00000000000000       0.000000000000000E+000  0.000000000000000E+000        
  0.000000000000000E+000                                                        
   19.5700000000000       0.000000000000000E+000  0.000000000000000E+000        
  0.000000000000000E+000  0.000000000000000E+000  0.000000000000000E+000        
  0.000000000000000E+000   1.00000000000000       0.000000000000000E+000        
  0.000000000000000E+000                                                        
   53.0730000000000       0.000000000000000E+000  0.000000000000000E+000        
  0.000000000000000E+000  0.000000000000000E+000  0.000000000000000E+000        
  0.000000000000000E+000  0.000000000000000E+000   1.00000000000000             
  0.000000000000000E+000                                                        
  4.145000000000000E-002  0.000000000000000E+000  0.000000000000000E+000        
  0.000000000000000E+000  0.000000000000000E+000  0.000000000000000E+000        
  0.000000000000000E+000  0.000000000000000E+000  0.000000000000000E+000        
   1.00000000000000                                                             
   10    8                                                                      
   34.5100000000000       5.378000000000000E-003  0.000000000000000E+000        
  0.000000000000000E+000  0.000000000000000E+000  0.000000000000000E+000        
  0.000000000000000E+000  0.000000000000000E+000  0.000000000000000E+000        
   7.91500000000000       3.613200000000000E-002  0.000000000000000E+000        
  0.000000000000000E+000  0.000000000000000E+000  0.000000000000000E+000        
  0.000000000000000E+000  0.000000000000000E+000  0.000000000000000E+000        
   2.36800000000000       0.142493000000000       0.000000000000000E+000        
  0.000000000000000E+000  0.000000000000000E+000  0.000000000000000E+000        
  0.000000000000000E+000  0.000000000000000E+000  0.000000000000000E+000        
  0.813200000000000       0.342150000000000        1.00000000000000             
  0.000000000000000E+000  0.000000000000000E+000  0.000000000000000E+000        
  0.000000000000000E+000  0.000000000000000E+000  0.000000000000000E+000        
  0.289000000000000       0.463864000000000       0.000000000000000E+000        
   1.00000000000000       0.000000000000000E+000  0.000000000000000E+000        
  0.000000000000000E+000  0.000000000000000E+000  0.000000000000000E+000        
  0.100700000000000       0.250028000000000       0.000000000000000E+000        
  0.000000000000000E+000   1.00000000000000       0.000000000000000E+000        
  0.000000000000000E+000  0.000000000000000E+000  0.000000000000000E+000        
   8.18200000000000       0.000000000000000E+000  0.000000000000000E+000        
  0.000000000000000E+000  0.000000000000000E+000   1.00000000000000             
  0.000000000000000E+000  0.000000000000000E+000  0.000000000000000E+000        
   24.1860000000000       0.000000000000000E+000  0.000000000000000E+000        
  0.000000000000000E+000  0.000000000000000E+000  0.000000000000000E+000        
   1.00000000000000       0.000000000000000E+000  0.000000000000000E+000        
   71.4940000000000       0.000000000000000E+000  0.000000000000000E+000        
  0.000000000000000E+000  0.000000000000000E+000  0.000000000000000E+000        
  0.000000000000000E+000   1.00000000000000       0.000000000000000E+000        
  3.218000000000000E-002  0.000000000000000E+000  0.000000000000000E+000        
  0.000000000000000E+000  0.000000000000000E+000  0.000000000000000E+000        
  0.000000000000000E+000  0.000000000000000E+000   1.00000000000000             
    6    6                                                                      
   1.84800000000000        1.00000000000000       0.000000000000000E+000        
  0.000000000000000E+000  0.000000000000000E+000  0.000000000000000E+000        
  0.000000000000000E+000                                                        
  0.649000000000000       0.000000000000000E+000   1.00000000000000             
  0.000000000000000E+000  0.000000000000000E+000  0.000000000000000E+000        
  0.000000000000000E+000                                                        
  0.228000000000000       0.000000000000000E+000  0.000000000000000E+000        
   1.00000000000000       0.000000000000000E+000  0.000000000000000E+000        
  0.000000000000000E+000                                                        
   8.65600000000000       0.000000000000000E+000  0.000000000000000E+000        
  0.000000000000000E+000   1.00000000000000       0.000000000000000E+000        
  0.000000000000000E+000                                                        
   33.2130000000000       0.000000000000000E+000  0.000000000000000E+000        
  0.000000000000000E+000  0.000000000000000E+000   1.00000000000000             
  0.000000000000000E+000                                                        
  7.660000000000000E-002  0.000000000000000E+000  0.000000000000000E+000        
  0.000000000000000E+000  0.000000000000000E+000  0.000000000000000E+000        
   1.00000000000000                                                             
    4    4                                                                      
   1.41900000000000        1.00000000000000       0.000000000000000E+000        
  0.000000000000000E+000  0.000000000000000E+000                                
  0.485000000000000       0.000000000000000E+000   1.00000000000000             
  0.000000000000000E+000  0.000000000000000E+000                                
   24.6940000000000       0.000000000000000E+000  0.000000000000000E+000        
   1.00000000000000       0.000000000000000E+000                                
  0.187000000000000       0.000000000000000E+000  0.000000000000000E+000        
  0.000000000000000E+000   1.00000000000000                                     
    2    2                                                                      
   1.01100000000000        1.00000000000000       0.000000000000000E+000        
  0.424000000000000       0.000000000000000E+000   1.00000000000000             
          8.00000000    1    5    1    1    1    1    1                         
O #2   0.000000000000000   0.000000000000000  -0.854721218010758                
   16    9                                                                      
   61420.0000000000       9.000000000000001E-005 -2.000000000000000E-005        
  0.000000000000000E+000  0.000000000000000E+000  0.000000000000000E+000        
  0.000000000000000E+000  0.000000000000000E+000  0.000000000000000E+000        
  0.000000000000000E+000                                                        
   9199.00000000000       6.980000000000001E-004 -1.590000000000000E-004        
  0.000000000000000E+000  0.000000000000000E+000  0.000000000000000E+000        
  0.000000000000000E+000  0.000000000000000E+000  0.000000000000000E+000        
  0.000000000000000E+000                                                        
   2091.00000000000       3.664000000000000E-003 -8.290000000000000E-004        
  0.000000000000000E+000  0.000000000000000E+000  0.000000000000000E+000        
  0.000000000000000E+000  0.000000000000000E+000  0.000000000000000E+000        
  0.000000000000000E+000                                                        
   590.900000000000       1.521800000000000E-002 -3.508000000000000E-003        
  0.000000000000000E+000  0.000000000000000E+000  0.000000000000000E+000        
  0.000000000000000E+000  0.000000000000000E+000  0.000000000000000E+000        
  0.000000000000000E+000                                                        
   192.300000000000       5.242300000000000E-002 -1.215600000000000E-002        
  0.000000000000000E+000  0.000000000000000E+000  0.000000000000000E+000        
  0.000000000000000E+000  0.000000000000000E+000  0.000000000000000E+000        
  0.000000000000000E+000                                                        
   69.3200000000000       0.145921000000000      -3.626100000000000E-002        
  0.000000000000000E+000  0.000000000000000E+000  0.000000000000000E+000        
  0.000000000000000E+000  0.000000000000000E+000  0.000000000000000E+000        
  0.000000000000000E+000                                                        
   26.9700000000000       0.305258000000000      -8.299200000000000E-002        
  0.000000000000000E+000  0.000000000000000E+000  0.000000000000000E+000        
  0.000000000000000E+000  0.000000000000000E+000  0.000000000000000E+000        
  0.000000000000000E+000                                                        
   11.1000000000000       0.398508000000000      -0.152090000000000             
  0.000000000000000E+000  0.000000000000000E+000  0.000000000000000E+000        
  0.000000000000000E+000  0.000000000000000E+000  0.000000000000000E+000        
  0.000000000000000E+000                                                        
   4.68200000000000       0.216980000000000      -0.115331000000000             
  0.000000000000000E+000  0.000000000000000E+000  0.000000000000000E+000        
  0.000000000000000E+000  0.000000000000000E+000  0.000000000000000E+000        
  0.000000000000000E+000                                                        
   1.42800000000000       1.759400000000000E-002  0.288979000000000             
   1.00000000000000       0.000000000000000E+000  0.000000000000000E+000        
  0.000000000000000E+000  0.000000000000000E+000  0.000000000000000E+000        
  0.000000000000000E+000                                                        
  0.554700000000000      -2.502000000000000E-003  0.586128000000000             
  0.000000000000000E+000   1.00000000000000       0.000000000000000E+000        
  0.000000000000000E+000  0.000000000000000E+000  0.000000000000000E+000        
  0.000000000000000E+000                                                        
  0.206700000000000       9.540000000000000E-004  0.277624000000000             
  0.000000000000000E+000  0.000000000000000E+000   1.00000000000000             
  0.000000000000000E+000  0.000000000000000E+000  0.000000000000000E+000        
  0.000000000000000E+000                                                        
   12.9740000000000       0.000000000000000E+000  0.000000000000000E+000        
  0.000000000000000E+000  0.000000000000000E+000  0.000000000000000E+000        
   1.00000000000000       0.000000000000000E+000  0.000000000000000E+000        
  0.000000000000000E+000                                                        
   34.9000000000000       0.000000000000000E+000  0.000000000000000E+000        
  0.000000000000000E+000  0.000000000000000E+000  0.000000000000000E+000        
  0.000000000000000E+000   1.00000000000000       0.000000000000000E+000        
  0.000000000000000E+000                                                        
   93.8810000000000       0.000000000000000E+000  0.000000000000000E+000        
  0.000000000000000E+000  0.000000000000000E+000  0.000000000000000E+000        
  0.000000000000000E+000  0.000000000000000E+000   1.00000000000000             
  0.000000000000000E+000                                                        
  6.959000000000000E-002  0.000000000000000E+000  0.000000000000000E+000        
  0.000000000000000E+000  0.000000000000000E+000  0.000000000000000E+000        
  0.000000000000000E+000  0.000000000000000E+000  0.000000000000000E+000        
   1.00000000000000                                                             
   10    8                                                                      
   63.4200000000000       6.044000000000000E-003  0.000000000000000E+000        
  0.000000000000000E+000  0.000000000000000E+000  0.000000000000000E+000        
  0.000000000000000E+000  0.000000000000000E+000  0.000000000000000E+000        
   14.6600000000000       4.179900000000000E-002  0.000000000000000E+000        
  0.000000000000000E+000  0.000000000000000E+000  0.000000000000000E+000        
  0.000000000000000E+000  0.000000000000000E+000  0.000000000000000E+000        
   4.45900000000000       0.161143000000000       0.000000000000000E+000        
  0.000000000000000E+000  0.000000000000000E+000  0.000000000000000E+000        
  0.000000000000000E+000  0.000000000000000E+000  0.000000000000000E+000        
   1.53100000000000       0.356731000000000        1.00000000000000             
  0.000000000000000E+000  0.000000000000000E+000  0.000000000000000E+000        
  0.000000000000000E+000  0.000000000000000E+000  0.000000000000000E+000        
  0.530200000000000       0.448309000000000       0.000000000000000E+000        
   1.00000000000000       0.000000000000000E+000  0.000000000000000E+000        
  0.000000000000000E+000  0.000000000000000E+000  0.000000000000000E+000        
  0.175000000000000       0.244940000000000       0.000000000000000E+000        
  0.000000000000000E+000   1.00000000000000       0.000000000000000E+000        
  0.000000000000000E+000  0.000000000000000E+000  0.000000000000000E+000        
   14.4750000000000       0.000000000000000E+000  0.000000000000000E+000        
  0.000000000000000E+000  0.000000000000000E+000   1.00000000000000             
  0.000000000000000E+000  0.000000000000000E+000  0.000000000000000E+000        
   42.7300000000000       0.000000000000000E+000  0.000000000000000E+000        
  0.000000000000000E+000  0.000000000000000E+000  0.000000000000000E+000        
   1.00000000000000       0.000000000000000E+000  0.000000000000000E+000        
   126.140000000000       0.000000000000000E+000  0.000000000000000E+000        
  0.000000000000000E+000  0.000000000000000E+000  0.000000000000000E+000        
  0.000000000000000E+000   1.00000000000000       0.000000000000000E+000        
  5.348000000000000E-002  0.000000000000000E+000  0.000000000000000E+000        
  0.000000000000000E+000  0.000000000000000E+000  0.000000000000000E+000        
  0.000000000000000E+000  0.000000000000000E+000   1.00000000000000             
    6    6                                                                      
   3.77500000000000        1.00000000000000       0.000000000000000E+000        
  0.000000000000000E+000  0.000000000000000E+000  0.000000000000000E+000        
  0.000000000000000E+000                                                        
   1.30000000000000       0.000000000000000E+000   1.00000000000000             
  0.000000000000000E+000  0.000000000000000E+000  0.000000000000000E+000        
  0.000000000000000E+000                                                        
  0.444000000000000       0.000000000000000E+000  0.000000000000000E+000        
   1.00000000000000       0.000000000000000E+000  0.000000000000000E+000        
  0.000000000000000E+000                                                        
   14.9270000000000       0.000000000000000E+000  0.000000000000000E+000        
  0.000000000000000E+000   1.00000000000000       0.000000000000000E+000        
  0.000000000000000E+000                                                        
   57.5440000000000       0.000000000000000E+000  0.000000000000000E+000        
  0.000000000000000E+000  0.000000000000000E+000   1.00000000000000             
  0.000000000000000E+000                                                        
  0.154000000000000       0.000000000000000E+000  0.000000000000000E+000        
  0.000000000000000E+000  0.000000000000000E+000  0.000000000000000E+000        
   1.00000000000000                                                             
    4    4                                                                      
   2.66600000000000        1.00000000000000       0.000000000000000E+000        
  0.000000000000000E+000  0.000000000000000E+000                                
  0.859000000000000       0.000000000000000E+000   1.00000000000000             
  0.000000000000000E+000  0.000000000000000E+000                                
   26.4830000000000       0.000000000000000E+000  0.000000000000000E+000        
   1.00000000000000       0.000000000000000E+000                                
  0.324000000000000       0.000000000000000E+000  0.000000000000000E+000        
  0.000000000000000E+000   1.00000000000000                                     
    2    2                                                                      
   1.84600000000000        1.00000000000000       0.000000000000000E+000        
  0.714000000000000       0.000000000000000E+000   1.00000000000000             
FINISH                                                                          
 
********************************************************************************
 ONE- AND TWO-ELECTRON INTEGRALS OVER SYMMETRY-ADAPTED AOS ARE CALCULATED.

  SPHERICAL HARMONICS ARE USED.
  
  INTEGRALS LESS THAN  0.10E-13 ARE NEGLECTED.

  NUCLEAR REPULSION ENERGY :   24.0723700392 A.U.
  @MOLECU-I, ONE ELECTRON INTEGRALS (CPU/WALL):        0.06/       0.07 SECONDS.
  @TWOEL-I,    4632599 INTEGRALS OF SYMMETRY TYPE  I I I I
  @TWOEL-I,   19851557 INTEGRALS OF SYMMETRY TYPE  I J I J
  @TWOEL-I,   10465118 INTEGRALS OF SYMMETRY TYPE  I I J J
  @TWOEL-I,   14678509 INTEGRALS OF SYMMETRY TYPE  I J K L
  @TWOEL-I, TOTAL NUMBER OF 2-E INTEGRALS   49627783.
  @MOLECU-I, TWO ELECTRON INTEGRALS (CPU/WALL):      196.39/      27.39 SECONDS.
 @CHECKOUT-I, Total execution time (CPU/WALL):      196.46/      27.50 seconds.

Running with 14 threads/proc

--executable xvmol finished with status     0 in       27.53 seconds (walltime).
 --invoking executable--
/nfs/workspaces/public/cfour_mpi/bin/xvmol2ja
 @GETMEM-I,  Allocated    3814 MB of main memory.
 @CHECKOUT-I, Total execution time (CPU/WALL):        0.12/       0.05 seconds.
--executable xvmol2ja finished with status     0 in        0.07 seconds (walltime).
 --invoking executable--
/nfs/workspaces/public/cfour_mpi/bin/xvprop
 @GETMEM-I,  Allocated    3814 MB of main memory.
   Property integrals will be calculated.
    --------------------------------------------------------------
                                   Property evaluated at 
    Property type                X             Y             Z
    --------------------------------------------------------------
    Dipole moment               ----          ----          ----  
    Quadrupole moment           ----          ----          ----  
    Octopole moment             ----          ----          ----  
    Relativisitic corr.         ----          ----          ----  
    Second moment            0.0000000     0.0000000     0.0000000
    Electron density         0.0000000     0.0000000     1.1392661
    Electron density         0.0000000     0.0000000    -0.8547212
    Field gradient           0.0000000     0.0000000     1.1392661
    Field gradient           0.0000000     0.0000000    -0.8547212
    Potential                0.0000000     0.0000000     1.1392661
    Potential                0.0000000     0.0000000    -0.8547212
    --------------------------------------------------------------
 @CHECKOUT-I, Total execution time (CPU/WALL):        1.31/       1.34 seconds.
--executable xvprop finished with status     0 in        1.36 seconds (walltime).
 --invoking executable--
/nfs/workspaces/public/cfour_mpi/bin/xvscf
  There are  218 functions in the AO basis.

  There are 4 irreducible representations.

       Irrep        # of functions
         1                 86
         2                 52
         3                 52
         4                 28


  Parameters for SCF calculation: 
        SCF reference function:  RHF  
  Maximum number of iterations:  150
     Full symmetry point group: CXv 
     Computational point group: C2v 
        Initial density matrix: MOREAD                 
     SCF convergence tolerance: 10**(-10)
  DIIS convergence acceleration:  ON
          Latest start for DIIS:   8
                     DIIS order:   6

  Memory information:    2523578 words required.
  Fock matrices are constructed from AO integral file.
 @GETMEM-I,  Allocated      19 MB of main memory.
  Initialization and symmetry analysis required      0.001 seconds.

  Adding electric field perturbation to one-electron Hamiltonian.
  Field direction     : Z
  Field strength      :  0.0002000 a.u.

  @INITGES-I, Occupancies from core Hamiltonian:

          Alpha population by irrep:   5    1    1    0
           Beta population by irrep:   5    1    1    0


 total no. of electrons in initial guess :  0.000000000000000E+000
  --------------------------------------------------------------------
  Iteration         Total Energy            Largest Density Difference
  --------------------------------------------------------------------
       0            24.072370473873050              0.0000000000D+00
   current occupation vector 
     5  1  1  0
     5  1  1  0
       1           -91.158028257732596              0.1925379046D+02
   current occupation vector 
     5  1  1  0
     5  1  1  0
       2           -94.506128006703477              0.6599778583D+02
   current occupation vector 
     5  1  1  0
     5  1  1  0
       3          -103.190093852118906              0.6597727645D+02
   current occupation vector 
     5  1  1  0
     5  1  1  0
       4          -100.612097844878221              0.1012816528D+02
   current occupation vector 
     5  1  1  0
     5  1  1  0
       5          -104.578268053134039              0.1013986550D+02
   current occupation vector 
     5  1  1  0
     5  1  1  0
       6          -101.823157776431316              0.5724872569D+01
   current occupation vector 
     5  1  1  0
     5  1  1  0
       7          -103.888158950487636              0.5383526142D+01
   current occupation vector 
     5  1  1  0
     5  1  1  0
       8          -101.181098342139734              0.5384683457D+01
   current occupation vector 
     5  1  1  0
     5  1  1  0
       9          -111.286551487078285              0.3801349711D+01
   current occupation vector 
     5  1  1  0
     5  1  1  0
      10          -112.496742608320531              0.9022369464D+00
   current occupation vector 
     5  1  1  0
     5  1  1  0
      11          -112.779533388642719              0.4334481804D+00
   current occupation vector 
     5  1  1  0
     5  1  1  0
      12          -112.784224554413996              0.6574039349D-01
   current occupation vector 
     5  1  1  0
     5  1  1  0
      13          -112.784402721266829              0.1761224390D-01
   current occupation vector 
     5  1  1  0
     5  1  1  0
      14          -112.784426189601575              0.8001894588D-02
   current occupation vector 
     5  1  1  0
     5  1  1  0
      15          -112.784426470347498              0.8743758648D-03
   current occupation vector 
     5  1  1  0
     5  1  1  0
      16          -112.784426474526825              0.6657045610D-04
   current occupation vector 
     5  1  1  0
     5  1  1  0
      17          -112.784426474640568              0.1958896578D-04
   current occupation vector 
     5  1  1  0
     5  1  1  0
      18          -112.784426474645002              0.1625765196D-05
   current occupation vector 
     5  1  1  0
     5  1  1  0
      19          -112.784426474645230              0.7222805967D-06
   current occupation vector 
     5  1  1  0
     5  1  1  0
      20          -112.784426474642757              0.9119078115D-07
   current occupation vector 
     5  1  1  0
     5  1  1  0
      21          -112.784426474645372              0.3028661100D-07
   current occupation vector 
     5  1  1  0
     5  1  1  0
      22          -112.784426474645144              0.1032319563D-07
   current occupation vector 
     5  1  1  0
     5  1  1  0
      23          -112.784426474644462              0.6723817059D-09
   current occupation vector 
     5  1  1  0
     5  1  1  0
      24          -112.784426474644775              0.1771234409D-09
   current occupation vector 
     5  1  1  0
     5  1  1  0

  SCF has converged.

 Density matrix saved to file den.dat
 total electron number:   14.0000000000000     
     E(SCF)=      -112.784426474642871              0.6116784856D-10

  Eigenvector printing suppressed.

 @PUTMOS-I, Writing converged MOs to NEWMOS. 
 @PUTMOS-I, Symmetry   1 Full Blocks 21 Partial Blocksize   2
 @PUTMOS-I, Symmetry   2 Full Blocks 13 Partial Blocksize   0
 @PUTMOS-I, Symmetry   3 Full Blocks 13 Partial Blocksize   0
 @PUTMOS-I, Symmetry   4 Full Blocks  7 Partial Blocksize   0
 @PUTFOCK-I, Writing converged Fock matrix to NEWFOCK. 
 @PUTFOCK-I, Symmetry   1 Full Blocks 21 Partial Blocksize   2
 @PUTFOCK-I, Symmetry   2 Full Blocks 13 Partial Blocksize   0
 @PUTFOCK-I, Symmetry   3 Full Blocks 13 Partial Blocksize   0
 @PUTFOCK-I, Symmetry   4 Full Blocks  7 Partial Blocksize   0


 
  ORBITAL EIGENVALUES (ALPHA)  (1H = 27.2113834 eV)

       MO #        E(hartree)               E(eV)           FULLSYM    COMPSYM
       ----   --------------------   --------------------   -------   ---------
    1     1         -20.6611397923        -562.2181963704     SG+        A1 (1)
    2     2         -11.3266371875        -308.2134671420     SG+        A1 (1)
    3     3          -1.5734211211         -42.8149653751     SG+        A1 (1)
    4     4          -0.8112319882         -22.0747446575     SG+        A1 (1)
    5   139          -0.6742444751         -18.3471249165      PI        B2 (3)
    6    87          -0.6742444751         -18.3471249165      PI        B1 (2)
    7     5          -0.5450813031         -14.8324163242     SG+        A1 (1)
  +++++++++++++++++++++++++++++++++++++++++++++++++++++++++++++++++++++++++++++
    8     6           0.0582911413           1.5861825938     SG+        A1 (1)
    9    88           0.0647799722           1.7627526609      PI        B1 (2)
   10   140           0.0647799722           1.7627526609      PI        B2 (3)
   11     7           0.0769004732           2.0925682605     SG+        A1 (1)
   12    89           0.1524706734           4.1489379515      PI        B1 (2)
   13   141           0.1524706734           4.1489379515      PI        B2 (3)
   14     8           0.1558337003           4.2404505654     SG+        A1 (1)
   15    90           0.1758004194           4.7837726151      PI        B1 (2)
   16   142           0.1758004194           4.7837726151      PI        B2 (3)
   17     9           0.2273188919           6.1856615205     SG+        A1 (1)
   18   191           0.2281414201           6.2080436528      DE        A2 (4)
   19    10           0.2281414201           6.2080436528      DE        A1 (1)
   20    11           0.3022957665           8.2258860017     SG+        A1 (1)
   21    91           0.3297173946           8.9720664373      PI        B1 (2)
   22   143           0.3297173946           8.9720664373      PI        B2 (3)
   23    12           0.3948609257          10.7447120380     SG+        A1 (1)
   24    92           0.3981270364          10.8335874286      PI        B1 (2)
   25   144           0.3981270364          10.8335874286      PI        B2 (3)
   26    13           0.5077841112          13.8175081349     SG+        A1 (1)
   27   192           0.5292120384          14.4005916777      DE        A2 (4)
   28    14           0.5292120384          14.4005916777      DE        A1 (1)
   29   145           0.6203674561          16.8810566965      PI        B2 (3)
   30    93           0.6203674561          16.8810566965      PI        B1 (2)
   31    15           0.6586331685          17.9223196693     SG+        A1 (1)
   32    94           0.7501021509          20.4113172185      PH        B1 (2)
   33   146           0.7501021509          20.4113172185      PH        B2 (3)
   34    16           0.7706986463          20.9717763491      DE        A1 (1)
   35   193           0.7706986463          20.9717763491      DE        A2 (4)
   36    17           0.7833867665          21.3170376543     SG+        A1 (1)
   37    95           0.8332053538          22.6726703326      PI        B1 (2)
   38   147           0.8332053538          22.6726703326      PI        B2 (3)
   39    18           0.8754681364          23.8226991145     SG+        A1 (1)
   40   148           0.8759613698          23.8361206767      PI        B2 (3)
   41    96           0.8759613698          23.8361206767      PI        B1 (2)
   42   194           0.8967197892          24.4009859858      DE        A2 (4)
   43    19           0.8967197892          24.4009859859      DE        A1 (1)
   44    20           0.9407074703          25.5979516418     SG+        A1 (1)
   45   149           1.0954242934          29.8080104324      PI        B2 (3)
   46    97           1.0954242934          29.8080104324      PI        B1 (2)
   47    21           1.2613879395          34.3241108386     SG+        A1 (1)
   48    98           1.4526463519          39.5285168259      PH        B1 (2)
   49   150           1.4526463519          39.5285168259      PH        B2 (3)
   50   195           1.5070348779          41.0085038604      DE        A2 (4)
   51    22           1.5070348779          41.0085038604      DE        A1 (1)
   52    23           1.5109512603          41.1150740418     SG+        A1 (1)
   53   151           1.5415427427          41.9475106003      PI        B2 (3)
   54    99           1.5415427427          41.9475106003      PI        B1 (2)
   55    24           1.6606052721          45.1873667344     SG+        A1 (1)
   56    25           1.7543685484          47.7387951964     SG+        A1 (1)
   57   196           1.7753270223          48.3091042647      DE        A2 (4)
   58    26           1.7753270223          48.3091042648      DE        A1 (1)
   59   152           1.8575501054          50.5465081031      PI        B2 (3)
   60   100           1.8575501054          50.5465081032      PI        B1 (2)
   61   153           1.9474610648          52.9931096910      PI        B2 (3)
   62   101           1.9474610648          52.9931096911      PI        B1 (2)
   63    27           2.1104574324          57.4284663419      PI        A1 (1)
   64   197           2.1104574324          57.4284663419      PI        A2 (4)
   65    28           2.1806032653          59.3372314954     SG+        A1 (1)
   66    29           2.2124669139          60.2042854550      DE        A1 (1)
   67   198           2.2124669139          60.2042854550      DE        A2 (4)
   68   102           2.2578872926          61.4402367919      PH        B1 (2)
   69   154           2.2578872926          61.4402367919      PH        B2 (3)
   70    30           2.3250760475          63.2685357615     SG+        A1 (1)
   71   155           2.3395722633          63.6629978498      PI        B2 (3)
   72   103           2.3395722633          63.6629978498      PI        B1 (2)
   73   199           2.3756688433          64.6452357263      DE        A2 (4)
   74    31           2.3756688433          64.6452357263      DE        A1 (1)
   75   156           2.3910497642          65.0637718616      PH        B2 (3)
   76   104           2.3910497642          65.0637718616      PH        B1 (2)
   77    32           2.5149963506          68.4365299466     SG+        A1 (1)
   78   157           2.6082869831          70.9750971153      PI        B2 (3)
   79   105           2.6082869831          70.9750971153      PI        B1 (2)
   80   158           2.9088481337          79.1537818174      PI        B2 (3)
   81   106           2.9088481337          79.1537818175      PI        B1 (2)
   82    33           3.0420335708          82.7779418108     SG+        A1 (1)
   83   200           3.0695534710          83.5267963669      DE        A2 (4)
   84    34           3.0695534710          83.5267963669      DE        A1 (1)
   85    35           3.4409277185          93.6324034006     SG+        A1 (1)
   86    36           3.7396653462         101.7614675236      PI        A1 (1)
   87   201           3.7396653462         101.7614675236      PI        A2 (4)
   88   159           3.7625911206         102.3853095605      PI        B2 (3)
   89   107           3.7625911206         102.3853095607      PI        B1 (2)
   90    37           3.9717746943         108.0774839854     SG+        A1 (1)
   91   160           4.0750882364         110.8887883902      PH        B2 (3)
   92   108           4.0750882364         110.8887883902      PH        B1 (2)
   93   202           4.1759576348         113.6335842624      DE        A2 (4)
   94    38           4.1759576348         113.6335842624      DE        A1 (1)
   95   161           4.2103477737         114.5693875177      PI        B2 (3)
   96   109           4.2103477737         114.5693875177      PI        B1 (2)
   97    39           4.2964576527         116.9125564504     SG+        A1 (1)
   98   110           4.3682036945         118.8648655007      PH        B1 (2)
   99   162           4.3682036945         118.8648655007      PH        B2 (3)
  100    40           4.4141027836         120.1138432118      DE        A1 (1)
  101   203           4.4141027836         120.1138432118      DE        A2 (4)
  102    41           4.6460874880         126.4264679454     SG+        A1 (1)
  103   163           4.7858159245         130.2286720032      PI        B2 (3)
  104   111           4.7858159245         130.2286720033      PI        B1 (2)
  105    42           4.9658055951         135.1264399368     SG+        A1 (1)
  106    43           5.1858620207         141.1144797055      DE        A1 (1)
  107   204           5.1858620207         141.1144797058      DE        A2 (4)
  108   164           5.2334829826         142.4103119568      PI        B2 (3)
  109   112           5.2334829826         142.4103119569      PI        B1 (2)
  110   113           5.8987667014         160.5136022985      PI        B1 (2)
  111   165           5.8987667014         160.5136022986      PI        B2 (3)
  112    44           5.9123709594         160.8837929800      PI        A1 (1)
  113   205           5.9123709594         160.8837929800      PI        A2 (4)
  114    45           6.1021312276         166.0474323925     SG+        A1 (1)
  115   166           6.2136497841         169.0820065875      PH        B2 (3)
  116   114           6.2136497841         169.0820065875      PH        B1 (2)
  117    46           6.2165686432         169.1614327825     SG+        A1 (1)
  118   206           6.3237280733         172.0773891191      DE        A2 (4)
  119    47           6.3237280733         172.0773891191      DE        A1 (1)
  120   167           6.3519038112         172.8440899275      PI        B2 (3)
  121   115           6.3519038112         172.8440899275      PI        B1 (2)
  122   168           6.4617134078         175.8321609609      PH        B2 (3)
  123   116           6.4617134078         175.8321609609      PH        B1 (2)
  124    48           6.6432043972         180.7707818567      DE        A1 (1)
  125   207           6.6432043972         180.7707818569      DE        A2 (4)
  126    49           7.1323058891         194.0799100740     SG+        A1 (1)
  127    50           7.6514233250         208.2058136524      DE        A1 (1)
  128   208           7.6514233250         208.2058136528      DE        A2 (4)
  129   169           7.6808766718         209.0072799631      PI        B2 (3)
  130   117           7.6808766718         209.0072799632      PI        B1 (2)
  131    51           8.0081536630         217.9129396510     SG+        A1 (1)
  132    52           8.5233277277         231.9315386415     SG+        A1 (1)
  133   170           8.7127482177         237.0859322203      PI        B2 (3)
  134   118           8.7127482177         237.0859322203      PI        B1 (2)
  135   119          10.1259295738         275.5405519149      PI        B1 (2)
  136   171          10.1259295738         275.5405519149      PI        B2 (3)
  137    53          10.1897316166         277.2766937617     SG+        A1 (1)
  138   209          10.6006221853         288.4575945616      PI        A2 (4)
  139    54          10.6006221853         288.4575945616      PI        A1 (1)
  140   172          10.9418358707         297.7424909772      PH        B2 (3)
  141   120          10.9418358707         297.7424909772      PH        B1 (2)
  142   210          11.2166593465         305.2208179440      DE        A2 (4)
  143    55          11.2166593465         305.2208179440      DE        A1 (1)
  144    56          11.2541960679         306.2422440622     SG+        A1 (1)
  145   173          11.4074150625         310.4115448687      PI        B2 (3)
  146   121          11.4074150625         310.4115448687      PI        B1 (2)
  147   174          11.8580669484         322.6744061157      PH        B2 (3)
  148   122          11.8580669484         322.6744061157      PH        B1 (2)
  149    57          12.0807154916         328.7329809885     SG+        A1 (1)
  150    58          12.3685776602         336.5661088235      DE        A1 (1)
  151   211          12.3685776602         336.5661088240      DE        A2 (4)
  152   175          12.8245384495         348.9734326763      PI        B2 (3)
  153   123          12.8245384495         348.9734326763      PI        B1 (2)
  154    59          12.9496145389         352.3769260994      DE        A1 (1)
  155   212          12.9496145389         352.3769260994      DE        A2 (4)
  156    60          13.6567220135         371.6182986977     SG+        A1 (1)
  157   176          14.6041227281         397.3983827760      PI        B2 (3)
  158   124          14.6041227281         397.3983827761      PI        B1 (2)
  159    61          15.8244830126         430.6060743617     SG+        A1 (1)
  160    62          18.2418903563         496.3870724267     SG+        A1 (1)
  161   125          19.5460734325         531.8756981356      PI        B1 (2)
  162   177          19.5460734325         531.8756981360      PI        B2 (3)
  163    63          20.9944606624         571.2883183595     SG+        A1 (1)
  164    64          26.6235083199         724.4624923451      DE        A1 (1)
  165   213          26.6235083199         724.4624923453      DE        A2 (4)
  166   178          27.2641051676         741.8940187747      PI        B2 (3)
  167   126          27.2641051676         741.8940187747      PI        B1 (2)
  168    65          28.5485461434         776.8454346210     SG+        A1 (1)
  169   127          33.8464660537         921.0091645213      PI        B1 (2)
  170   179          33.8464660537         921.0091645214      PI        B2 (3)
  171    66          35.3265216715         961.2835253918     SG+        A1 (1)
  172    67          37.2005894026        1012.2795009413     SG+        A1 (1)
  173    68          47.1510073464        1283.0441385982      DE        A1 (1)
  174   214          47.1510073464        1283.0441385982      DE        A2 (4)
  175   180          47.9377670881        1304.4529595731      PI        B2 (3)
  176   128          47.9377670881        1304.4529595731      PI        B1 (2)
  177    69          48.7247302851        1325.8673168503     SG+        A1 (1)
  178    70          64.4328406139        1753.3067294965     SG+        A1 (1)
  179   129          66.9770946013        1822.5394002147      PI        B1 (2)
  180   181          66.9770946013        1822.5394002151      PI        B2 (3)
  181    71          68.0556288786        1851.8878099436     SG+        A1 (1)
  182   182          98.7146686408        2686.1626955889      PH        B2 (3)
  183   130          98.7146686408        2686.1626955889      PH        B1 (2)
  184   215          98.7460341383        2687.0161941662      DE        A2 (4)
  185    72          98.7460341383        2687.0161941663      DE        A1 (1)
  186   183          98.8219299055        2689.0814229870      PI        B2 (3)
  187   131          98.8219299055        2689.0814229870      PI        B1 (2)
  188    73          98.8395255851        2689.5602257702     SG+        A1 (1)
  189   184         103.2892349878        2810.6429743446      PH        B2 (3)
  190   132         103.2892349878        2810.6429743446      PH        B1 (2)
  191   216         103.3497900307        2812.2907608354      DE        A2 (4)
  192    74         103.3497900307        2812.2907608361      DE        A1 (1)
  193   185         103.3860748754        2813.2781216548      PI        B2 (3)
  194   133         103.3860748754        2813.2781216549      PI        B1 (2)
  195    75         103.4682313351        2815.5137125793     SG+        A1 (1)
  196    76         115.2550301810        3136.2488150339      DE        A1 (1)
  197   217         115.2550301810        3136.2488150339      DE        A2 (4)
  198   186         115.5658860246        3144.7076325752      PI        B2 (3)
  199   134         115.5658860246        3144.7076325752      PI        B1 (2)
  200    77         116.1606539057        3160.8920894235     SG+        A1 (1)
  201   135         117.0879862609        3186.1260856801      PI        B1 (2)
  202   187         117.0879862609        3186.1260856803      PI        B2 (3)
  203    78         118.4860169166        3224.1684338553     SG+        A1 (1)
  204    79         123.1294305536        3350.5221426176     SG+        A1 (1)
  205    80         198.6002055580        5404.1863367581      DE        A1 (1)
  206   218         198.6002055580        5404.1863367581      DE        A2 (4)
  207   136         199.0306774035        5415.9000711894      PI        B1 (2)
  208   188         199.0306774035        5415.9000711896      PI        B2 (3)
  209    81         199.4423635339        5427.1026203229     SG+        A1 (1)
  210    82         216.8909258756        5901.9021399825     SG+        A1 (1)
  211   137         225.3785828298        6132.8630275307      PI        B1 (2)
  212   189         225.3785828298        6132.8630275312      PI        B2 (3)
  213    83         226.2518416910        6156.6256092094     SG+        A1 (1)
  214   138         395.5397794941       10763.1845897648      PI        B1 (2)
  215   190         395.5397794941       10763.1845897657      PI        B2 (3)
  216    84         396.6164206808       10792.4814858819     SG+        A1 (1)
  217    85         509.6000705954       13866.9229016387     SG+        A1 (1)
  218    86         895.7316731245       24374.0979809134     SG+        A1 (1)


  VSCF finished.

 @CHECKOUT-I, Total execution time (CPU/WALL):       42.89/       8.84 seconds.
--executable xvscf finished with status     0 in        8.85 seconds (walltime).
 --invoking executable--
/nfs/workspaces/public/cfour_mpi/bin/xvtran
 @GETMEM-I,  Allocated    3814 MB of main memory.
  Full RHF integral transformation
  Transformation of IIII integrals :
  1 pass through the AO integral file was required.
     4632599 AO integrals were read.
     8851127 MO integrals were written to HF2.
  Transformation of IIJJ integrals :
  1 pass through the AO integral file was required.
    10465118 AO integrals were read.
    14667496 MO integrals were written to HF2.
  Transformation of IJIJ integrals :
  1 pass through the AO integral file was required.
    19851557 AO integrals were read.
    27598624 MO integrals were written to HF2.
  Transformation of IJKL integrals :
  1 pass through the AO integral file was required.
    14678509 AO integrals were read.
    18628059 MO integrals were written to HF2.
  Summary of active molecular orbitals: 
------------------------------------------------------------------------
 
  Index      Eigenvalue    Symmetry    Index      Eigenvalue    Symmetry
------------------------------------------------------------------------
     1       -20.6611398        1       110         4.2103478        2
     2       -11.3266372        1       111         4.3682037        2
     3        -1.5734211        1       112         4.7858159        2
     4        -0.8112320        1       113         5.2334830        2
     5        -0.5450813        1       114         5.8987667        2
     6        -0.6742445        2       115         6.2136498        2
     7        -0.6742445        3       116         6.3519038        2
     8         0.0582911        1       117         6.4617134        2
     9         0.0769005        1       118         7.6808767        2
    10         0.1558337        1       119         8.7127482        2
    11         0.2273189        1       120        10.1259296        2
    12         0.2281414        1       121        10.9418359        2
    13         0.3022958        1       122        11.4074151        2
    14         0.3948609        1       123        11.8580669        2
    15         0.5077841        1       124        12.8245384        2
    16         0.5292120        1       125        14.6041227        2
    17         0.6586332        1       126        19.5460734        2
    18         0.7706986        1       127        27.2641052        2
    19         0.7833868        1       128        33.8464661        2
    20         0.8754681        1       129        47.9377671        2
    21         0.8967198        1       130        66.9770946        2
    22         0.9407075        1       131        98.7146686        2
    23         1.2613879        1       132        98.8219299        2
    24         1.5070349        1       133       103.2892350        2
    25         1.5109513        1       134       103.3860749        2
    26         1.6606053        1       135       115.5658860        2
    27         1.7543685        1       136       117.0879863        2
    28         1.7753270        1       137       199.0306774        2
    29         2.1104574        1       138       225.3785828        2
    30         2.1806033        1       139       395.5397795        2
    31         2.2124669        1       140         0.0647800        3
    32         2.3250760        1       141         0.1524707        3
    33         2.3756688        1       142         0.1758004        3
    34         2.5149964        1       143         0.3297174        3
    35         3.0420336        1       144         0.3981270        3
    36         3.0695535        1       145         0.6203675        3
    37         3.4409277        1       146         0.7501022        3
    38         3.7396653        1       147         0.8332054        3
    39         3.9717747        1       148         0.8759614        3
    40         4.1759576        1       149         1.0954243        3
    41         4.2964577        1       150         1.4526464        3
    42         4.4141028        1       151         1.5415427        3
    43         4.6460875        1       152         1.8575501        3
    44         4.9658056        1       153         1.9474611        3
    45         5.1858620        1       154         2.2578873        3
    46         5.9123710        1       155         2.3395723        3
    47         6.1021312        1       156         2.3910498        3
    48         6.2165686        1       157         2.6082870        3
    49         6.3237281        1       158         2.9088481        3
    50         6.6432044        1       159         3.7625911        3
    51         7.1323059        1       160         4.0750882        3
    52         7.6514233        1       161         4.2103478        3
    53         8.0081537        1       162         4.3682037        3
    54         8.5233277        1       163         4.7858159        3
    55        10.1897316        1       164         5.2334830        3
    56        10.6006222        1       165         5.8987667        3
    57        11.2166593        1       166         6.2136498        3
    58        11.2541961        1       167         6.3519038        3
    59        12.0807155        1       168         6.4617134        3
    60        12.3685777        1       169         7.6808767        3
    61        12.9496145        1       170         8.7127482        3
    62        13.6567220        1       171        10.1259296        3
    63        15.8244830        1       172        10.9418359        3
    64        18.2418904        1       173        11.4074151        3
    65        20.9944607        1       174        11.8580669        3
    66        26.6235083        1       175        12.8245384        3
    67        28.5485461        1       176        14.6041227        3
    68        35.3265217        1       177        19.5460734        3
    69        37.2005894        1       178        27.2641052        3
    70        47.1510073        1       179        33.8464661        3
    71        48.7247303        1       180        47.9377671        3
    72        64.4328406        1       181        66.9770946        3
    73        68.0556289        1       182        98.7146686        3
    74        98.7460341        1       183        98.8219299        3
    75        98.8395256        1       184       103.2892350        3
    76       103.3497900        1       185       103.3860749        3
    77       103.4682313        1       186       115.5658860        3
    78       115.2550302        1       187       117.0879863        3
    79       116.1606539        1       188       199.0306774        3
    80       118.4860169        1       189       225.3785828        3
    81       123.1294306        1       190       395.5397795        3
    82       198.6002056        1       191         0.2281414        4
    83       199.4423635        1       192         0.5292120        4
    84       216.8909259        1       193         0.7706986        4
    85       226.2518417        1       194         0.8967198        4
    86       396.6164207        1       195         1.5070349        4
    87       509.6000706        1       196         1.7753270        4
    88       895.7316731        1       197         2.1104574        4
    89         0.0647800        2       198         2.2124669        4
    90         0.1524707        2       199         2.3756688        4
    91         0.1758004        2       200         3.0695535        4
    92         0.3297174        2       201         3.7396653        4
    93         0.3981270        2       202         4.1759576        4
    94         0.6203675        2       203         4.4141028        4
    95         0.7501022        2       204         5.1858620        4
    96         0.8332054        2       205         5.9123710        4
    97         0.8759614        2       206         6.3237281        4
    98         1.0954243        2       207         6.6432044        4
    99         1.4526464        2       208         7.6514233        4
   100         1.5415427        2       209        10.6006222        4
   101         1.8575501        2       210        11.2166593        4
   102         1.9474611        2       211        12.3685777        4
   103         2.2578873        2       212        12.9496145        4
   104         2.3395723        2       213        26.6235083        4
   105         2.3910498        2       214        47.1510073        4
   106         2.6082870        2       215        98.7460341        4
   107         2.9088481        2       216       103.3497900        4
   108         3.7625911        2       217       115.2550302        4
   109         4.0750882        2       218       198.6002056        4
------------------------------------------------------------------------
  -20.6611397923399       -11.3266371875106       -1.57342112107199     
 -0.811231988208543      -0.545081303149041      -0.674244475070805     
 -0.674244475070818       5.829114126690541E-002  7.690047322336305E-002
  0.155833700297917       0.227318891861575       0.228141420139875     
  0.302295766472247       0.394860925668105       0.507784111221690     
  0.529212038432018       0.658633168547694       0.770698646256341     
  0.783386766521087       0.875468136417727       0.896719789183900     
  0.940707470308362        1.26138793952627        1.50703487792683     
   1.51095126026665        1.66060527207158        1.75436854843691     
   1.77532702232241        2.11045743238042        2.18060326530273     
   2.21246691393987        2.32507604745541        2.37566884329279     
   2.51499635063196        3.04203357080298        3.06955347102688     
   3.44092771852949        3.73966534621551        3.97177469431580     
   4.17595763478942        4.29645765273284        4.41410278360759     
   4.64608748798284        4.96580559505030        5.18586202072777     
   5.91237095942860        6.10213122764268        6.21656864319873     
   6.32372807327055        6.64320439719874        7.13230588908543     
   7.65142332500440        8.00815366303692        8.52332772767118     
   10.1897316165748        10.6006221852582        11.2166593464702     
   11.2541960678922        12.0807154916100        12.3685776601661     
   12.9496145388709        13.6567220135431        15.8244830125635     
   18.2418903563251        20.9944606623514        26.6235083198701     
   28.5485461434143        35.3265216715092        37.2005894026448     
   47.1510073463654        48.7247302851305        64.4328406139199     
   68.0556288785972        98.7460341382812        98.8395255850967     
   103.349790030745        103.468231335099        115.255030181004     
   116.160653905728        118.486016916558        123.129430553597     
[...]
 Convergence information after     8 iterations: 
 Largest element of residual vector : -0.19836916E-04.
 Largest element of DIIS residual   :  0.15800888E-04.
 Convergence information after     9 iterations: 
 Largest element of residual vector :  0.69819531E-05.
 Largest element of DIIS residual   :  0.39476113E-05.
 Convergence information after    10 iterations: 
 Largest element of residual vector :  0.31547031E-05.
 Largest element of DIIS residual   :  0.20686443E-05.
 Convergence information after    11 iterations: 
 Largest element of residual vector :  0.10347836E-05.
 Largest element of DIIS residual   :  0.47924300E-06.
 Convergence information after    12 iterations: 
 Largest element of residual vector :  0.43965997E-06.
 Largest element of DIIS residual   :  0.25862945E-06.
 Convergence information after    13 iterations: 
 Largest element of residual vector :  0.17054850E-06.
 Largest element of DIIS residual   :  0.15906209E-06.
 Convergence information after    14 iterations: 
 Largest element of residual vector :  0.11546793E-06.
 Largest element of DIIS residual   :  0.78544074E-07.
 Perturbed amplitude equations converged in    14 iterations.
  Dominant contributions to perturbed wavefunction:
    7    7  142   37   0.2455544733 ABAB
    7    7   37  142   0.2455544733 ABAB
    7    7  142   27   0.2249838211 ABAB
    7    7   27  142   0.2249838211 ABAB
    7    7  142   55   0.1880682816 ABAB
    7    7   55  142   0.1880682816 ABAB
    7    7  142   63   0.1840805892 ABAB
    7    7   63  142   0.1840805892 ABAB
    7    7  142   47   0.1698917818 ABAB
    7    7   47  142   0.1698917818 ABAB
    7    6   37   91   0.1662778266 ABAB
    6    7   91   37   0.1662778266 ABAB
    7    6   27   91   0.1517845220 ABAB
    6    7   91   27   0.1517845220 ABAB
    7    7  142   51  -0.1465764360 ABAB
    7    7   51  142  -0.1465764360 ABAB
    7    7  142   19   0.1413205767 ABAB
    7    7   19  142   0.1413205767 ABAB
    5    5  142   44   0.1381003154 ABAB
    5    5   44  142   0.1381003154 ABAB
  norm of converged amps    2.65626193734703     
 Starting iterative solution of the perturbed Lambda equations.
 The DIIS procedure is used to accelerate convergence.
 Convergence criterion is 10**(-7).
 Maximum number of iterations is 100.
 Convergence information after     1 iterations: 
 Largest element of residual vector : -0.65665194E-01.
 Largest element of DIIS residual   : -0.65665194E-01.
 Convergence information after     2 iterations: 
 Largest element of residual vector :  0.66419662E-02.
 Largest element of DIIS residual   :  0.55990651E-02.
 Convergence information after     3 iterations: 
 Largest element of residual vector : -0.36996941E-02.
 Largest element of DIIS residual   : -0.33199817E-02.
 Convergence information after     4 iterations: 
 Largest element of residual vector : -0.23340854E-02.
 Largest element of DIIS residual   : -0.17949788E-02.
 Convergence information after     5 iterations: 
 Largest element of residual vector : -0.13004703E-02.
 Largest element of DIIS residual   : -0.59591491E-03.
 Convergence information after     6 iterations: 
 Largest element of residual vector : -0.41304879E-03.
 Largest element of DIIS residual   : -0.97613639E-04.
 Convergence information after     7 iterations: 
 Largest element of residual vector : -0.70462983E-04.
 Largest element of DIIS residual   : -0.35340851E-04.
 Convergence information after     8 iterations: 
 Largest element of residual vector : -0.15482499E-04.
 Largest element of DIIS residual   :  0.13202239E-04.
 Convergence information after     9 iterations: 
 Largest element of residual vector :  0.59423288E-05.
 Largest element of DIIS residual   :  0.33902959E-05.
 Convergence information after    10 iterations: 
 Largest element of residual vector :  0.26415026E-05.
 Largest element of DIIS residual   :  0.17650578E-05.
 Convergence information after    11 iterations: 
 Largest element of residual vector :  0.87859096E-06.
 Largest element of DIIS residual   :  0.46082616E-06.
 Convergence information after    12 iterations: 
 Largest element of residual vector :  0.39572512E-06.
 Largest element of DIIS residual   :  0.25068518E-06.
 Convergence information after    13 iterations: 
 Largest element of residual vector :  0.16390965E-06.
 Largest element of DIIS residual   :  0.15416761E-06.
 Convergence information after    14 iterations: 
 Largest element of residual vector :  0.11182129E-06.
 Largest element of DIIS residual   :  0.74720476E-07.
 Perturbed Lambda equations converged in    14 iterations.
  Dominant contributions to perturbed wavefunction:
    7    7  142   37   0.2352259972 ABAB
    7    7   37  142   0.2352259972 ABAB
    7    7  142   27   0.2147165764 ABAB
    7    7   27  142   0.2147165764 ABAB
    7    7  142   55   0.1783163089 ABAB
    7    7   55  142   0.1783163089 ABAB
    7    7  142   63   0.1759820365 ABAB
    7    7   63  142   0.1759820365 ABAB
    7    7  142   47   0.1623641165 ABAB
    7    7   47  142   0.1623641165 ABAB
    7    6   37   91   0.1575409912 ABAB
    6    7   91   37   0.1575409912 ABAB
    7    6   27   91   0.1430754057 ABAB
    6    7   91   27   0.1430754057 ABAB
    7    7  142   51  -0.1404579844 ABAB
    7    7   51  142  -0.1404579844 ABAB
    7    7  142   19   0.1349355876 ABAB
    7    7   19  142   0.1349355876 ABAB
    5    5  142   44   0.1322309383 ABAB
    5    5   44  142   0.1322309383 ABAB
        The DBOC first-order density matrix is being calculated 
             (Symmetry block 3, perturbation   2)
 term   8.35305517620096     
 final tnorm  0.896241174731896     
  norm contr. I: |<0|L dT/dx|0>|^2   0.000000000000000E+000
  norm contr. II: <0|[nabla(1+L)e-T][nabla e^T]|0>   8.35305517620096     
  total norm contribution   8.35305517620096     
 oo  1.311418618467848E-002
 vv  -62.7308400825421     
 vo  3.399090532947848E-002
  Correlated perturbed 1-el contribution to DBOC  -62.6837349910279       cm**-1
  SUM_I |dc_I/dx|^2 contribution to DBOC   31.4468270731029       cm**-1
 
 
  The total diagonal Born-Oppenheimer correction (DBOC) is:      0.0041485922 a.u.
  The total diagonal Born-Oppenheimer correction (DBOC) is:        910.510743 cm-1
 
 Total CC energy including DBOC  -113.269489958365     
 First-order density matrix is being calculated  (Symmetry block 3, perturbation   2)
 Calculation of the contributions of <pq||rs> to dI(i,j)/dx required   1.9 seconds.
 Calculation of the contributions of <pq||rs> to dI(a,b)/dx required  15.7 seconds.
 Calculation of the contributions of <pq||rs> to dI(i,a)/dx required   9.3 seconds.
 First-order Z-vector equations are solved for 1 perturbation.
 Convergence reached after  17 iterations.
        U*G(pq,rs) contribution is being calculated
             (Symmetry block 3, perturbation   2)

 CCSD contribution to force constants 

        0.0000000000        0.0000000000        0.0000000000
        0.0000000000        0.0000000000        0.0000000000
        0.0000000000        0.0000000000        0.0000000000
        0.0000000000        0.0000000000        0.0000000000
        0.0000000000        0.0000000000        0.0000000000
        0.0000000000        0.0000000000        0.0000000000
        0.0000000000        0.0000000000        0.0000000000
        0.0000000000        0.0000000000        0.0000000000
        0.0000000000        0.0000000000        0.0000000000
        0.0000000000        0.0000000000        0.0000000000
        0.0000000000        0.0000000000        0.0000000000
        0.0000000000       -6.5474243265        6.5474243265

 CCSD contribution to dipole derivatives 

        0.0000000000        0.0000000000        0.0000000000
        0.0000000000        0.0000000000        0.0000000000
        0.0000000000        0.0000000000        0.0000000000
        0.0000000000        0.0000000000       -0.0412516190
        0.0000000000        0.0000000000        0.0000000000
        0.0000000000        0.0000000000        0.0000000000
 @CHECKOUT-I, Total execution time (CPU/WALL):      999.23/     260.50 seconds.
--executable xsdcc finished with status     0 in      260.55 seconds (walltime).
 --invoking executable--
/nfs/workspaces/public/cfour_mpi/bin/xanti
 @GETMEM-I,  Allocated    3814 MB of main memory.
 CCSD MO derivative gammas will be sorted to Mulliken order.
 @CHECKOUT-I, Total execution time (CPU/WALL):        9.08/      16.30 seconds.
--executable xanti finished with status     0 in       16.34 seconds (walltime).
 --invoking executable--
/nfs/workspaces/public/cfour_mpi/bin/xbcktrn
 @GETMEM-I,  Allocated    3814 MB of main memory.
 CCSD MO derivative gammas will be transformed to the AO basis.
 @CHECKOUT-I, Total execution time (CPU/WALL):       25.02/       3.78 seconds.
--executable xbcktrn finished with status     0 in        3.79 seconds (walltime).
 --invoking executable--
/nfs/workspaces/public/cfour_mpi/bin/xvdint
 @GETMEM-I,  Allocated    3814 MB of main memory.
 One- and two-electron integral derivatives are calculated
 for RHF-CC/MBPT hessians and dipole derivatives.
 Spherical gaussians are used.
  magnet F F
                    8722  records have been written to the Sort file.
  Total length of Sort file :             178609116  words.
 Evaluation of 2el integral derivatives

                      Two-electron integral gradient
                      ------------------------------

                         C #1 z     0.0000000000
                         O #2 z     0.0000000000


 C #1       0.0000000000           -1.0057626766            0.0000000000
 O #2       0.0000000000            1.0057626766            0.0000000000


 Evaluation of 2e integral derivatives required  338.27 seconds.
  contribution to Hessian
        0.0000000000        0.0000000000        0.0000000000
        0.0000000000       -1.0057626766        1.0057626766
 @CHECKOUT-I, Total execution time (CPU/WALL):      338.26/      68.33 seconds.
--executable xvdint finished with status     0 in       68.35 seconds (walltime).
 --invoking executable--
/nfs/workspaces/public/cfour_mpi/bin/xanti
 @GETMEM-I,  Allocated    3814 MB of main memory.
 CCSD MO gammas will be sorted to Mulliken order.
 @CHECKOUT-I, Total execution time (CPU/WALL):       11.52/      10.10 seconds.
--executable xanti finished with status     0 in       10.12 seconds (walltime).
 --invoking executable--
/nfs/workspaces/public/cfour_mpi/bin/xbcktrn
 @GETMEM-I,  Allocated    3814 MB of main memory.
 CCSD MO gammas will be transformed to the AO basis.
 @CHECKOUT-I, Total execution time (CPU/WALL):       29.78/       4.79 seconds.
--executable xbcktrn finished with status     0 in        4.80 seconds (walltime).
 --invoking executable--
/nfs/workspaces/public/cfour_mpi/bin/xvdint
 @GETMEM-I,  Allocated    3814 MB of main memory.
 One- and two-electron integral derivatives are calculated
 for RHF-CC/MBPT hessians and dipole derivatives.
 Spherical gaussians are used.
  magnet F F

                     Kinetic energy integral gradient
                     --------------------------------

                         C #1 z    -1.7303849220
                         O #2 z     1.7303849220


 C #1       0.0000000000            0.0000000000           -1.7303849220
 O #2       0.0000000000            0.0000000000            1.7303849220



                   Nuclear attraction integral gradient
                   ------------------------------------

                         C #1 z    25.6373622604
                         O #2 z   -25.6373622604


 C #1       0.0000000000            0.0000000000           25.6373622604
 O #2       0.0000000000            0.0000000000          -25.6373622604



                      Reorthonormalization gradient
                      -----------------------------

                         C #1 z     0.0000000000
                         O #2 z     0.0000000000


 C #1       0.0000000000            0.0000000000            0.0000000000
 O #2       0.0000000000            0.0000000000            0.0000000000



                     Kinetic energy integral Hessian
                     -------------------------------


           Symmetry 1

           C #1 z      O #2 z

 C #1 z    0.986870
 O #2 z   -0.986870    0.986870


           Symmetry 2

           C #1 x      O #2 x

 C #1 x   -2.609244
 O #2 x    2.609244   -2.609244


           Symmetry 3

           C #1 y      O #2 y

 C #1 y   -2.609244
 O #2 y    2.609244   -2.609244




           C #1 x      C #1 y      C #1 z      O #2 x      O #2 y      O #2 z

 C #1 x   -2.609244
 C #1 y    0.000000   -2.609244
 C #1 z    0.000000    0.000000    0.986870

 O #2 x    2.609244    0.000000    0.000000   -2.609244
 O #2 y    0.000000    2.609244    0.000000    0.000000   -2.609244
 O #2 z    0.000000    0.000000   -0.986870    0.000000    0.000000    0.986870




                   Nuclear attraction integral Hessian
                   -----------------------------------


           Symmetry 1

           C #1 z      O #2 z

 C #1 z  -13.357110
 O #2 z   13.357110  -13.357110


           Symmetry 2

           C #1 x      O #2 x

 C #1 x   25.526178
 O #2 x  -25.526178   25.526178


           Symmetry 3

           C #1 y      O #2 y

 C #1 y   25.526178
 O #2 y  -25.526178   25.526178




           C #1 x      C #1 y      C #1 z      O #2 x      O #2 y      O #2 z

 C #1 x   25.526178
 C #1 y    0.000000   25.526178
 C #1 z    0.000000    0.000000  -13.357110

 O #2 x  -25.526178    0.000000    0.000000   25.526178
 O #2 y    0.000000  -25.526178    0.000000    0.000000   25.526178
 O #2 z    0.000000    0.000000   13.357110    0.000000    0.000000  -13.357110




                Highest order reorthonormalization Hessian
                ------------------------------------------


           Symmetry 1

           C #1 z      O #2 z

 C #1 z    0.000000
 O #2 z    0.000000    0.000000


           Symmetry 2

           C #1 x      O #2 x

 C #1 x    0.000000
 O #2 x    0.000000    0.000000


           Symmetry 3

           C #1 y      O #2 y

 C #1 y    0.000000
 O #2 y    0.000000    0.000000




           C #1 x      C #1 y      C #1 z      O #2 x      O #2 y      O #2 z




                Electronic contributions to dipole moment
                -----------------------------------------

                               au             Debye

                    z     -0.13840762     -0.35179714

  Conversion factor used: 1 a.u. =   2.54174691 Debye 



   Electronic contributions to static part of dipole moment derivatives
   --------------------------------------------------------------------


                     Total dipole moment derivatives
                     -------------------------------


           Symmetry 1
                              Ez

               C #1 z    -5.77451662
               O #2 z    -8.22548338

           Symmetry 2
                              Ex

               C #1 x    -5.84398196
               O #2 x    -8.15601804

           Symmetry 3
                              Ey

               C #1 y    -5.84398196
               O #2 y    -8.15601804



                       Ex          Ey          Ez

      C #1    x   -5.843982    0.000000    0.000000
      C #1    y    0.000000   -5.843982    0.000000
      C #1    z    0.000000    0.000000   -5.774517

      O #2    x   -8.156018    0.000000    0.000000
      O #2    y    0.000000   -8.156018    0.000000
      O #2    z    0.000000    0.000000   -8.225483

 Evaluation of 1e integral derivatives required    1.70 seconds.
                    8815  records have been written to the Sort file.
  Total length of Sort file :             180513570  words.
 Evaluation of 2el integral derivatives

                      Two-electron integral gradient
                      ------------------------------

                         C #1 z   -11.6587901160
                         O #2 z    11.6587901160


 C #1       0.0000000000            0.0000000000          -11.6587901160
 O #2       0.0000000000            0.0000000000           11.6587901160


 Evaluation of 2e integral derivatives required  671.98 seconds.

                            Molecular gradient
                            ------------------

                         C #1 z     0.1757080703
                         O #2 z    -0.1757080703


 C #1       0.0000000000            0.0000000000            0.1757080703
 O #2       0.0000000000            0.0000000000           -0.1757080703


  Molecular gradient norm 0.248E+00

                            Molecular hessian
                            -----------------


           Symmetry 1

           C #1 z      O #2 z

 C #1 z   79.970320
 O #2 z  -79.970320   79.970320


           Symmetry 2

           C #1 x      O #2 x

 C #1 x    7.361993
 O #2 x   -7.361993    7.361993


           Symmetry 3

           C #1 y      O #2 y

 C #1 y    7.361993
 O #2 y   -7.361993    7.361993




           C #1 x      C #1 y      C #1 z      O #2 x      O #2 y      O #2 z

 C #1 x    7.361993
 C #1 y    0.000000    7.361993
 C #1 z    0.000000    0.000000   79.970320

 O #2 x   -7.361993    0.000000    0.000000    7.361993
 O #2 y    0.000000   -7.361993    0.000000    0.000000    7.361993
 O #2 z    0.000000    0.000000  -79.970320    0.000000    0.000000   79.970320




                           Total dipole moment
                           -------------------

                               au             Debye

                    z     -0.14058091     -0.35732109

  Conversion factor used: 1 a.u. =   2.54174691 Debye 



                     Total dipole moment derivatives
                     -------------------------------


           Symmetry 1
                              Ez

               C #1 z     0.69857094
               O #2 z    -0.69857094

           Symmetry 2
                              Ex

               C #1 x    -0.07384130
               O #2 x     0.07384130

           Symmetry 3
                              Ey

               C #1 y    -0.07384130
               O #2 y     0.07384130



                       Ex          Ey          Ez

      C #1    x   -0.073841    0.000000    0.000000
      C #1    y    0.000000   -0.073841    0.000000
      C #1    z    0.000000    0.000000    0.698571

      O #2    x    0.073841    0.000000    0.000000
      O #2    y    0.000000    0.073841    0.000000
      O #2    z    0.000000    0.000000   -0.698571

 @CHECKOUT-I, Total execution time (CPU/WALL):      673.68/     113.52 seconds.
--executable xvdint finished with status     0 in      113.54 seconds (walltime).
 --invoking executable--
/nfs/workspaces/public/cfour_mpi/bin/xjoda
  @GTFLGS-I, Hessian will be transformed to curvilinear coordinates.
  @GTFLGS-I, Hessian will be transformed to curvilinear coordinates.
  igrd and ihes are                      0                     1
  gradient from JOBARC 
   0.000000000000000   0.000000000000000   0.175708070253461
   0.000000000000000   0.000000000000000  -0.175708070253461
 
  @PROJFCM-I, Projecting force constant matrix onto totally symmetric subspace.
  Largest difference between matrix elements of symmetrized
  and unsymmetrized FCM :     0.1695443785E-10.
  read isotopes from ZMAT file 
 
  Summary of diagonal Born-Oppenheimer correction at the correlated level
  The total diagonal Born-Oppenheimer correction (DBOC) is:      0.0041485922 a.u.
  The total diagonal Born-Oppenheimer correction (DBOC) is:        910.510743 cm-1
  The total diagonal Born-Oppenheimer correction (DBOC) is:            10.892 kJ/mole
  hellooooooo 
  readis is  F
 
 @CHECKOUT-I, Total execution time (CPU/WALL):        0.01/       0.04 seconds.
--executable xjoda finished with status     0 in        0.05 seconds (walltime).
  The final electronic energy is      -113.269489958364900 a.u. 
  This computation required                         2572.16 seconds (walltime).
