 --invoking executable--
/nfs/workspaces/public/cfour_mpi/bin/xjoda


   *************************************************************************
         <<<     CCCCCC     CCCCCC   |||     CCCCCC     CCCCCC   >>>
       <<<      CCC        CCC       |||    CCC        CCC         >>>
      <<<      CCC        CCC        |||   CCC        CCC            >>>
    <<<        CCC        CCC        |||   CCC        CCC              >>>
      <<<      CCC        CCC        |||   CCC        CCC            >>>
       <<<      CCC        CCC       |||    CCC        CCC         >>>
         <<<     CCCCCC     CCCCCC   |||     CCCCCC     CCCCCC   >>>
   *************************************************************************

     ****************************************************************
     * CFOUR Coupled-Cluster techniques for Computational Chemistry *
     ****************************************************************
 

   Department of Chemistry                Institut fuer Physikalische Chemie
   University of Florida                  Universitaet Mainz
   Gainesville, FL 32611, USA             D-55099 Mainz, Germany

   Department of Chemistry                Fakultaet fuer Chemie und Biowiss.
   Johns Hopkins University               Karlsruher Institut fuer Technologie
   Baltimore, MD 21218, USA               D-76131 Karlsruhe, Germany

   Department of Chemistry                Department of Physical Chemistry
   Southern Methodist University          Eotvos Lorand University
   Dallas, TX 75275, USA                  H-1053 Budapest, Hungary

 
                       Version 2.1
 
                     vincent.theory.phys.ucl.ac.uk                     
                     Tue 25 Feb 05:51:06 GMT 2025                      
                     integer*8 version is running
 
********************************************************************************
*                          Input from ZMAT file                                *
********************************************************************************
Carbon Monoxide DBOC calculation                                                
C                                                                               
O 1 r                                                                           
                                                                                
r=1.2413793103448276                                                            
                                                                                
                                                                                
*CFOUR(CALC=CCSD,BASIS=AUG-PCVQZ,SCF_CONV=10                                    
CC_CONV=14,DBOC=ON,MEMORY=500000000                                             
ZFIELD=-200)                                                                    
                                                                                
%isotopes                                                                       
12                                                                              
16                                                                              
********************************************************************************
  @GTFLGS-I, Hessian will be transformed to curvilinear coordinates.
    -------------------------------------------------------------------
                    CFOUR Control Parameters 
    -------------------------------------------------------------------
        External           Internal           Value            Units
          Name               Name
    -------------------------------------------------------------------
       ABCDTYPE             IABCDT         STANDARD    [  0]    ***   
       ANHARMONIC           IANHAR         OFF         [  0]    ***   
       ANH_ALGORIT          IANALG         STANDARD    [  0]    ***   
       ANH_DERIVAT          IANDER         SECOND      [  1]    ***   
       ANH_MODE             ANHMOD         VIBRATION   [  0]    ***   
       ANH_STEPSIZ          ICUBST             50000          x 10-6  
       ANH_SYMMETR          IANHSM         ABELIAN     [  0]    ***   
       AO_LADDERS           IAOLAD         SINGLEPASS  [  1]    ***   
       AV_SCF               IAVSCF         OFF         [  0]    ***   
       BASIS                IBASIS         AUG-PCVQZ   [ 52]    ***   
       BOTHVECTORS          BOTHVC         OFF         [  0]    ***   
       BOX_POTENT           IPIAB          OFF         [  0]    ***   
       BREIT                IBREIT         OFF         [  0]    ***   
       BRUCK_CONV           IBRTOL          10D-  4             ***   
       BRUECKNER            IBRKNR         OFF         [  0]    ***   
       BUFFERSIZE           IBUFFS              4096            ***   
       CACHE_RECS           ICHREC             10               ***   
       CALCLEVEL            ICLLVL         CCSD        [ 10]    ***   
       CCORBOPT             ICCORB         OFF         [  0]  x 0.01  
       CC_CONV              ICCCNV          10D- 14             ***   
       CC_EXPORDER          ICCEOR              5               ***   
       CC_EXTRAPOL          ICCEXT         DIIS        [  1]    ***   
       CC_GUESS             ICCGES         MP2         [  0]    ***   
       CC_MAXCYC            ICCCYC            100              cycles 
       CC_PROGRAM           ICCPRO         VCC         [  0]    ***   
       CHARGE               ICHRGE              0               ***   
       CHOLESKY             ICHOLE         OFF         [  0]    ***   
       CIS_CONV             ICISTL              5               ***   
       COMM_SIZE            IPSIZE            ***               ***   
       CONSTANT             ICONST         OLD         [  1]    ***   
       CONTINUUM            ICONTU         NONE        [  0]    ***   
       CONTRACTION          ICNTYP         GENERAL     [  1]    ***   
       COORDINATES          ICOORD         INTERNAL    [  0]    ***   
       CPHF_CONVER          ICPHFT          10D- 16             ***   
       CPHF_MAXCYC          ICPHFC             64              cycles 
       CUBIC                ICUBIC         OFF         [  0]    ***   
       CURVILINEAR          ICURVY         ON          [  1]    ***   
       DBOC                 IDBOC          ON          [  1]    ***   
       DCT                  IDCT           OFF         [  0]    ***   
       DERIV_LEV            IDRLVL         SECOND      [  2]    ***   
       DEVMEM_SIZE          IDVMEM          50000000           MByte  
       DIAG_MRCC            IEOMST          10D-  0             ***   
       DIFF_TYPE            IDIFTY         RELAXED     [  0]    ***   
       DIRECT               IDIRCT         OFF         [  0]    ***   
       DROPMO               IDRPMO      NONE         
       ECP                  IECP           OFF         [  0]    ***   
       EIGENVECTOR          IVEC                1               ***   
       EL_ANHARM            IELANH         OFF         [  0]    ***   
       EOMFOLLOW            IEOMSR         ENERGY      [  0]    ***   
       EOMIP                IEOMIP         OFF         [  0]    ***   
       EOMLEVEL             HBARFM         SAME        [  0]    ***   
       EOM_MRCC             IMRCCE         NEW         [  1]    ***   
       EOM_NONIT            EOMNON         OFF         [  0]    ***   
       EOM_NSING            IEOMSI          10D-  0             ***   
       EOM_NSTATES          IMRCCD         DAVIDSON    [  0]    ***   
       EOM_NTRIP            IEOMTR          10D-  0             ***   
       EOM_ORDER            IEXORD         ENERGY      [  0]    ***   
       EOM_PROPSTA          IEOMST              0               ***   
       ESTATE_CONV          IEXTOL          10D-  5             ***   
       ESTATE_DIAG          IEXDIG         ITERATIVE   [  0]    ***   
       ESTATE_LOCK          IESLOC         ON          [  1]    ***   
       ESTATE_MAXC          IEXMXC             40               ***   
       ESTATE_PROP          IEXPRP         OFF         [  0]    ***   
       EVAL_HESS            IRECAL              0            # of cyc.
       EXCITATION           IEXCIT              0               ***   
       EXCITE               IEXCIT         NONE        [  0]    ***   
       EXTERN_POT           IEXPOT         OFF         [  0]    ***   
       FCGRADNEW            IFCGNW         OFF         [  0]    ***   
       FC_FIELD             IFINFC              0             x 10-6  
       FD_CALTYPE           IFDCAL         GRADONLY    [  0]    ***   
       FD_PROJECT           IFDPRJ         OFF         [  1]    ***   
       FD_STEPSIZE          IDISFD              0            10-4 bohr
       FD_USEGROUP          IFDGRP         FULL        [  0]    ***   
       FILE_RECSIZ          IFLREC              4096           words  
       FINITE_PERT          IFIPER              0             x 10-6  
       FIXGEOM              IFIXGM         OFF         [  0]    ***   
       FOCK                 IFOCK          AO          [  1]    ***   
       FREQ_ALGORI          IVIALG         STANDARD    [  0]    ***   
       FROZEN_CORE          IFROCO         OFF         [  0]    ***   
       GAMMA_ABCD           IGABCD         STORE       [  0]    ***   
       GAMMA_ABCI           IGABCI         STORE       [  0]    ***   
       GENBAS_1             IGNBS1              0               ***   
       GENBAS_2             IGNBS2              0               ***   
       GENBAS_3             IGNBS3              0               ***   
       GENBAS_4             IGNBS4              0               ***   
       GEO_CONV             ICONTL              5              H/bohr 
       GEO_MAXCYC           IOPTCY             50               ***   
       GEO_MAXSTEP          IMXSTP            300            millibohr
       GEO_METHOD           INR            SINGLE_POINT[  5]    ***   
       GIAO                 IGIAO          OFF         [  1]    ***   
       GIMIC                IGIMIC         OFF         [  0]    ***   
       GRID                 IGRID          OFF         [  0]    ***   
       GRID_ALGO            IGALGO         SERIAL      [  0]    ***   
       GUESS                IGUESS         MOREAD      [  0]    ***   
       HBAR                 IHBAR          OFF         [  0]    ***   
       HESS_TYPE            IHESTP         SCF         [  0]    ***   
       HF2_FILE             IHF2Fl         USE         [  1]    ***   
       HFSTABILITY          ISTABL         OFF         [  0]    ***   
       INCORE               INCORE         OFF         [  0]    ***   
       INPUT_MRCC           IMRCC          ON          [  1]    ***   
       INTEGRALS            INTTYP         VMOL        [  1]    ***   
       JODA_PRINT           IJPRNT              0               ***   
       KEYWORD_OUT          IDMPKW         NO          [  0]    ***   
       LINDEP_TOL           ILINDP              8               ***   
       LINEQ_CONV           IZTACN          10D-  7           cycles  
       LINEQ_EXPOR          ILMAXD              5               ***   
       LINEQ_MAXCY          ILMAXC            100               ***   
       LINEQ_TYPE           ILTYPE         DIIS        [  1]    ***   
       LOCK_ORBOCC          ILOCOC         OFF         [  0]    ***   
       MEMORY_SIZE          IMEMSZ         500000000           words  
       MEM_UNIT             IMEMU          INTEGERWORDS[  0]    ***   
       MRCC                 IMRCCC         OFF         [  0]    ***   
       MULTIPLICTY          IMULTP              1               ***   
       NACOUPLING           IVCOUP         OFF         [  0]    ***   
       NEGEVAL              IDIE           ABORT       [  0]    ***   
       NEWNORM              INEWNO         OFF         [  0]    ***   
       NON-HF               INONHF         OFF         [  0]    ***   
       NTOP_TAMP            ITOPT2             15               ***   
       NUC_MODEL            INUCMO         POINT       [  0]    ***   
       OCCUPATION           IOCCU   ESTIMATED BY SCF 
       OPEN-SHELL           IOPEN          SPIN-ORBITAL[  0]    ***   
       OPTVIB               IOPTVB         OFF         [  0]    ***   
       ORBITALS             IORBTP         STANDARD    [  0]    ***   
       PARALLEL             IPARAL         ON          [  1]    ***   
       PARA_INT             IPINTS         ON          [  1]    ***   
       PARA_PRINT           IPPRIN              0               ***   
       PERT_ORB             IPTORB         STANDARD    [  0]    ***   
       POINTS               IGRDFD              0               ***   
       PRINT                IPRNT               0               ***   
       PROPS                IPROPS         OFF         [  0]    ***   
       PROP_INTEGR          IINTYP         INTERNAL    [  0]    ***   
       PSI                  IPSI           OFF         [  0]    ***   
       QC_ALG               IQCALG         FLM         [  0]    ***   
       QC_LINALG            IQCLIN         TRIDIAG     [  2]    ***   
       QC_MAXCYC            IQCMAX          10D-100           cycles  
       QC_MAXSCFCY          IQCMSC          10D- 15           cycles  
       QC_RTRUST            IQCRTR          10D-  0           x 10-3  
       QC_SKIPSCF           IQCSKI         OFF         [  0]    ***   
       QC_START             IQCSTA          10D-  1             ***   
       QRHFGUESS            IQGUES         OFF         [  0]    ***   
       QUARTIC              IQUART         OFF         [  0]    ***   
       RAMAN_INT            IRAMIN         OFF         [  0]    ***   
       RAMAN_ORB            IRAMRE         UNRELAXED   [  0]    ***   
       RDO                  IRDOFM         ON          [  1]    ***   
       REDUCE_REPR          REDREP         Ir          [  0]    ***   
       REFERENCE            IREFNC         RHF         [  0]    ***   
       RELATIVIST           IRELAT         OFF         [  0]    ***   
       RELAX_DENS           IRDENS         ON          [  1]    ***   
       RESET_FLAGS          IRESET         OFF         [  0]    ***   
       RESTART_CC           ICCRES         OFF         [  0]    ***   
       ROT_EVEC             ROTVEC              0               ***   
       SAVE_INTS            ISVINT         OFF         [  0]    ***   
       SCALE_ON             ISTCRT              0               ***   
       SCF_CONV             ISCFCV          10D- 10             ***   
       SCF_DAMPING          IDAMP               0             x 10-3  
       SCF_EXPORDE          IRPPOR              6               ***   
       SCF_EXPSTAR          IRPPLS              8               ***   
       SCF_EXTRAPO          IRPP           ON          [  1]    ***   
       SCF_MAXCYC           ISCFCY            150              cycles 
       SCF_NOSTOP           ISCFST         OFF         [  0]    ***   
       SCF_PRINT            ISCFPR              0               ***   
       SCF_PROG             ISCFPR         SCF         [  0]    ***   
       SD_FIELD             IFINSD              0             x 10-6  
       SOPERT               IPERSO         OFF         [  0]    ***   
       SPHERICAL            IDFGHI         ON          [  1]    ***   
       SPINORBIT            ISOCAL         OFF         [  0]    ***   
       SPINROTATIO          ISRCON         OFF         [  0]    ***   
       SPIN_FLIP            ISPFLP         OFF         [  0]    ***   
       SPIN_ORBIT           ISPORB         OFF         [  0]    ***   
       SPIN_SCAL            ISCSMP         OFF         [  0]    ***   
       STEEPSCALE           ISTPSC              1000          x 10-3  
       SUBGROUP             ISUBGP         DEFAULT     [  0]    ***   
       SUBGRPAXIS           ISBXYZ         X           [  0]    ***   
       SYMMETRY             ISYM           ON          [  0]    ***   
       SYM_CHECK            ISYMCK         OVERRIDE    [  1]    ***   
       T3_EXTRAPOL          IT3EXT         OFF         [  0]    ***   
       T4_EXTRAPOL          IT4EXP         OFF         [  0]    ***   
       TAMP_SUM             IEVERY              5               ***   
       TESTSUITE            ITESTS         OFF         [  0]    ***   
       THERMOCH             ITHERM         OFF         [  0]    ***   
       TOL_CHOLESK          ITOLCH          10D-  4             ***   
       TRANGRAD             IRESRM         OFF         [  0]    ***   
       TRANS_INV            ITRAIN         IGNORE      [  1]    ***   
       TREAT_PERT           ITREAT         SIMULTANEOUS[  0]    ***   
       TRIP_ALGORI          ITRALG         NORMAL      [  0]    ***   
       UIJ_THRESHO          IUIJTH              1               ***   
       UNITS                IUNITS         ANGSTROM    [  0]    ***   
       UNOS                 IUNOS          OFF         [  0]    ***   
       UPDATE_HESS          IHUPDT         ON          [  1]    ***   
       VIBPHASE             ISETPH         STANDARD    [  0]    ***   
       VIBRATION            IVIB           ANALYTIC    [  1]    ***   
       VIB_ALGORIT          IGEALG         STANDARD    [  0]    ***   
       VNATORB              IVNORB         OFF         [  0]    ***   
       VTRAN                IVTRAN         FULL/PARTIAL[  0]    ***   
       XFIELD               IXEFLD              0             x 10-6  
       XFORM_TOL            IXFTOL          10D- 11             ***   
       YFIELD               IYEFLD              0             x 10-6  
       ZFIELD               IZEFLD            ***             x 10-6  
       ZSCALE_EXP           IZEXPS         OFF         [  0]    ***   
    -------------------------------------------------------------------
   2 entries found in Z-matrix 
   Job Title : Carbon Monoxide DBOC calculation                                                
   There are  1 unique internal coordinates.
   Of these,  0 will be optimized.
   User supplied Z-matrix: 
--------------------------------------------------------------------------------
       SYMBOL    BOND      LENGTH    ANGLE     ANGLE     DIHED     ANGLE
                  TO      (ANGST)    WRT      (DEG)      WRT      (DEG)
--------------------------------------------------------------------------------
        C    
        O          1         r    
                  *Initial values for internal coordinates* 
                      Name             Value
                        r               1.2413793103
--------------------------------------------------------------------------------
  read isotopes from ZMAT file 
   Rotational constants (in cm-1): 
          1.5955246727             1.5955246727
   Rotational constants (in MHz): 
      47832.6330445953         47832.6330445953
********************************************************************************
   The full molecular point group is CXv .
   The largest Abelian subgroup of the full molecular point group is C2v .
   The computational point group is C2v .
********************************************************************************
--------------------------------------------------------------------------------
   Analysis of internal coordinates specified by Z-matrix 
--------------------------------------------------------------------------------
   *The nuclear repulsion energy is   20.461514533333329 a.u.
   *There is   1 degree of freedom within the tot. symm. molecular subspace.
   *Z-matrix requests optimization of   0 coordinates.
   *The optimization is constrained.
   *The following   1 parameters can have non-zero 
    derivatives within the totally symmetric subspace:
             r    [ 1]
   *The following   0 parameters are to be optimized:

   *The following coordinates must be varied in an  unconstrained optimization.
             r    [ 1]
--------------------------------------------------------------------------------


 ----------------------------------------------------------------
         Coordinates used in calculation (QCOMP) 
 ----------------------------------------------------------------
 Z-matrix   Atomic            Coordinates (in bohr)
  Symbol    Number           X              Y              Z
 ----------------------------------------------------------------
     C         6        -0.00000000     0.00000000     1.34031303
     O         8         0.00000000     0.00000000    -1.00555437
 ----------------------------------------------------------------
 
   Interatomic distance matrix (Angstroms) 
 
                 C             O    
                [ 1]        [ 2]
  C    [ 1]     0.00000
  O    [ 2]     1.24138     0.00000
 rotcon2
   Rotational constants (in cm-1): 
          1.5955246727             0.0000000000
   Rotational constants (in MHz): 
      47832.6330445953             0.0000000000
  ECPDATA file not present.   Using default ECPDATA. 
  @GTFLGS-I, Hessian will be transformed to curvilinear coordinates.
  There are  218 basis functions.
 @CHECKOUT-I, Total execution time (CPU/WALL):        0.10/       0.14 seconds.
--executable xjoda finished with status     0 in        0.15 seconds (walltime).
 --invoking executable--
/nfs/workspaces/public/cfour_mpi/bin/xvmol
 SERIAL VERSION OF MOLECULE STARTED
********************************************************************************
                    INPUT FROM MOL FILE
********************************************************************************
INTGRL        1    0    1    0    0    0    0    0    0                         
         *** CFOUR Program System (Release V0.1) ***                            
Carbon Monoxide DBOC calculation                                                
    2    2 X  Y       0.10E-08              0    0                              
   9999.00      3.00                                                            
          6.00000000    1    5    1    1    1    1    1                         
C #1  -0.000000000000000   0.000000000000000   1.340313030836441                
   16    9                                                                      
   33980.0000000000       9.100000000000000E-005 -1.900000000000000E-005        
  0.000000000000000E+000  0.000000000000000E+000  0.000000000000000E+000        
  0.000000000000000E+000  0.000000000000000E+000  0.000000000000000E+000        
  0.000000000000000E+000                                                        
   5089.00000000000       7.040000000000000E-004 -1.510000000000000E-004        
  0.000000000000000E+000  0.000000000000000E+000  0.000000000000000E+000        
  0.000000000000000E+000  0.000000000000000E+000  0.000000000000000E+000        
  0.000000000000000E+000                                                        
   1157.00000000000       3.693000000000000E-003 -7.850000000000000E-004        
  0.000000000000000E+000  0.000000000000000E+000  0.000000000000000E+000        
  0.000000000000000E+000  0.000000000000000E+000  0.000000000000000E+000        
  0.000000000000000E+000                                                        
   326.600000000000       1.536000000000000E-002 -3.324000000000000E-003        
  0.000000000000000E+000  0.000000000000000E+000  0.000000000000000E+000        
  0.000000000000000E+000  0.000000000000000E+000  0.000000000000000E+000        
  0.000000000000000E+000                                                        
   106.100000000000       5.292900000000000E-002 -1.151200000000000E-002        
  0.000000000000000E+000  0.000000000000000E+000  0.000000000000000E+000        
  0.000000000000000E+000  0.000000000000000E+000  0.000000000000000E+000        
  0.000000000000000E+000                                                        
   38.1100000000000       0.147043000000000      -3.416000000000000E-002        
  0.000000000000000E+000  0.000000000000000E+000  0.000000000000000E+000        
  0.000000000000000E+000  0.000000000000000E+000  0.000000000000000E+000        
  0.000000000000000E+000                                                        
   14.7500000000000       0.305631000000000      -7.717300000000001E-002        
  0.000000000000000E+000  0.000000000000000E+000  0.000000000000000E+000        
  0.000000000000000E+000  0.000000000000000E+000  0.000000000000000E+000        
  0.000000000000000E+000                                                        
   6.03500000000000       0.399345000000000      -0.141493000000000             
  0.000000000000000E+000  0.000000000000000E+000  0.000000000000000E+000        
  0.000000000000000E+000  0.000000000000000E+000  0.000000000000000E+000        
  0.000000000000000E+000                                                        
   2.53000000000000       0.217051000000000      -0.118019000000000             
  0.000000000000000E+000  0.000000000000000E+000  0.000000000000000E+000        
  0.000000000000000E+000  0.000000000000000E+000  0.000000000000000E+000        
  0.000000000000000E+000                                                        
  0.735500000000000       1.589400000000000E-002  0.273806000000000             
   1.00000000000000       0.000000000000000E+000  0.000000000000000E+000        
  0.000000000000000E+000  0.000000000000000E+000  0.000000000000000E+000        
  0.000000000000000E+000                                                        
  0.290500000000000      -3.084000000000000E-003  0.586510000000000             
  0.000000000000000E+000   1.00000000000000       0.000000000000000E+000        
  0.000000000000000E+000  0.000000000000000E+000  0.000000000000000E+000        
  0.000000000000000E+000                                                        
  0.111100000000000       9.779999999999999E-004  0.285430000000000             
  0.000000000000000E+000  0.000000000000000E+000   1.00000000000000             
  0.000000000000000E+000  0.000000000000000E+000  0.000000000000000E+000        
  0.000000000000000E+000                                                        
   7.21600000000000       0.000000000000000E+000  0.000000000000000E+000        
  0.000000000000000E+000  0.000000000000000E+000  0.000000000000000E+000        
   1.00000000000000       0.000000000000000E+000  0.000000000000000E+000        
  0.000000000000000E+000                                                        
   19.5700000000000       0.000000000000000E+000  0.000000000000000E+000        
  0.000000000000000E+000  0.000000000000000E+000  0.000000000000000E+000        
  0.000000000000000E+000   1.00000000000000       0.000000000000000E+000        
  0.000000000000000E+000                                                        
   53.0730000000000       0.000000000000000E+000  0.000000000000000E+000        
  0.000000000000000E+000  0.000000000000000E+000  0.000000000000000E+000        
  0.000000000000000E+000  0.000000000000000E+000   1.00000000000000             
  0.000000000000000E+000                                                        
  4.145000000000000E-002  0.000000000000000E+000  0.000000000000000E+000        
  0.000000000000000E+000  0.000000000000000E+000  0.000000000000000E+000        
  0.000000000000000E+000  0.000000000000000E+000  0.000000000000000E+000        
   1.00000000000000                                                             
   10    8                                                                      
   34.5100000000000       5.378000000000000E-003  0.000000000000000E+000        
  0.000000000000000E+000  0.000000000000000E+000  0.000000000000000E+000        
  0.000000000000000E+000  0.000000000000000E+000  0.000000000000000E+000        
   7.91500000000000       3.613200000000000E-002  0.000000000000000E+000        
  0.000000000000000E+000  0.000000000000000E+000  0.000000000000000E+000        
  0.000000000000000E+000  0.000000000000000E+000  0.000000000000000E+000        
   2.36800000000000       0.142493000000000       0.000000000000000E+000        
  0.000000000000000E+000  0.000000000000000E+000  0.000000000000000E+000        
  0.000000000000000E+000  0.000000000000000E+000  0.000000000000000E+000        
  0.813200000000000       0.342150000000000        1.00000000000000             
  0.000000000000000E+000  0.000000000000000E+000  0.000000000000000E+000        
  0.000000000000000E+000  0.000000000000000E+000  0.000000000000000E+000        
  0.289000000000000       0.463864000000000       0.000000000000000E+000        
   1.00000000000000       0.000000000000000E+000  0.000000000000000E+000        
  0.000000000000000E+000  0.000000000000000E+000  0.000000000000000E+000        
  0.100700000000000       0.250028000000000       0.000000000000000E+000        
  0.000000000000000E+000   1.00000000000000       0.000000000000000E+000        
  0.000000000000000E+000  0.000000000000000E+000  0.000000000000000E+000        
   8.18200000000000       0.000000000000000E+000  0.000000000000000E+000        
  0.000000000000000E+000  0.000000000000000E+000   1.00000000000000             
  0.000000000000000E+000  0.000000000000000E+000  0.000000000000000E+000        
   24.1860000000000       0.000000000000000E+000  0.000000000000000E+000        
  0.000000000000000E+000  0.000000000000000E+000  0.000000000000000E+000        
   1.00000000000000       0.000000000000000E+000  0.000000000000000E+000        
   71.4940000000000       0.000000000000000E+000  0.000000000000000E+000        
  0.000000000000000E+000  0.000000000000000E+000  0.000000000000000E+000        
  0.000000000000000E+000   1.00000000000000       0.000000000000000E+000        
  3.218000000000000E-002  0.000000000000000E+000  0.000000000000000E+000        
  0.000000000000000E+000  0.000000000000000E+000  0.000000000000000E+000        
  0.000000000000000E+000  0.000000000000000E+000   1.00000000000000             
    6    6                                                                      
   1.84800000000000        1.00000000000000       0.000000000000000E+000        
  0.000000000000000E+000  0.000000000000000E+000  0.000000000000000E+000        
  0.000000000000000E+000                                                        
  0.649000000000000       0.000000000000000E+000   1.00000000000000             
  0.000000000000000E+000  0.000000000000000E+000  0.000000000000000E+000        
  0.000000000000000E+000                                                        
  0.228000000000000       0.000000000000000E+000  0.000000000000000E+000        
   1.00000000000000       0.000000000000000E+000  0.000000000000000E+000        
  0.000000000000000E+000                                                        
   8.65600000000000       0.000000000000000E+000  0.000000000000000E+000        
  0.000000000000000E+000   1.00000000000000       0.000000000000000E+000        
  0.000000000000000E+000                                                        
   33.2130000000000       0.000000000000000E+000  0.000000000000000E+000        
  0.000000000000000E+000  0.000000000000000E+000   1.00000000000000             
  0.000000000000000E+000                                                        
  7.660000000000000E-002  0.000000000000000E+000  0.000000000000000E+000        
  0.000000000000000E+000  0.000000000000000E+000  0.000000000000000E+000        
   1.00000000000000                                                             
    4    4                                                                      
   1.41900000000000        1.00000000000000       0.000000000000000E+000        
  0.000000000000000E+000  0.000000000000000E+000                                
  0.485000000000000       0.000000000000000E+000   1.00000000000000             
  0.000000000000000E+000  0.000000000000000E+000                                
   24.6940000000000       0.000000000000000E+000  0.000000000000000E+000        
   1.00000000000000       0.000000000000000E+000                                
  0.187000000000000       0.000000000000000E+000  0.000000000000000E+000        
  0.000000000000000E+000   1.00000000000000                                     
    2    2                                                                      
   1.01100000000000        1.00000000000000       0.000000000000000E+000        
  0.424000000000000       0.000000000000000E+000   1.00000000000000             
          8.00000000    1    5    1    1    1    1    1                         
O #2   0.000000000000000   0.000000000000000  -1.005554374130304                
   16    9                                                                      
   61420.0000000000       9.000000000000001E-005 -2.000000000000000E-005        
  0.000000000000000E+000  0.000000000000000E+000  0.000000000000000E+000        
  0.000000000000000E+000  0.000000000000000E+000  0.000000000000000E+000        
  0.000000000000000E+000                                                        
   9199.00000000000       6.980000000000001E-004 -1.590000000000000E-004        
  0.000000000000000E+000  0.000000000000000E+000  0.000000000000000E+000        
  0.000000000000000E+000  0.000000000000000E+000  0.000000000000000E+000        
  0.000000000000000E+000                                                        
   2091.00000000000       3.664000000000000E-003 -8.290000000000000E-004        
  0.000000000000000E+000  0.000000000000000E+000  0.000000000000000E+000        
  0.000000000000000E+000  0.000000000000000E+000  0.000000000000000E+000        
  0.000000000000000E+000                                                        
   590.900000000000       1.521800000000000E-002 -3.508000000000000E-003        
  0.000000000000000E+000  0.000000000000000E+000  0.000000000000000E+000        
  0.000000000000000E+000  0.000000000000000E+000  0.000000000000000E+000        
  0.000000000000000E+000                                                        
   192.300000000000       5.242300000000000E-002 -1.215600000000000E-002        
  0.000000000000000E+000  0.000000000000000E+000  0.000000000000000E+000        
  0.000000000000000E+000  0.000000000000000E+000  0.000000000000000E+000        
  0.000000000000000E+000                                                        
   69.3200000000000       0.145921000000000      -3.626100000000000E-002        
  0.000000000000000E+000  0.000000000000000E+000  0.000000000000000E+000        
  0.000000000000000E+000  0.000000000000000E+000  0.000000000000000E+000        
  0.000000000000000E+000                                                        
   26.9700000000000       0.305258000000000      -8.299200000000000E-002        
  0.000000000000000E+000  0.000000000000000E+000  0.000000000000000E+000        
  0.000000000000000E+000  0.000000000000000E+000  0.000000000000000E+000        
  0.000000000000000E+000                                                        
   11.1000000000000       0.398508000000000      -0.152090000000000             
  0.000000000000000E+000  0.000000000000000E+000  0.000000000000000E+000        
  0.000000000000000E+000  0.000000000000000E+000  0.000000000000000E+000        
  0.000000000000000E+000                                                        
   4.68200000000000       0.216980000000000      -0.115331000000000             
  0.000000000000000E+000  0.000000000000000E+000  0.000000000000000E+000        
  0.000000000000000E+000  0.000000000000000E+000  0.000000000000000E+000        
  0.000000000000000E+000                                                        
   1.42800000000000       1.759400000000000E-002  0.288979000000000             
   1.00000000000000       0.000000000000000E+000  0.000000000000000E+000        
  0.000000000000000E+000  0.000000000000000E+000  0.000000000000000E+000        
  0.000000000000000E+000                                                        
  0.554700000000000      -2.502000000000000E-003  0.586128000000000             
  0.000000000000000E+000   1.00000000000000       0.000000000000000E+000        
  0.000000000000000E+000  0.000000000000000E+000  0.000000000000000E+000        
  0.000000000000000E+000                                                        
  0.206700000000000       9.540000000000000E-004  0.277624000000000             
  0.000000000000000E+000  0.000000000000000E+000   1.00000000000000             
  0.000000000000000E+000  0.000000000000000E+000  0.000000000000000E+000        
  0.000000000000000E+000                                                        
   12.9740000000000       0.000000000000000E+000  0.000000000000000E+000        
  0.000000000000000E+000  0.000000000000000E+000  0.000000000000000E+000        
   1.00000000000000       0.000000000000000E+000  0.000000000000000E+000        
  0.000000000000000E+000                                                        
   34.9000000000000       0.000000000000000E+000  0.000000000000000E+000        
  0.000000000000000E+000  0.000000000000000E+000  0.000000000000000E+000        
  0.000000000000000E+000   1.00000000000000       0.000000000000000E+000        
  0.000000000000000E+000                                                        
   93.8810000000000       0.000000000000000E+000  0.000000000000000E+000        
  0.000000000000000E+000  0.000000000000000E+000  0.000000000000000E+000        
  0.000000000000000E+000  0.000000000000000E+000   1.00000000000000             
  0.000000000000000E+000                                                        
  6.959000000000000E-002  0.000000000000000E+000  0.000000000000000E+000        
  0.000000000000000E+000  0.000000000000000E+000  0.000000000000000E+000        
  0.000000000000000E+000  0.000000000000000E+000  0.000000000000000E+000        
   1.00000000000000                                                             
   10    8                                                                      
   63.4200000000000       6.044000000000000E-003  0.000000000000000E+000        
  0.000000000000000E+000  0.000000000000000E+000  0.000000000000000E+000        
  0.000000000000000E+000  0.000000000000000E+000  0.000000000000000E+000        
   14.6600000000000       4.179900000000000E-002  0.000000000000000E+000        
  0.000000000000000E+000  0.000000000000000E+000  0.000000000000000E+000        
  0.000000000000000E+000  0.000000000000000E+000  0.000000000000000E+000        
   4.45900000000000       0.161143000000000       0.000000000000000E+000        
  0.000000000000000E+000  0.000000000000000E+000  0.000000000000000E+000        
  0.000000000000000E+000  0.000000000000000E+000  0.000000000000000E+000        
   1.53100000000000       0.356731000000000        1.00000000000000             
  0.000000000000000E+000  0.000000000000000E+000  0.000000000000000E+000        
  0.000000000000000E+000  0.000000000000000E+000  0.000000000000000E+000        
  0.530200000000000       0.448309000000000       0.000000000000000E+000        
   1.00000000000000       0.000000000000000E+000  0.000000000000000E+000        
  0.000000000000000E+000  0.000000000000000E+000  0.000000000000000E+000        
  0.175000000000000       0.244940000000000       0.000000000000000E+000        
  0.000000000000000E+000   1.00000000000000       0.000000000000000E+000        
  0.000000000000000E+000  0.000000000000000E+000  0.000000000000000E+000        
   14.4750000000000       0.000000000000000E+000  0.000000000000000E+000        
  0.000000000000000E+000  0.000000000000000E+000   1.00000000000000             
  0.000000000000000E+000  0.000000000000000E+000  0.000000000000000E+000        
   42.7300000000000       0.000000000000000E+000  0.000000000000000E+000        
  0.000000000000000E+000  0.000000000000000E+000  0.000000000000000E+000        
   1.00000000000000       0.000000000000000E+000  0.000000000000000E+000        
   126.140000000000       0.000000000000000E+000  0.000000000000000E+000        
  0.000000000000000E+000  0.000000000000000E+000  0.000000000000000E+000        
  0.000000000000000E+000   1.00000000000000       0.000000000000000E+000        
  5.348000000000000E-002  0.000000000000000E+000  0.000000000000000E+000        
  0.000000000000000E+000  0.000000000000000E+000  0.000000000000000E+000        
  0.000000000000000E+000  0.000000000000000E+000   1.00000000000000             
    6    6                                                                      
   3.77500000000000        1.00000000000000       0.000000000000000E+000        
  0.000000000000000E+000  0.000000000000000E+000  0.000000000000000E+000        
  0.000000000000000E+000                                                        
   1.30000000000000       0.000000000000000E+000   1.00000000000000             
  0.000000000000000E+000  0.000000000000000E+000  0.000000000000000E+000        
  0.000000000000000E+000                                                        
  0.444000000000000       0.000000000000000E+000  0.000000000000000E+000        
   1.00000000000000       0.000000000000000E+000  0.000000000000000E+000        
  0.000000000000000E+000                                                        
   14.9270000000000       0.000000000000000E+000  0.000000000000000E+000        
  0.000000000000000E+000   1.00000000000000       0.000000000000000E+000        
  0.000000000000000E+000                                                        
   57.5440000000000       0.000000000000000E+000  0.000000000000000E+000        
  0.000000000000000E+000  0.000000000000000E+000   1.00000000000000             
  0.000000000000000E+000                                                        
  0.154000000000000       0.000000000000000E+000  0.000000000000000E+000        
  0.000000000000000E+000  0.000000000000000E+000  0.000000000000000E+000        
   1.00000000000000                                                             
    4    4                                                                      
   2.66600000000000        1.00000000000000       0.000000000000000E+000        
  0.000000000000000E+000  0.000000000000000E+000                                
  0.859000000000000       0.000000000000000E+000   1.00000000000000             
  0.000000000000000E+000  0.000000000000000E+000                                
   26.4830000000000       0.000000000000000E+000  0.000000000000000E+000        
   1.00000000000000       0.000000000000000E+000                                
  0.324000000000000       0.000000000000000E+000  0.000000000000000E+000        
  0.000000000000000E+000   1.00000000000000                                     
    2    2                                                                      
   1.84600000000000        1.00000000000000       0.000000000000000E+000        
  0.714000000000000       0.000000000000000E+000   1.00000000000000             
FINISH                                                                          
 
********************************************************************************
 ONE- AND TWO-ELECTRON INTEGRALS OVER SYMMETRY-ADAPTED AOS ARE CALCULATED.

  SPHERICAL HARMONICS ARE USED.
  
  INTEGRALS LESS THAN  0.10E-13 ARE NEGLECTED.

  NUCLEAR REPULSION ENERGY :   20.4615145333 A.U.
  @MOLECU-I, ONE ELECTRON INTEGRALS (CPU/WALL):        0.06/       0.07 SECONDS.
  @TWOEL-I,    4549079 INTEGRALS OF SYMMETRY TYPE  I I I I
  @TWOEL-I,   19555508 INTEGRALS OF SYMMETRY TYPE  I J I J
  @TWOEL-I,   10304240 INTEGRALS OF SYMMETRY TYPE  I I J J
  @TWOEL-I,   14471060 INTEGRALS OF SYMMETRY TYPE  I J K L
  @TWOEL-I, TOTAL NUMBER OF 2-E INTEGRALS   48879887.
  @MOLECU-I, TWO ELECTRON INTEGRALS (CPU/WALL):      200.73/      28.59 SECONDS.
 @CHECKOUT-I, Total execution time (CPU/WALL):      200.80/      28.67 seconds.

Running with 14 threads/proc

--executable xvmol finished with status     0 in       28.69 seconds (walltime).
 --invoking executable--
/nfs/workspaces/public/cfour_mpi/bin/xvmol2ja
 @GETMEM-I,  Allocated    3814 MB of main memory.
 @CHECKOUT-I, Total execution time (CPU/WALL):        0.17/       0.08 seconds.
--executable xvmol2ja finished with status     0 in        0.09 seconds (walltime).
 --invoking executable--
/nfs/workspaces/public/cfour_mpi/bin/xvprop
 @GETMEM-I,  Allocated    3814 MB of main memory.
   Property integrals will be calculated.
    --------------------------------------------------------------
                                   Property evaluated at 
    Property type                X             Y             Z
    --------------------------------------------------------------
    Dipole moment               ----          ----          ----  
    Quadrupole moment           ----          ----          ----  
    Octopole moment             ----          ----          ----  
    Relativisitic corr.         ----          ----          ----  
    Second moment            0.0000000     0.0000000     0.0000000
    Electron density         0.0000000     0.0000000     1.3403130
    Electron density         0.0000000     0.0000000    -1.0055544
    Field gradient           0.0000000     0.0000000     1.3403130
    Field gradient           0.0000000     0.0000000    -1.0055544
    Potential                0.0000000     0.0000000     1.3403130
    Potential                0.0000000     0.0000000    -1.0055544
    --------------------------------------------------------------
 @CHECKOUT-I, Total execution time (CPU/WALL):        1.31/       1.36 seconds.
--executable xvprop finished with status     0 in        1.37 seconds (walltime).
 --invoking executable--
/nfs/workspaces/public/cfour_mpi/bin/xvscf
  There are  218 functions in the AO basis.

  There are 4 irreducible representations.

       Irrep        # of functions
         1                 86
         2                 52
         3                 52
         4                 28


  Parameters for SCF calculation: 
        SCF reference function:  RHF  
  Maximum number of iterations:  150
     Full symmetry point group: CXv 
     Computational point group: C2v 
        Initial density matrix: MOREAD                 
     SCF convergence tolerance: 10**(-10)
  DIIS convergence acceleration:  ON
          Latest start for DIIS:   8
                     DIIS order:   6

  Memory information:    2523578 words required.
  Fock matrices are constructed from AO integral file.
 @GETMEM-I,  Allocated      19 MB of main memory.
  Initialization and symmetry analysis required      0.001 seconds.

  Adding electric field perturbation to one-electron Hamiltonian.
  Field direction     : Z
  Field strength      : -0.0002000 a.u.

  @INITGES-I, Occupancies from core Hamiltonian:

          Alpha population by irrep:   5    1    1    0
           Beta population by irrep:   5    1    1    0


 total no. of electrons in initial guess :  0.000000000000000E+000
  --------------------------------------------------------------------
  Iteration         Total Energy            Largest Density Difference
  --------------------------------------------------------------------
       0            20.461514021971730              0.0000000000D+00
   current occupation vector 
     5  1  1  0
     5  1  1  0
       1           -92.520913930739226              0.1813352081D+02
   current occupation vector 
     5  1  1  0
     5  1  1  0
       2           -98.017597369127316              0.1812917960D+02
   current occupation vector 
     5  1  1  0
     5  1  1  0
       3          -103.519714922617254              0.8538889603D+01
   current occupation vector 
     5  1  1  0
     5  1  1  0
       4           -99.775184234487057              0.7231553467D+01
   current occupation vector 
     5  1  1  0
     5  1  1  0
       5          -102.363212235606284              0.5901676283D+01
   current occupation vector 
     5  1  1  0
     5  1  1  0
       6           -98.955414087795390              0.5901877608D+01
   current occupation vector 
     5  1  1  0
     5  1  1  0
       7          -102.365942028706087              0.6022985793D+01
   current occupation vector 
     5  1  1  0
     5  1  1  0
       8           -98.848809193004087              0.6019120307D+01
   current occupation vector 
     5  1  1  0
     5  1  1  0
       9          -109.780132049196169              0.4545359533D+01
   current occupation vector 
     5  1  1  0
     5  1  1  0
      10          -111.721134042080564              0.1098168376D+01
   current occupation vector 
     5  1  1  0
     5  1  1  0
      11          -112.686430849030955              0.6611006212D+00
   current occupation vector 
     5  1  1  0
     5  1  1  0
      12          -112.750156518814492              0.2127966214D+00
   current occupation vector 
     5  1  1  0
     5  1  1  0
      13          -112.751522556457616              0.4394155716D-01
   current occupation vector 
     5  1  1  0
     5  1  1  0
      14          -112.751701141208429              0.1757128913D-01
   current occupation vector 
     5  1  1  0
     5  1  1  0
      15          -112.751730292038644              0.1039117561D-01
   current occupation vector 
     5  1  1  0
     5  1  1  0
      16          -112.751730626838679              0.7801047084D-03
   current occupation vector 
     5  1  1  0
     5  1  1  0
      17          -112.751730643335350              0.2095595506D-03
   current occupation vector 
     5  1  1  0
     5  1  1  0
      18          -112.751730644232737              0.5525041093D-04
   current occupation vector 
     5  1  1  0
     5  1  1  0
      19          -112.751730644265166              0.1065428044D-04
   current occupation vector 
     5  1  1  0
     5  1  1  0
      20          -112.751730644264711              0.1700473510D-05
   current occupation vector 
     5  1  1  0
     5  1  1  0
      21          -112.751730644266303              0.2400876551D-06
   current occupation vector 
     5  1  1  0
     5  1  1  0
      22          -112.751730644265592              0.4983943236D-07
   current occupation vector 
     5  1  1  0
     5  1  1  0
      23          -112.751730644266331              0.2001601551D-07
   current occupation vector 
     5  1  1  0
     5  1  1  0
      24          -112.751730644265677              0.3471078980D-09
   current occupation vector 
     5  1  1  0
     5  1  1  0
      25          -112.751730644264796              0.1324722554D-09
   current occupation vector 
     5  1  1  0
     5  1  1  0

  SCF has converged.

 Density matrix saved to file den.dat
 total electron number:   14.0000000000003     
     E(SCF)=      -112.751730644265507              0.7061951024D-10

  Eigenvector printing suppressed.

 @PUTMOS-I, Writing converged MOs to NEWMOS. 
 @PUTMOS-I, Symmetry   1 Full Blocks 21 Partial Blocksize   2
 @PUTMOS-I, Symmetry   2 Full Blocks 13 Partial Blocksize   0
 @PUTMOS-I, Symmetry   3 Full Blocks 13 Partial Blocksize   0
 @PUTMOS-I, Symmetry   4 Full Blocks  7 Partial Blocksize   0
 @PUTFOCK-I, Writing converged Fock matrix to NEWFOCK. 
 @PUTFOCK-I, Symmetry   1 Full Blocks 21 Partial Blocksize   2
 @PUTFOCK-I, Symmetry   2 Full Blocks 13 Partial Blocksize   0
 @PUTFOCK-I, Symmetry   3 Full Blocks 13 Partial Blocksize   0
 @PUTFOCK-I, Symmetry   4 Full Blocks  7 Partial Blocksize   0


 
  ORBITAL EIGENVALUES (ALPHA)  (1H = 27.2113834 eV)

       MO #        E(hartree)               E(eV)           FULLSYM    COMPSYM
       ----   --------------------   --------------------   -------   ---------
    1     1         -20.6668602858        -562.3738589109     SG+        A1 (1)
    2     2         -11.4097222356        -310.4743262407     SG+        A1 (1)
    3     3          -1.4474066860         -39.3859382691     SG+        A1 (1)
    4     4          -0.7962593736         -21.6673191005     SG+        A1 (1)
    5    87          -0.5951148976         -16.1938996444      PI        B1 (2)
    6   139          -0.5951148976         -16.1938996444      PI        B2 (3)
    7     5          -0.5646105714         -15.3638347302     SG+        A1 (1)
  +++++++++++++++++++++++++++++++++++++++++++++++++++++++++++++++++++++++++++++
    8    88           0.0559805625           1.5233085493      PI        B1 (2)
    9   140           0.0559805625           1.5233085493      PI        B2 (3)
   10     6           0.0623503019           1.6966379711     SG+        A1 (1)
   11     7           0.0714085639           1.9431258114     SG+        A1 (1)
   12   141           0.1132052523           3.0804715228      PI        B2 (3)
   13    89           0.1132052523           3.0804715228      PI        B1 (2)
   14     8           0.1569785864           4.2716044995     SG+        A1 (1)
   15   142           0.1676707203           4.5625522547      PI        B2 (3)
   16    90           0.1676707203           4.5625522547      PI        B1 (2)
   17     9           0.2269919483           6.1767649335      DE        A1 (1)
   18   191           0.2269919483           6.1767649335      DE        A2 (4)
   19    10           0.2283731565           6.2143495202     SG+        A1 (1)
   20    11           0.2999357189           8.1616658436     SG+        A1 (1)
   21   143           0.3092392337           8.4148273496      PI        B2 (3)
   22    91           0.3092392337           8.4148273496      PI        B1 (2)
   23    12           0.3857782323          10.4975593857     SG+        A1 (1)
   24   144           0.3954557691          10.7608985499      PI        B2 (3)
   25    92           0.3954557691          10.7608985499      PI        B1 (2)
   26    13           0.5093557325          13.8602741249     SG+        A1 (1)
   27   192           0.5411110755          14.7243809374      DE        A2 (4)
   28    14           0.5411110755          14.7243809374      DE        A1 (1)
   29    15           0.5973180576          16.2538506773     SG+        A1 (1)
   30   145           0.6258060705          17.0290489187      PI        B2 (3)
   31    93           0.6258060705          17.0290489187      PI        B1 (2)
   32   146           0.7457127586          20.2918757816      PH        B2 (3)
   33    94           0.7457127586          20.2918757816      PH        B1 (2)
   34    16           0.7627503857          20.7554931832      DE        A1 (1)
   35   193           0.7627503857          20.7554931832      DE        A2 (4)
   36    17           0.7737153997          21.0538663849     SG+        A1 (1)
   37   147           0.8094509103          22.0262790642      PI        B2 (3)
   38    95           0.8094509103          22.0262790642      PI        B1 (2)
   39    18           0.8453006264          23.0017994341     SG+        A1 (1)
   40    19           0.8720878692          23.7307173663     SG+        A1 (1)
   41    20           0.8841130942          24.0579403741      DE        A1 (1)
   42   194           0.8841130942          24.0579403741      DE        A2 (4)
   43   148           0.8899740824          24.2174259735      PI        B2 (3)
   44    96           0.8899740824          24.2174259735      PI        B1 (2)
   45    97           1.0532702615          28.6609409093      PI        B1 (2)
   46   149           1.0532702615          28.6609409093      PI        B2 (3)
   47    21           1.1384433873          30.9786194910     SG+        A1 (1)
   48    22           1.4368200207          39.0978604596     SG+        A1 (1)
   49    98           1.4393630346          39.1670593856      PH        B1 (2)
   50   150           1.4393630346          39.1670593856      PH        B2 (3)
   51    23           1.5366088163          41.8132516358      DE        A1 (1)
   52   195           1.5366088163          41.8132516358      DE        A2 (4)
   53   151           1.5679980987          42.6673974347      PI        B2 (3)
   54    99           1.5679980987          42.6673974347      PI        B1 (2)
   55    24           1.6623275231          45.2342315666     SG+        A1 (1)
   56   100           1.7219327844          46.8561731857      PI        B1 (2)
   57   152           1.7219327844          46.8561731857      PI        B2 (3)
   58    25           1.7512602305          47.6542135666      DE        A1 (1)
   59   196           1.7512602305          47.6542135666      DE        A2 (4)
   60    26           1.8135233556          49.3484793332     SG+        A1 (1)
   61   101           2.0229921707          55.0484155719      PI        B1 (2)
   62   153           2.0229921707          55.0484155719      PI        B2 (3)
   63    27           2.0712433936          56.3613980982     SG+        A1 (1)
   64   197           2.0972753357          57.0697632540      PI        A2 (4)
   65    28           2.0972753357          57.0697632540      PI        A1 (1)
   66    29           2.1744219328          59.1690288857      DE        A1 (1)
   67   198           2.1744219328          59.1690288857      DE        A2 (4)
   68   154           2.2415041135          60.9944278246      PH        B2 (3)
   69   102           2.2415041135          60.9944278246      PH        B1 (2)
   70   103           2.3004958118          62.5996735451      PI        B1 (2)
   71   155           2.3004958118          62.5996735451      PI        B2 (3)
   72    30           2.3044215491          62.7064982884     SG+        A1 (1)
   73   104           2.3220996817          63.1875447322      PH        B1 (2)
   74   156           2.3220996817          63.1875447322      PH        B2 (3)
   75   199           2.3452495960          63.8174859262      DE        A2 (4)
   76    31           2.3452495960          63.8174859262      DE        A1 (1)
   77    32           2.4839213950          67.5909374153     SG+        A1 (1)
   78   157           2.5675432683          69.8664042694      PI        B2 (3)
   79   105           2.5675432683          69.8664042694      PI        B1 (2)
   80   158           2.7400594860          74.5608092118      PI        B2 (3)
   81   106           2.7400594860          74.5608092118      PI        B1 (2)
   82    33           2.7857127921          75.8030988294     SG+        A1 (1)
   83    34           2.9125017871          79.2532027814      DE        A1 (1)
   84   200           2.9125017871          79.2532027814      DE        A2 (4)
   85    35           3.4590823088          94.1264149156     SG+        A1 (1)
   86   159           3.6961080361         100.5762128583      PI        B2 (3)
   87   107           3.6961080361         100.5762128583      PI        B1 (2)
   88    36           3.7081575183         100.9040959374      PI        A1 (1)
   89   201           3.7081575183         100.9040959374      PI        A2 (4)
   90    37           3.9091854733         106.3743446964     SG+        A1 (1)
   91   108           4.0874361124         111.2247911771      PH        B1 (2)
   92   160           4.0874361124         111.2247911771      PH        B2 (3)
   93   161           4.1750933455         113.6100657545      PH        B2 (3)
   94   109           4.1750933455         113.6100657545      PH        B1 (2)
   95   202           4.1916122529         114.0595680770      DE        A2 (4)
   96    38           4.1916122529         114.0595680770      DE        A1 (1)
   97   162           4.1959954917         114.1788420694      PI        B2 (3)
   98   110           4.1959954917         114.1788420695      PI        B1 (2)
   99    39           4.2364021500         115.2783631393     SG+        A1 (1)
  100    40           4.3333163728         117.9155332130      DE        A1 (1)
  101   203           4.3333163728         117.9155332130      DE        A2 (4)
  102    41           4.4026952116         119.8034273975     SG+        A1 (1)
  103   163           4.8502479768         131.9819572820      PI        B2 (3)
  104   111           4.8502479768         131.9819572820      PI        B1 (2)
  105   164           4.9513728221         134.7337042173      PI        B2 (3)
  106   112           4.9513728221         134.7337042173      PI        B1 (2)
  107    42           5.0606400208         137.7070158552      DE        A1 (1)
  108   204           5.0606400208         137.7070158552      DE        A2 (4)
  109    43           5.1648678656         140.5431997015     SG+        A1 (1)
  110    44           5.4591842114         148.5519546263     SG+        A1 (1)
  111   113           5.6814316262         154.5996142419      PI        B1 (2)
  112   165           5.6814316262         154.5996142419      PI        B2 (3)
  113    45           5.8834455392         160.0966922810      PI        A1 (1)
  114   205           5.8834455392         160.0966922810      PI        A2 (4)
  115   166           6.0400484322         164.3580736443      PH        B2 (3)
  116   114           6.0400484322         164.3580736443      PH        B1 (2)
  117    46           6.2335560949         169.6236848444     SG+        A1 (1)
  118   206           6.2613359215         170.3796123561      DE        A2 (4)
  119    47           6.2613359215         170.3796123561      DE        A1 (1)
  120   167           6.2918270122         171.2093171157      PI        B2 (3)
  121   115           6.2918270122         171.2093171157      PI        B1 (2)
  122   168           6.4225984105         174.7677877726      PH        B2 (3)
  123   116           6.4225984105         174.7677877726      PH        B1 (2)
  124   207           6.5517932250         178.2833574024      DE        A2 (4)
  125    48           6.5517932250         178.2833574025      DE        A1 (1)
  126    49           6.7316611305         183.1778119411     SG+        A1 (1)
  127   208           6.9596384873         189.3813912028      DE        A2 (4)
  128    50           6.9596384873         189.3813912029      DE        A1 (1)
  129   169           7.2447333688         197.1392173285      PI        B2 (3)
  130   117           7.2447333688         197.1392173285      PI        B1 (2)
  131    51           7.5991955997         206.7846249949     SG+        A1 (1)
  132   118           8.1378750372         221.4428376973      PI        B1 (2)
  133   170           8.1378750372         221.4428376973      PI        B2 (3)
  134    52           8.1648967453         222.1781357572     SG+        A1 (1)
  135   119          10.1021765292         274.8941987093      PI        B1 (2)
  136   171          10.1021765292         274.8941987094      PI        B2 (3)
  137    53          10.3707924260         282.2036088648     SG+        A1 (1)
  138   209          10.6094653783         288.6982300781      PI        A2 (4)
  139    54          10.6094653783         288.6982300781      PI        A1 (1)
  140   172          10.8190901610         294.4024104099      PH        B2 (3)
  141   120          10.8190901610         294.4024104099      PH        B1 (2)
  142    55          10.9568382438         298.1507263043     SG+        A1 (1)
  143   210          11.0549589280         300.8207258603      DE        A2 (4)
  144    56          11.0549589280         300.8207258603      DE        A1 (1)
  145   121          11.2758273061         306.8308599791      PI        B1 (2)
  146   173          11.2758273061         306.8308599791      PI        B2 (3)
  147    57          11.5091767512         313.1806211957     SG+        A1 (1)
  148   174          11.8572452823         322.6520474433      PH        B2 (3)
  149   122          11.8572452823         322.6520474433      PH        B1 (2)
  150    58          12.1818091006         331.4838779415      DE        A1 (1)
  151   211          12.1818091006         331.4838779415      DE        A2 (4)
  152   123          12.5663569602         341.9479571852      PI        B1 (2)
  153   175          12.5663569602         341.9479571852      PI        B2 (3)
  154    59          12.8150616900         348.7155569423      DE        A1 (1)
  155   212          12.8150616900         348.7155569423      DE        A2 (4)
  156    60          13.0273046099         354.4909804085     SG+        A1 (1)
  157   176          13.6095045404         370.3334459327      PI        B2 (3)
  158   124          13.6095045404         370.3334459327      PI        B1 (2)
  159    61          14.8294421631         403.5296363070     SG+        A1 (1)
  160    62          17.8595062700         485.9818724467     SG+        A1 (1)
  161   125          19.1777805626         521.8539396511      PI        B1 (2)
  162   177          19.1777805626         521.8539396511      PI        B2 (3)
  163    63          20.5242007852         558.4918965443     SG+        A1 (1)
  164   213          26.4349403387         719.3312967131      DE        A2 (4)
  165    64          26.4349403387         719.3312967131      DE        A1 (1)
  166   178          26.8663921300         731.0716968232      PI        B2 (3)
  167   126          26.8663921300         731.0716968232      PI        B1 (2)
  168    65          27.7237511132         754.4016208273     SG+        A1 (1)
  169   179          33.7499476452         918.3827651047      PI        B2 (3)
  170   127          33.7499476453         918.3827651048      PI        B1 (2)
  171    66          34.7203721692         944.7893588861     SG+        A1 (1)
  172    67          36.4109269814         990.7916940412     SG+        A1 (1)
  173    68          47.0982737956        1281.6091857297      DE        A1 (1)
  174   214          47.0982737956        1281.6091857297      DE        A2 (4)
  175   180          47.4503341406        1291.1892347588      PI        B2 (3)
  176   128          47.4503341406        1291.1892347588      PI        B1 (2)
  177    69          48.2338890558        1312.5108479713     SG+        A1 (1)
  178    70          64.0757720309        1743.5903993849     SG+        A1 (1)
  179   129          66.6642847450        1814.0274112833      PI        B1 (2)
  180   181          66.6642847450        1814.0274112834      PI        B2 (3)
  181    71          67.6863982644        1841.8405341385     SG+        A1 (1)
  182   130          98.6240991223        2683.6981736973      PH        B1 (2)
  183   182          98.6240991223        2683.6981736973      PH        B2 (3)
  184    72          98.6403949438        2684.1416055421      DE        A1 (1)
  185   215          98.6403949438        2684.1416055421      DE        A2 (4)
  186   183          98.6853926722        2685.3660559825      PI        B2 (3)
  187   131          98.6853926722        2685.3660559825      PI        B1 (2)
  188    73          98.7048550406        2685.8956539524     SG+        A1 (1)
  189   132         103.2828268486        2810.4686000118      PH        B1 (2)
  190   184         103.2828268486        2810.4686000118      PH        B2 (3)
  191    74         103.3179392906        2811.4240581352      DE        A1 (1)
  192   216         103.3179392906        2811.4240581356      DE        A2 (4)
  193   133         103.3536224381        2812.3950459425      PI        B1 (2)
  194   185         103.3536224381        2812.3950459425      PI        B2 (3)
  195    75         103.3828471696        2813.1902913163     SG+        A1 (1)
  196   217         115.1094965494        3132.2886435859      DE        A2 (4)
  197    76         115.1094965494        3132.2886435859      DE        A1 (1)
  198   186         115.3199488293        3138.0153412613      PI        B2 (3)
  199   134         115.3199488293        3138.0153412613      PI        B1 (2)
  200    77         115.7454827695        3149.5947084588     SG+        A1 (1)
  201   187         117.0062864362        3183.9029204262      PI        B2 (3)
  202   135         117.0062864362        3183.9029204263      PI        B1 (2)
  203    78         117.7666212679        3204.5926830425     SG+        A1 (1)
  204    79         122.6242918227        3336.7766189414     SG+        A1 (1)
  205    80         198.5625298198        5403.1611277997      DE        A1 (1)
  206   218         198.5625298198        5403.1611277997      DE        A2 (4)
  207   136         198.7507625711        5408.2832013647      PI        B1 (2)
  208   188         198.7507625711        5408.2832013649      PI        B2 (3)
  209    81         199.1480582388        5419.0941661016     SG+        A1 (1)
  210    82         216.5701364228        5893.1730151922     SG+        A1 (1)
  211   137         225.0975367918        6125.2153760384      PI        B1 (2)
  212   189         225.0975367918        6125.2153760385      PI        B2 (3)
  213    83         225.9252009509        6147.7372627973     SG+        A1 (1)
  214   190         395.4651767654       10761.1545463126      PI        B2 (3)
  215   138         395.4651767654       10761.1545463127      PI        B1 (2)
  216    84         396.0882484332       10778.1091883502     SG+        A1 (1)
  217    85         509.2078448912       13856.2498976221     SG+        A1 (1)
  218    86         895.3993532366       24365.0550970344     SG+        A1 (1)


  VSCF finished.

 @CHECKOUT-I, Total execution time (CPU/WALL):       45.56/       9.31 seconds.
--executable xvscf finished with status     0 in        9.32 seconds (walltime).
 --invoking executable--
/nfs/workspaces/public/cfour_mpi/bin/xvtran
 @GETMEM-I,  Allocated    3814 MB of main memory.
  Full RHF integral transformation
  Transformation of IIII integrals :
  1 pass through the AO integral file was required.
     4549079 AO integrals were read.
     8777484 MO integrals were written to HF2.
  Transformation of IIJJ integrals :
  1 pass through the AO integral file was required.
    10304240 AO integrals were read.
    14571043 MO integrals were written to HF2.
  Transformation of IJIJ integrals :
  1 pass through the AO integral file was required.
    19555508 AO integrals were read.
    27316806 MO integrals were written to HF2.
  Transformation of IJKL integrals :
  1 pass through the AO integral file was required.
    14471060 AO integrals were read.
    18438904 MO integrals were written to HF2.
  Summary of active molecular orbitals: 
------------------------------------------------------------------------
 
  Index      Eigenvalue    Symmetry    Index      Eigenvalue    Symmetry
------------------------------------------------------------------------
     1       -20.6668603        1       110         4.1750933        2
     2       -11.4097222        1       111         4.1959955        2
     3        -1.4474067        1       112         4.8502480        2
     4        -0.7962594        1       113         4.9513728        2
     5        -0.5646106        1       114         5.6814316        2
     6        -0.5951149        2       115         6.0400484        2
     7        -0.5951149        3       116         6.2918270        2
     8         0.0623503        1       117         6.4225984        2
     9         0.0714086        1       118         7.2447334        2
    10         0.1569786        1       119         8.1378750        2
    11         0.2269919        1       120        10.1021765        2
    12         0.2283732        1       121        10.8190902        2
    13         0.2999357        1       122        11.2758273        2
    14         0.3857782        1       123        11.8572453        2
    15         0.5093557        1       124        12.5663570        2
    16         0.5411111        1       125        13.6095045        2
    17         0.5973181        1       126        19.1777806        2
    18         0.7627504        1       127        26.8663921        2
    19         0.7737154        1       128        33.7499476        2
    20         0.8453006        1       129        47.4503341        2
    21         0.8720879        1       130        66.6642847        2
    22         0.8841131        1       131        98.6240991        2
    23         1.1384434        1       132        98.6853927        2
    24         1.4368200        1       133       103.2828268        2
    25         1.5366088        1       134       103.3536224        2
    26         1.6623275        1       135       115.3199488        2
    27         1.7512602        1       136       117.0062864        2
    28         1.8135234        1       137       198.7507626        2
    29         2.0712434        1       138       225.0975368        2
    30         2.0972753        1       139       395.4651768        2
    31         2.1744219        1       140         0.0559806        3
    32         2.3044215        1       141         0.1132053        3
    33         2.3452496        1       142         0.1676707        3
    34         2.4839214        1       143         0.3092392        3
    35         2.7857128        1       144         0.3954558        3
    36         2.9125018        1       145         0.6258061        3
    37         3.4590823        1       146         0.7457128        3
    38         3.7081575        1       147         0.8094509        3
    39         3.9091855        1       148         0.8899741        3
    40         4.1916123        1       149         1.0532703        3
    41         4.2364021        1       150         1.4393630        3
    42         4.3333164        1       151         1.5679981        3
    43         4.4026952        1       152         1.7219328        3
    44         5.0606400        1       153         2.0229922        3
    45         5.1648679        1       154         2.2415041        3
    46         5.4591842        1       155         2.3004958        3
    47         5.8834455        1       156         2.3220997        3
    48         6.2335561        1       157         2.5675433        3
    49         6.2613359        1       158         2.7400595        3
    50         6.5517932        1       159         3.6961080        3
    51         6.7316611        1       160         4.0874361        3
    52         6.9596385        1       161         4.1750933        3
    53         7.5991956        1       162         4.1959955        3
    54         8.1648967        1       163         4.8502480        3
    55        10.3707924        1       164         4.9513728        3
    56        10.6094654        1       165         5.6814316        3
    57        10.9568382        1       166         6.0400484        3
    58        11.0549589        1       167         6.2918270        3
    59        11.5091768        1       168         6.4225984        3
    60        12.1818091        1       169         7.2447334        3
    61        12.8150617        1       170         8.1378750        3
    62        13.0273046        1       171        10.1021765        3
    63        14.8294422        1       172        10.8190902        3
    64        17.8595063        1       173        11.2758273        3
    65        20.5242008        1       174        11.8572453        3
    66        26.4349403        1       175        12.5663570        3
    67        27.7237511        1       176        13.6095045        3
    68        34.7203722        1       177        19.1777806        3
    69        36.4109270        1       178        26.8663921        3
    70        47.0982738        1       179        33.7499476        3
    71        48.2338891        1       180        47.4503341        3
    72        64.0757720        1       181        66.6642847        3
    73        67.6863983        1       182        98.6240991        3
    74        98.6403949        1       183        98.6853927        3
    75        98.7048550        1       184       103.2828268        3
    76       103.3179393        1       185       103.3536224        3
    77       103.3828472        1       186       115.3199488        3
    78       115.1094965        1       187       117.0062864        3
    79       115.7454828        1       188       198.7507626        3
    80       117.7666213        1       189       225.0975368        3
    81       122.6242918        1       190       395.4651768        3
    82       198.5625298        1       191         0.2269919        4
    83       199.1480582        1       192         0.5411111        4
    84       216.5701364        1       193         0.7627504        4
    85       225.9252010        1       194         0.8841131        4
    86       396.0882484        1       195         1.5366088        4
    87       509.2078449        1       196         1.7512602        4
    88       895.3993532        1       197         2.0972753        4
    89         0.0559806        2       198         2.1744219        4
    90         0.1132053        2       199         2.3452496        4
    91         0.1676707        2       200         2.9125018        4
    92         0.3092392        2       201         3.7081575        4
    93         0.3954558        2       202         4.1916123        4
    94         0.6258061        2       203         4.3333164        4
    95         0.7457128        2       204         5.0606400        4
    96         0.8094509        2       205         5.8834455        4
    97         0.8899741        2       206         6.2613359        4
    98         1.0532703        2       207         6.5517932        4
    99         1.4393630        2       208         6.9596385        4
   100         1.5679981        2       209        10.6094654        4
   101         1.7219328        2       210        11.0549589        4
   102         2.0229922        2       211        12.1818091        4
   103         2.2415041        2       212        12.8150617        4
   104         2.3004958        2       213        26.4349403        4
   105         2.3220997        2       214        47.0982738        4
   106         2.5675433        2       215        98.6403949        4
   107         2.7400595        2       216       103.3179393        4
   108         3.6961080        2       217       115.1094965        4
   109         4.0874361        2       218       198.5625298        4
------------------------------------------------------------------------
  -20.6668602857901       -11.4097222356089       -1.44740668602260     
 -0.796259373587203      -0.564610571404976      -0.595114897555045     
 -0.595114897555034       6.235030193556482E-002  7.140856394041442E-002
  0.156978586378632       0.226991948286967       0.228373156515267     
  0.299935718947828       0.385778232270252       0.509355732530285     
  0.541111075497962       0.597318057606370       0.762750385679088     
  0.773715399741789       0.845300626432323       0.872087869162821     
  0.884113094158222        1.13844338730093        1.43682002068265     
   1.53660881628855        1.66232752306765        1.75126023054788     
   1.81352335556749        2.07124339360883        2.09727533565952     
   2.17442193275896        2.30442154912330        2.34524959602653     
   2.48392139501951        2.78571279214825        2.91250178708090     
   3.45908230875029        3.70815751827760        3.90918547332751     
   4.19161225287167        4.23640214996547        4.33331637277230     
   4.40269521164921        5.06064002079206        5.16486786561206     
   5.45918421135169        5.88344553922878        6.23355609492633     
   6.26133592150035        6.55179322498036        6.73166113050754     
   6.95963848728310        7.59919559969350        8.16489674527792     
   10.3707924259650        10.6094653783066        10.9568382438180     
   11.0549589279716        11.5091767512148        12.1818091005812     
   12.8150616900371        13.0273046098956        14.8294421630548     
   17.8595062699651        20.5242007851876        26.4349403387225     
   27.7237511131952        34.7203721691762        36.4109269814354     
   47.0982737955808        48.2338890558304        64.0757720309384     
   67.6863982644296        98.6403949437596        98.7048550406427     
[...]
 Convergence information after     9 iterations: 
 Largest element of residual vector : -0.17057271E-04.
 Largest element of DIIS residual   : -0.69768154E-05.
 Convergence information after    10 iterations: 
 Largest element of residual vector : -0.77453803E-05.
 Largest element of DIIS residual   : -0.56997007E-05.
 Convergence information after    11 iterations: 
 Largest element of residual vector : -0.36677067E-05.
 Largest element of DIIS residual   : -0.11388270E-05.
 Convergence information after    12 iterations: 
 Largest element of residual vector : -0.17317058E-05.
 Largest element of DIIS residual   :  0.65403019E-06.
 Convergence information after    13 iterations: 
 Largest element of residual vector :  0.54761818E-06.
 Largest element of DIIS residual   :  0.17828075E-06.
 Convergence information after    14 iterations: 
 Largest element of residual vector :  0.21361876E-06.
 Largest element of DIIS residual   :  0.88112276E-07.
 Perturbed amplitude equations converged in    14 iterations.
  Dominant contributions to perturbed wavefunction:
    7    7  141   28   0.2327308905 ABAB
    7    7   28  141   0.2327308905 ABAB
    7    7  141   39   0.1782486029 ABAB
    7    7   39  141   0.1782486029 ABAB
    7    7  140   28   0.1771998823 ABAB
    7    7   28  140   0.1771998823 ABAB
    7    7  141   37  -0.1671711977 ABAB
    7    7   37  141  -0.1671711977 ABAB
    7    6   28   90   0.1502251108 ABAB
    6    7   90   28   0.1502251108 ABAB
    7    7  141   45   0.1387688769 ABAB
    7    7   45  141   0.1387688769 ABAB
    7    0   45    0  -0.1316313609 AA  
    7    7  141   54  -0.1316148979 ABAB
    7    7   54  141  -0.1316148979 ABAB
    7    7  140   39   0.1300252250 ABAB
    7    7   39  140   0.1300252250 ABAB
    7    7  141   20   0.1274015042 ABAB
    7    7   20  141   0.1274015042 ABAB
    7    7  140   37  -0.1240679474 ABAB
  norm of converged amps    2.17962704582619     
 Starting iterative solution of the perturbed Lambda equations.
 The DIIS procedure is used to accelerate convergence.
 Convergence criterion is 10**(-7).
 Maximum number of iterations is 100.
 Convergence information after     1 iterations: 
 Largest element of residual vector :  0.59269556E-01.
 Largest element of DIIS residual   :  0.59269556E-01.
 Convergence information after     2 iterations: 
 Largest element of residual vector : -0.99099148E-02.
 Largest element of DIIS residual   : -0.61888273E-02.
 Convergence information after     3 iterations: 
 Largest element of residual vector : -0.50007411E-02.
 Largest element of DIIS residual   : -0.44137796E-02.
 Convergence information after     4 iterations: 
 Largest element of residual vector : -0.30913730E-02.
 Largest element of DIIS residual   : -0.25361330E-02.
 Convergence information after     5 iterations: 
 Largest element of residual vector : -0.19924090E-02.
 Largest element of DIIS residual   : -0.10247524E-02.
 Convergence information after     6 iterations: 
 Largest element of residual vector : -0.69496727E-03.
 Largest element of DIIS residual   : -0.20973168E-03.
 Convergence information after     7 iterations: 
 Largest element of residual vector : -0.18832508E-03.
 Largest element of DIIS residual   :  0.84471954E-04.
 Convergence information after     8 iterations: 
 Largest element of residual vector :  0.51244499E-04.
 Largest element of DIIS residual   : -0.27211450E-04.
 Convergence information after     9 iterations: 
 Largest element of residual vector :  0.14378323E-04.
 Largest element of DIIS residual   : -0.66010981E-05.
 Convergence information after    10 iterations: 
 Largest element of residual vector : -0.57579691E-05.
 Largest element of DIIS residual   : -0.47972420E-05.
 Convergence information after    11 iterations: 
 Largest element of residual vector : -0.26774643E-05.
 Largest element of DIIS residual   : -0.10899702E-05.
 Convergence information after    12 iterations: 
 Largest element of residual vector : -0.14600691E-05.
 Largest element of DIIS residual   :  0.98104287E-06.
 Convergence information after    13 iterations: 
 Largest element of residual vector :  0.74759332E-06.
 Largest element of DIIS residual   :  0.43548532E-06.
 Convergence information after    14 iterations: 
 Largest element of residual vector :  0.41349418E-06.
 Largest element of DIIS residual   :  0.21252715E-06.
 Convergence information after    15 iterations: 
 Largest element of residual vector :  0.13996566E-06.
 Largest element of DIIS residual   :  0.67687653E-07.
 Perturbed Lambda equations converged in    15 iterations.
  Dominant contributions to perturbed wavefunction:
    7    7  141   28   0.2159842773 ABAB
    7    7   28  141   0.2159842773 ABAB
    7    7  140   28   0.1654615158 ABAB
    7    7   28  140   0.1654615158 ABAB
    7    7  141   39   0.1637759321 ABAB
    7    7   39  141   0.1637759321 ABAB
    7    7  141   37  -0.1567137659 ABAB
    7    7   37  141  -0.1567137659 ABAB
    7    6   28   90   0.1372446515 ABAB
    6    7   90   28   0.1372446515 ABAB
    7    7  141   45   0.1247940864 ABAB
    7    7   45  141   0.1247940864 ABAB
    7    7  141   54  -0.1240471731 ABAB
    7    7   54  141  -0.1240471731 ABAB
    7    7  140   39   0.1201750665 ABAB
    7    7   39  140   0.1201750665 ABAB
    7    7  140   37  -0.1169280437 ABAB
    7    7   37  140  -0.1169280437 ABAB
    7    7  141   20   0.1158249645 ABAB
    7    7   20  141   0.1158249645 ABAB
        The DBOC first-order density matrix is being calculated 
             (Symmetry block 3, perturbation   2)
 term   5.46808984194779     
 final tnorm  0.872176605868380     
  norm contr. I: |<0|L dT/dx|0>|^2   0.000000000000000E+000
  norm contr. II: <0|[nabla(1+L)e-T][nabla e^T]|0>   5.46808984194779     
  total norm contribution   5.46808984194779     
 oo  9.780220329473229E-003
 vv  -41.0293064114109     
 vo  5.451309989682781E-002
  Correlated perturbed 1-el contribution to DBOC  -40.9650130911846       cm**-1
  SUM_I |dc_I/dx|^2 contribution to DBOC   20.5857703621837       cm**-1
 
 
  The total diagonal Born-Oppenheimer correction (DBOC) is:      0.0041393251 a.u.
  The total diagonal Born-Oppenheimer correction (DBOC) is:        908.476859 cm-1
 
 Total CC energy including DBOC  -113.256289731017     
 First-order density matrix is being calculated  (Symmetry block 3, perturbation   2)
 Calculation of the contributions of <pq||rs> to dI(i,j)/dx required   1.4 seconds.
 Calculation of the contributions of <pq||rs> to dI(a,b)/dx required  15.9 seconds.
 Calculation of the contributions of <pq||rs> to dI(i,a)/dx required   9.6 seconds.
 First-order Z-vector equations are solved for 1 perturbation.
 Convergence reached after  18 iterations.
        U*G(pq,rs) contribution is being calculated
             (Symmetry block 3, perturbation   2)

 CCSD contribution to force constants 

        0.0000000000        0.0000000000        0.0000000000
        0.0000000000        0.0000000000        0.0000000000
        0.0000000000        0.0000000000        0.0000000000
        0.0000000000        0.0000000000        0.0000000000
        0.0000000000        0.0000000000        0.0000000000
        0.0000000000        0.0000000000        0.0000000000
        0.0000000000        0.0000000000        0.0000000000
        0.0000000000        0.0000000000        0.0000000000
        0.0000000000        0.0000000000        0.0000000000
        0.0000000000        0.0000000000        0.0000000000
        0.0000000000        0.0000000000        0.0000000000
        0.0000000000        1.4045536172       -1.4045536172

 CCSD contribution to dipole derivatives 

        0.0000000000        0.0000000000        0.0000000000
        0.0000000000        0.0000000000        0.0000000000
        0.0000000000        0.0000000000        0.0000000000
        0.0000000000        0.0000000000       -0.0491715750
        0.0000000000        0.0000000000        0.0000000000
        0.0000000000        0.0000000000        0.0000000000
 @CHECKOUT-I, Total execution time (CPU/WALL):     1032.58/     263.72 seconds.
--executable xsdcc finished with status     0 in      263.75 seconds (walltime).
 --invoking executable--
/nfs/workspaces/public/cfour_mpi/bin/xanti
 @GETMEM-I,  Allocated    3814 MB of main memory.
 CCSD MO derivative gammas will be sorted to Mulliken order.
 @CHECKOUT-I, Total execution time (CPU/WALL):        8.81/      11.29 seconds.
--executable xanti finished with status     0 in       11.31 seconds (walltime).
 --invoking executable--
/nfs/workspaces/public/cfour_mpi/bin/xbcktrn
 @GETMEM-I,  Allocated    3814 MB of main memory.
 CCSD MO derivative gammas will be transformed to the AO basis.
 @CHECKOUT-I, Total execution time (CPU/WALL):       20.38/       3.37 seconds.
--executable xbcktrn finished with status     0 in        3.39 seconds (walltime).
 --invoking executable--
/nfs/workspaces/public/cfour_mpi/bin/xvdint
 @GETMEM-I,  Allocated    3814 MB of main memory.
 One- and two-electron integral derivatives are calculated
 for RHF-CC/MBPT hessians and dipole derivatives.
 Spherical gaussians are used.
  magnet F F
                    8722  records have been written to the Sort file.
  Total length of Sort file :             178609116  words.
 Evaluation of 2el integral derivatives

                      Two-electron integral gradient
                      ------------------------------

                         C #1 z     0.0000000000
                         O #2 z     0.0000000000


 C #1       0.0000000000           -0.3144863767            0.0000000000
 O #2       0.0000000000            0.3144863767            0.0000000000


 Evaluation of 2e integral derivatives required  349.16 seconds.
  contribution to Hessian
        0.0000000000        0.0000000000        0.0000000000
        0.0000000000       -0.3144863767        0.3144863767
 @CHECKOUT-I, Total execution time (CPU/WALL):      349.15/      71.85 seconds.
--executable xvdint finished with status     0 in       71.87 seconds (walltime).
 --invoking executable--
/nfs/workspaces/public/cfour_mpi/bin/xanti
 @GETMEM-I,  Allocated    3814 MB of main memory.
 CCSD MO gammas will be sorted to Mulliken order.
 @CHECKOUT-I, Total execution time (CPU/WALL):       11.02/       9.67 seconds.
--executable xanti finished with status     0 in        9.69 seconds (walltime).
 --invoking executable--
/nfs/workspaces/public/cfour_mpi/bin/xbcktrn
 @GETMEM-I,  Allocated    3814 MB of main memory.
 CCSD MO gammas will be transformed to the AO basis.
 @CHECKOUT-I, Total execution time (CPU/WALL):       27.49/       5.64 seconds.
--executable xbcktrn finished with status     0 in        5.66 seconds (walltime).
 --invoking executable--
/nfs/workspaces/public/cfour_mpi/bin/xvdint
 @GETMEM-I,  Allocated    3814 MB of main memory.
 One- and two-electron integral derivatives are calculated
 for RHF-CC/MBPT hessians and dipole derivatives.
 Spherical gaussians are used.
  magnet F F

                     Kinetic energy integral gradient
                     --------------------------------

                         C #1 z    -1.1790597728
                         O #2 z     1.1790597728


 C #1       0.0000000000            0.0000000000           -1.1790597728
 O #2       0.0000000000            0.0000000000            1.1790597728



                   Nuclear attraction integral gradient
                   ------------------------------------

                         C #1 z    20.7201777307
                         O #2 z   -20.7201777307


 C #1       0.0000000000            0.0000000000           20.7201777307
 O #2       0.0000000000            0.0000000000          -20.7201777307



                      Reorthonormalization gradient
                      -----------------------------

                         C #1 z     0.0000000000
                         O #2 z     0.0000000000


 C #1       0.0000000000            0.0000000000            0.0000000000
 O #2       0.0000000000            0.0000000000            0.0000000000



                     Kinetic energy integral Hessian
                     -------------------------------


           Symmetry 1

           C #1 z      O #2 z

 C #1 z    1.040079
 O #2 z   -1.040079    1.040079


           Symmetry 2

           C #1 x      O #2 x

 C #1 x   -1.335515
 O #2 x    1.335515   -1.335515


           Symmetry 3

           C #1 y      O #2 y

 C #1 y   -1.335515
 O #2 y    1.335515   -1.335515




           C #1 x      C #1 y      C #1 z      O #2 x      O #2 y      O #2 z

 C #1 x   -1.335515
 C #1 y    0.000000   -1.335515
 C #1 z    0.000000    0.000000    1.040079

 O #2 x    1.335515    0.000000    0.000000   -1.335515
 O #2 y    0.000000    1.335515    0.000000    0.000000   -1.335515
 O #2 z    0.000000    0.000000   -1.040079    0.000000    0.000000    1.040079




                   Nuclear attraction integral Hessian
                   -----------------------------------


           Symmetry 1

           C #1 z      O #2 z

 C #1 z  -12.463981
 O #2 z   12.463981  -12.463981


           Symmetry 2

           C #1 x      O #2 x

 C #1 x   16.058832
 O #2 x  -16.058832   16.058832


           Symmetry 3

           C #1 y      O #2 y

 C #1 y   16.058832
 O #2 y  -16.058832   16.058832




           C #1 x      C #1 y      C #1 z      O #2 x      O #2 y      O #2 z

 C #1 x   16.058832
 C #1 y    0.000000   16.058832
 C #1 z    0.000000    0.000000  -12.463981

 O #2 x  -16.058832    0.000000    0.000000   16.058832
 O #2 y    0.000000  -16.058832    0.000000    0.000000   16.058832
 O #2 z    0.000000    0.000000   12.463981    0.000000    0.000000  -12.463981




                Highest order reorthonormalization Hessian
                ------------------------------------------


           Symmetry 1

           C #1 z      O #2 z

 C #1 z    0.000000
 O #2 z    0.000000    0.000000


           Symmetry 2

           C #1 x      O #2 x

 C #1 x    0.000000
 O #2 x    0.000000    0.000000


           Symmetry 3

           C #1 y      O #2 y

 C #1 y    0.000000
 O #2 y    0.000000    0.000000




           C #1 x      C #1 y      C #1 z      O #2 x      O #2 y      O #2 z




                Electronic contributions to dipole moment
                -----------------------------------------

                               au             Debye

                    z      0.09210728      0.23411339

  Conversion factor used: 1 a.u. =   2.54174691 Debye 



   Electronic contributions to static part of dipole moment derivatives
   --------------------------------------------------------------------


                     Total dipole moment derivatives
                     -------------------------------


           Symmetry 1
                              Ez

               C #1 z    -5.68682693
               O #2 z    -8.31317307

           Symmetry 2
                              Ex

               C #1 x    -5.73378477
               O #2 x    -8.26621523

           Symmetry 3
                              Ey

               C #1 y    -5.73378477
               O #2 y    -8.26621523



                       Ex          Ey          Ez

      C #1    x   -5.733785    0.000000    0.000000
      C #1    y    0.000000   -5.733785    0.000000
      C #1    z    0.000000    0.000000   -5.686827

      O #2    x   -8.266215    0.000000    0.000000
      O #2    y    0.000000   -8.266215    0.000000
      O #2    z    0.000000    0.000000   -8.313173

 Evaluation of 1e integral derivatives required    1.70 seconds.
                    8815  records have been written to the Sort file.
  Total length of Sort file :             180513570  words.
 Evaluation of 2el integral derivatives

                      Two-electron integral gradient
                      ------------------------------

                         C #1 z   -10.1813984754
                         O #2 z    10.1813984754


 C #1       0.0000000000            0.0000000000          -10.1813984754
 O #2       0.0000000000            0.0000000000           10.1813984754


 Evaluation of 2e integral derivatives required  675.46 seconds.

                            Molecular gradient
                            ------------------

                         C #1 z     0.6373532950
                         O #2 z    -0.6373532950


 C #1       0.0000000000            0.0000000000            0.6373532950
 O #2       0.0000000000            0.0000000000           -0.6373532950


  Molecular gradient norm 0.901E+00

                            Molecular hessian
                            -----------------


           Symmetry 1

           C #1 z      O #2 z

 C #1 z   48.594020
 O #2 z  -48.594020   48.594020


           Symmetry 2

           C #1 x      O #2 x

 C #1 x   -0.829295
 O #2 x    0.829295   -0.829295


           Symmetry 3

           C #1 y      O #2 y

 C #1 y   -0.829295
 O #2 y    0.829295   -0.829295




           C #1 x      C #1 y      C #1 z      O #2 x      O #2 y      O #2 z

 C #1 x   -0.829295
 C #1 y    0.000000   -0.829295
 C #1 z    0.000000    0.000000   48.594020

 O #2 x    0.829295    0.000000    0.000000   -0.829295
 O #2 y    0.000000    0.829295    0.000000    0.000000   -0.829295
 O #2 z    0.000000    0.000000  -48.594020    0.000000    0.000000   48.594020




                           Total dipole moment
                           -------------------

                               au             Debye

                    z      0.08955047      0.22761463

  Conversion factor used: 1 a.u. =   2.54174691 Debye 



                     Total dipole moment derivatives
                     -------------------------------


           Symmetry 1
                              Ez

               C #1 z     0.71107316
               O #2 z    -0.71107316

           Symmetry 2
                              Ex

               C #1 x     0.03848435
               O #2 x    -0.03848435

           Symmetry 3
                              Ey

               C #1 y     0.03848435
               O #2 y    -0.03848435



                       Ex          Ey          Ez

      C #1    x    0.038484    0.000000    0.000000
      C #1    y    0.000000    0.038484    0.000000
      C #1    z    0.000000    0.000000    0.711073

      O #2    x   -0.038484    0.000000    0.000000
      O #2    y    0.000000   -0.038484    0.000000
      O #2    z    0.000000    0.000000   -0.711073

 @CHECKOUT-I, Total execution time (CPU/WALL):      677.15/     112.20 seconds.
--executable xvdint finished with status     0 in      112.22 seconds (walltime).
 --invoking executable--
/nfs/workspaces/public/cfour_mpi/bin/xjoda
  @GTFLGS-I, Hessian will be transformed to curvilinear coordinates.
  @GTFLGS-I, Hessian will be transformed to curvilinear coordinates.
  igrd and ihes are                      0                     1
  gradient from JOBARC 
   0.000000000000000   0.000000000000000   0.637353294993911
   0.000000000000000   0.000000000000000  -0.637353294993911
 
  @PROJFCM-I, Projecting force constant matrix onto totally symmetric subspace.
  Largest difference between matrix elements of symmetrized
  and unsymmetrized FCM :    -0.9071965401E-11.
  read isotopes from ZMAT file 
 
  Summary of diagonal Born-Oppenheimer correction at the correlated level
  The total diagonal Born-Oppenheimer correction (DBOC) is:      0.0041393251 a.u.
  The total diagonal Born-Oppenheimer correction (DBOC) is:        908.476859 cm-1
  The total diagonal Born-Oppenheimer correction (DBOC) is:            10.868 kJ/mole
  hellooooooo 
  readis is  F
 
 @CHECKOUT-I, Total execution time (CPU/WALL):        0.01/       0.03 seconds.
--executable xjoda finished with status     0 in        0.04 seconds (walltime).
  The final electronic energy is      -113.256289731017446 a.u. 
  This computation required                         2586.66 seconds (walltime).
