 --invoking executable--
/nfs/workspaces/public/cfour_mpi/bin/xjoda


   *************************************************************************
         <<<     CCCCCC     CCCCCC   |||     CCCCCC     CCCCCC   >>>
       <<<      CCC        CCC       |||    CCC        CCC         >>>
      <<<      CCC        CCC        |||   CCC        CCC            >>>
    <<<        CCC        CCC        |||   CCC        CCC              >>>
      <<<      CCC        CCC        |||   CCC        CCC            >>>
       <<<      CCC        CCC       |||    CCC        CCC         >>>
         <<<     CCCCCC     CCCCCC   |||     CCCCCC     CCCCCC   >>>
   *************************************************************************

     ****************************************************************
     * CFOUR Coupled-Cluster techniques for Computational Chemistry *
     ****************************************************************
 

   Department of Chemistry                Institut fuer Physikalische Chemie
   University of Florida                  Universitaet Mainz
   Gainesville, FL 32611, USA             D-55099 Mainz, Germany

   Department of Chemistry                Fakultaet fuer Chemie und Biowiss.
   Johns Hopkins University               Karlsruher Institut fuer Technologie
   Baltimore, MD 21218, USA               D-76131 Karlsruhe, Germany

   Department of Chemistry                Department of Physical Chemistry
   Southern Methodist University          Eotvos Lorand University
   Dallas, TX 75275, USA                  H-1053 Budapest, Hungary

 
                       Version 2.1
 
                     vincent.theory.phys.ucl.ac.uk                     
                     Tue 25 Feb 13:35:48 GMT 2025                      
                     integer*8 version is running
 
********************************************************************************
*                          Input from ZMAT file                                *
********************************************************************************
Carbon Monoxide DBOC calculation                                                
C                                                                               
O 1 r                                                                           
                                                                                
r=1.4275862068965517                                                            
                                                                                
                                                                                
*CFOUR(CALC=CCSD,BASIS=AUG-PCVQZ,SCF_CONV=10                                    
CC_CONV=14,DBOC=ON,MEMORY=500000000                                             
ZFIELD=200)                                                                     
                                                                                
%isotopes                                                                       
12                                                                              
16                                                                              
********************************************************************************
  @GTFLGS-I, Hessian will be transformed to curvilinear coordinates.
    -------------------------------------------------------------------
                    CFOUR Control Parameters 
    -------------------------------------------------------------------
        External           Internal           Value            Units
          Name               Name
    -------------------------------------------------------------------
       ABCDTYPE             IABCDT         STANDARD    [  0]    ***   
       ANHARMONIC           IANHAR         OFF         [  0]    ***   
       ANH_ALGORIT          IANALG         STANDARD    [  0]    ***   
       ANH_DERIVAT          IANDER         SECOND      [  1]    ***   
       ANH_MODE             ANHMOD         VIBRATION   [  0]    ***   
       ANH_STEPSIZ          ICUBST             50000          x 10-6  
       ANH_SYMMETR          IANHSM         ABELIAN     [  0]    ***   
       AO_LADDERS           IAOLAD         SINGLEPASS  [  1]    ***   
       AV_SCF               IAVSCF         OFF         [  0]    ***   
       BASIS                IBASIS         AUG-PCVQZ   [ 52]    ***   
       BOTHVECTORS          BOTHVC         OFF         [  0]    ***   
       BOX_POTENT           IPIAB          OFF         [  0]    ***   
       BREIT                IBREIT         OFF         [  0]    ***   
       BRUCK_CONV           IBRTOL          10D-  4             ***   
       BRUECKNER            IBRKNR         OFF         [  0]    ***   
       BUFFERSIZE           IBUFFS              4096            ***   
       CACHE_RECS           ICHREC             10               ***   
       CALCLEVEL            ICLLVL         CCSD        [ 10]    ***   
       CCORBOPT             ICCORB         OFF         [  0]  x 0.01  
       CC_CONV              ICCCNV          10D- 14             ***   
       CC_EXPORDER          ICCEOR              5               ***   
       CC_EXTRAPOL          ICCEXT         DIIS        [  1]    ***   
       CC_GUESS             ICCGES         MP2         [  0]    ***   
       CC_MAXCYC            ICCCYC            100              cycles 
       CC_PROGRAM           ICCPRO         VCC         [  0]    ***   
       CHARGE               ICHRGE              0               ***   
       CHOLESKY             ICHOLE         OFF         [  0]    ***   
       CIS_CONV             ICISTL              5               ***   
       COMM_SIZE            IPSIZE            ***               ***   
       CONSTANT             ICONST         OLD         [  1]    ***   
       CONTINUUM            ICONTU         NONE        [  0]    ***   
       CONTRACTION          ICNTYP         GENERAL     [  1]    ***   
       COORDINATES          ICOORD         INTERNAL    [  0]    ***   
       CPHF_CONVER          ICPHFT          10D- 16             ***   
       CPHF_MAXCYC          ICPHFC             64              cycles 
       CUBIC                ICUBIC         OFF         [  0]    ***   
       CURVILINEAR          ICURVY         ON          [  1]    ***   
       DBOC                 IDBOC          ON          [  1]    ***   
       DCT                  IDCT           OFF         [  0]    ***   
       DERIV_LEV            IDRLVL         SECOND      [  2]    ***   
       DEVMEM_SIZE          IDVMEM          50000000           MByte  
       DIAG_MRCC            IEOMST          10D-  0             ***   
       DIFF_TYPE            IDIFTY         RELAXED     [  0]    ***   
       DIRECT               IDIRCT         OFF         [  0]    ***   
       DROPMO               IDRPMO      NONE         
       ECP                  IECP           OFF         [  0]    ***   
       EIGENVECTOR          IVEC                1               ***   
       EL_ANHARM            IELANH         OFF         [  0]    ***   
       EOMFOLLOW            IEOMSR         ENERGY      [  0]    ***   
       EOMIP                IEOMIP         OFF         [  0]    ***   
       EOMLEVEL             HBARFM         SAME        [  0]    ***   
       EOM_MRCC             IMRCCE         NEW         [  1]    ***   
       EOM_NONIT            EOMNON         OFF         [  0]    ***   
       EOM_NSING            IEOMSI          10D-  0             ***   
       EOM_NSTATES          IMRCCD         DAVIDSON    [  0]    ***   
       EOM_NTRIP            IEOMTR          10D-  0             ***   
       EOM_ORDER            IEXORD         ENERGY      [  0]    ***   
       EOM_PROPSTA          IEOMST              0               ***   
       ESTATE_CONV          IEXTOL          10D-  5             ***   
       ESTATE_DIAG          IEXDIG         ITERATIVE   [  0]    ***   
       ESTATE_LOCK          IESLOC         ON          [  1]    ***   
       ESTATE_MAXC          IEXMXC             40               ***   
       ESTATE_PROP          IEXPRP         OFF         [  0]    ***   
       EVAL_HESS            IRECAL              0            # of cyc.
       EXCITATION           IEXCIT              0               ***   
       EXCITE               IEXCIT         NONE        [  0]    ***   
       EXTERN_POT           IEXPOT         OFF         [  0]    ***   
       FCGRADNEW            IFCGNW         OFF         [  0]    ***   
       FC_FIELD             IFINFC              0             x 10-6  
       FD_CALTYPE           IFDCAL         GRADONLY    [  0]    ***   
       FD_PROJECT           IFDPRJ         OFF         [  1]    ***   
       FD_STEPSIZE          IDISFD              0            10-4 bohr
       FD_USEGROUP          IFDGRP         FULL        [  0]    ***   
       FILE_RECSIZ          IFLREC              4096           words  
       FINITE_PERT          IFIPER              0             x 10-6  
       FIXGEOM              IFIXGM         OFF         [  0]    ***   
       FOCK                 IFOCK          AO          [  1]    ***   
       FREQ_ALGORI          IVIALG         STANDARD    [  0]    ***   
       FROZEN_CORE          IFROCO         OFF         [  0]    ***   
       GAMMA_ABCD           IGABCD         STORE       [  0]    ***   
       GAMMA_ABCI           IGABCI         STORE       [  0]    ***   
       GENBAS_1             IGNBS1              0               ***   
       GENBAS_2             IGNBS2              0               ***   
       GENBAS_3             IGNBS3              0               ***   
       GENBAS_4             IGNBS4              0               ***   
       GEO_CONV             ICONTL              5              H/bohr 
       GEO_MAXCYC           IOPTCY             50               ***   
       GEO_MAXSTEP          IMXSTP            300            millibohr
       GEO_METHOD           INR            SINGLE_POINT[  5]    ***   
       GIAO                 IGIAO          OFF         [  1]    ***   
       GIMIC                IGIMIC         OFF         [  0]    ***   
       GRID                 IGRID          OFF         [  0]    ***   
       GRID_ALGO            IGALGO         SERIAL      [  0]    ***   
       GUESS                IGUESS         MOREAD      [  0]    ***   
       HBAR                 IHBAR          OFF         [  0]    ***   
       HESS_TYPE            IHESTP         SCF         [  0]    ***   
       HF2_FILE             IHF2Fl         USE         [  1]    ***   
       HFSTABILITY          ISTABL         OFF         [  0]    ***   
       INCORE               INCORE         OFF         [  0]    ***   
       INPUT_MRCC           IMRCC          ON          [  1]    ***   
       INTEGRALS            INTTYP         VMOL        [  1]    ***   
       JODA_PRINT           IJPRNT              0               ***   
       KEYWORD_OUT          IDMPKW         NO          [  0]    ***   
       LINDEP_TOL           ILINDP              8               ***   
       LINEQ_CONV           IZTACN          10D-  7           cycles  
       LINEQ_EXPOR          ILMAXD              5               ***   
       LINEQ_MAXCY          ILMAXC            100               ***   
       LINEQ_TYPE           ILTYPE         DIIS        [  1]    ***   
       LOCK_ORBOCC          ILOCOC         OFF         [  0]    ***   
       MEMORY_SIZE          IMEMSZ         500000000           words  
       MEM_UNIT             IMEMU          INTEGERWORDS[  0]    ***   
       MRCC                 IMRCCC         OFF         [  0]    ***   
       MULTIPLICTY          IMULTP              1               ***   
       NACOUPLING           IVCOUP         OFF         [  0]    ***   
       NEGEVAL              IDIE           ABORT       [  0]    ***   
       NEWNORM              INEWNO         OFF         [  0]    ***   
       NON-HF               INONHF         OFF         [  0]    ***   
       NTOP_TAMP            ITOPT2             15               ***   
       NUC_MODEL            INUCMO         POINT       [  0]    ***   
       OCCUPATION           IOCCU   ESTIMATED BY SCF 
       OPEN-SHELL           IOPEN          SPIN-ORBITAL[  0]    ***   
       OPTVIB               IOPTVB         OFF         [  0]    ***   
       ORBITALS             IORBTP         STANDARD    [  0]    ***   
       PARALLEL             IPARAL         ON          [  1]    ***   
       PARA_INT             IPINTS         ON          [  1]    ***   
       PARA_PRINT           IPPRIN              0               ***   
       PERT_ORB             IPTORB         STANDARD    [  0]    ***   
       POINTS               IGRDFD              0               ***   
       PRINT                IPRNT               0               ***   
       PROPS                IPROPS         OFF         [  0]    ***   
       PROP_INTEGR          IINTYP         INTERNAL    [  0]    ***   
       PSI                  IPSI           OFF         [  0]    ***   
       QC_ALG               IQCALG         FLM         [  0]    ***   
       QC_LINALG            IQCLIN         TRIDIAG     [  2]    ***   
       QC_MAXCYC            IQCMAX          10D-100           cycles  
       QC_MAXSCFCY          IQCMSC          10D- 15           cycles  
       QC_RTRUST            IQCRTR          10D-  0           x 10-3  
       QC_SKIPSCF           IQCSKI         OFF         [  0]    ***   
       QC_START             IQCSTA          10D-  1             ***   
       QRHFGUESS            IQGUES         OFF         [  0]    ***   
       QUARTIC              IQUART         OFF         [  0]    ***   
       RAMAN_INT            IRAMIN         OFF         [  0]    ***   
       RAMAN_ORB            IRAMRE         UNRELAXED   [  0]    ***   
       RDO                  IRDOFM         ON          [  1]    ***   
       REDUCE_REPR          REDREP         Ir          [  0]    ***   
       REFERENCE            IREFNC         RHF         [  0]    ***   
       RELATIVIST           IRELAT         OFF         [  0]    ***   
       RELAX_DENS           IRDENS         ON          [  1]    ***   
       RESET_FLAGS          IRESET         OFF         [  0]    ***   
       RESTART_CC           ICCRES         OFF         [  0]    ***   
       ROT_EVEC             ROTVEC              0               ***   
       SAVE_INTS            ISVINT         OFF         [  0]    ***   
       SCALE_ON             ISTCRT              0               ***   
       SCF_CONV             ISCFCV          10D- 10             ***   
       SCF_DAMPING          IDAMP               0             x 10-3  
       SCF_EXPORDE          IRPPOR              6               ***   
       SCF_EXPSTAR          IRPPLS              8               ***   
       SCF_EXTRAPO          IRPP           ON          [  1]    ***   
       SCF_MAXCYC           ISCFCY            150              cycles 
       SCF_NOSTOP           ISCFST         OFF         [  0]    ***   
       SCF_PRINT            ISCFPR              0               ***   
       SCF_PROG             ISCFPR         SCF         [  0]    ***   
       SD_FIELD             IFINSD              0             x 10-6  
       SOPERT               IPERSO         OFF         [  0]    ***   
       SPHERICAL            IDFGHI         ON          [  1]    ***   
       SPINORBIT            ISOCAL         OFF         [  0]    ***   
       SPINROTATIO          ISRCON         OFF         [  0]    ***   
       SPIN_FLIP            ISPFLP         OFF         [  0]    ***   
       SPIN_ORBIT           ISPORB         OFF         [  0]    ***   
       SPIN_SCAL            ISCSMP         OFF         [  0]    ***   
       STEEPSCALE           ISTPSC              1000          x 10-3  
       SUBGROUP             ISUBGP         DEFAULT     [  0]    ***   
       SUBGRPAXIS           ISBXYZ         X           [  0]    ***   
       SYMMETRY             ISYM           ON          [  0]    ***   
       SYM_CHECK            ISYMCK         OVERRIDE    [  1]    ***   
       T3_EXTRAPOL          IT3EXT         OFF         [  0]    ***   
       T4_EXTRAPOL          IT4EXP         OFF         [  0]    ***   
       TAMP_SUM             IEVERY              5               ***   
       TESTSUITE            ITESTS         OFF         [  0]    ***   
       THERMOCH             ITHERM         OFF         [  0]    ***   
       TOL_CHOLESK          ITOLCH          10D-  4             ***   
       TRANGRAD             IRESRM         OFF         [  0]    ***   
       TRANS_INV            ITRAIN         IGNORE      [  1]    ***   
       TREAT_PERT           ITREAT         SIMULTANEOUS[  0]    ***   
       TRIP_ALGORI          ITRALG         NORMAL      [  0]    ***   
       UIJ_THRESHO          IUIJTH              1               ***   
       UNITS                IUNITS         ANGSTROM    [  0]    ***   
       UNOS                 IUNOS          OFF         [  0]    ***   
       UPDATE_HESS          IHUPDT         ON          [  1]    ***   
       VIBPHASE             ISETPH         STANDARD    [  0]    ***   
       VIBRATION            IVIB           ANALYTIC    [  1]    ***   
       VIB_ALGORIT          IGEALG         STANDARD    [  0]    ***   
       VNATORB              IVNORB         OFF         [  0]    ***   
       VTRAN                IVTRAN         FULL/PARTIAL[  0]    ***   
       XFIELD               IXEFLD              0             x 10-6  
       XFORM_TOL            IXFTOL          10D- 11             ***   
       YFIELD               IYEFLD              0             x 10-6  
       ZFIELD               IZEFLD            200             x 10-6  
       ZSCALE_EXP           IZEXPS         OFF         [  0]    ***   
    -------------------------------------------------------------------
   2 entries found in Z-matrix 
   Job Title : Carbon Monoxide DBOC calculation                                                
   There are  1 unique internal coordinates.
   Of these,  0 will be optimized.
   User supplied Z-matrix: 
--------------------------------------------------------------------------------
       SYMBOL    BOND      LENGTH    ANGLE     ANGLE     DIHED     ANGLE
                  TO      (ANGST)    WRT      (DEG)      WRT      (DEG)
--------------------------------------------------------------------------------
        C    
        O          1         r    
                  *Initial values for internal coordinates* 
                      Name             Value
                        r               1.4275862069
--------------------------------------------------------------------------------
  read isotopes from ZMAT file 
   Rotational constants (in cm-1): 
          1.2064458773             1.2064458773
   Rotational constants (in MHz): 
      36168.3425668018         36168.3425668018
********************************************************************************
   The full molecular point group is CXv .
   The largest Abelian subgroup of the full molecular point group is C2v .
   The computational point group is C2v .
********************************************************************************
--------------------------------------------------------------------------------
   Analysis of internal coordinates specified by Z-matrix 
--------------------------------------------------------------------------------
   *The nuclear repulsion energy is   17.792621333333333 a.u.
   *There is   1 degree of freedom within the tot. symm. molecular subspace.
   *Z-matrix requests optimization of   0 coordinates.
   *The optimization is constrained.
   *The following   1 parameters can have non-zero 
    derivatives within the totally symmetric subspace:
             r    [ 1]
   *The following   0 parameters are to be optimized:

   *The following coordinates must be varied in an  unconstrained optimization.
             r    [ 1]
--------------------------------------------------------------------------------


 ----------------------------------------------------------------
         Coordinates used in calculation (QCOMP) 
 ----------------------------------------------------------------
 Z-matrix   Atomic            Coordinates (in bohr)
  Symbol    Number           X              Y              Z
 ----------------------------------------------------------------
     C         6        -0.00000000     0.00000000     1.54135999
     O         8         0.00000000     0.00000000    -1.15638753
 ----------------------------------------------------------------
 
   Interatomic distance matrix (Angstroms) 
 
                 C             O    
                [ 1]        [ 2]
  C    [ 1]     0.00000
  O    [ 2]     1.42759     0.00000
 rotcon2
   Rotational constants (in cm-1): 
          1.2064458773             0.0000000000
   Rotational constants (in MHz): 
      36168.3425668018             0.0000000000
  ECPDATA file not present.   Using default ECPDATA. 
  @GTFLGS-I, Hessian will be transformed to curvilinear coordinates.
  There are  218 basis functions.
 @CHECKOUT-I, Total execution time (CPU/WALL):        0.12/       0.15 seconds.
--executable xjoda finished with status     0 in        0.17 seconds (walltime).
 --invoking executable--
/nfs/workspaces/public/cfour_mpi/bin/xvmol
 SERIAL VERSION OF MOLECULE STARTED
********************************************************************************
                    INPUT FROM MOL FILE
********************************************************************************
INTGRL        1    0    1    0    0    0    0    0    0                         
         *** CFOUR Program System (Release V0.1) ***                            
Carbon Monoxide DBOC calculation                                                
    2    2 X  Y       0.10E-08              0    0                              
   9999.00      3.00                                                            
          6.00000000    1    5    1    1    1    1    1                         
C #1  -0.000000000000000   0.000000000000000   1.541359985461907                
   16    9                                                                      
   33980.0000000000       9.100000000000000E-005 -1.900000000000000E-005        
  0.000000000000000E+000  0.000000000000000E+000  0.000000000000000E+000        
  0.000000000000000E+000  0.000000000000000E+000  0.000000000000000E+000        
  0.000000000000000E+000                                                        
   5089.00000000000       7.040000000000000E-004 -1.510000000000000E-004        
  0.000000000000000E+000  0.000000000000000E+000  0.000000000000000E+000        
  0.000000000000000E+000  0.000000000000000E+000  0.000000000000000E+000        
  0.000000000000000E+000                                                        
   1157.00000000000       3.693000000000000E-003 -7.850000000000000E-004        
  0.000000000000000E+000  0.000000000000000E+000  0.000000000000000E+000        
  0.000000000000000E+000  0.000000000000000E+000  0.000000000000000E+000        
  0.000000000000000E+000                                                        
   326.600000000000       1.536000000000000E-002 -3.324000000000000E-003        
  0.000000000000000E+000  0.000000000000000E+000  0.000000000000000E+000        
  0.000000000000000E+000  0.000000000000000E+000  0.000000000000000E+000        
  0.000000000000000E+000                                                        
   106.100000000000       5.292900000000000E-002 -1.151200000000000E-002        
  0.000000000000000E+000  0.000000000000000E+000  0.000000000000000E+000        
  0.000000000000000E+000  0.000000000000000E+000  0.000000000000000E+000        
  0.000000000000000E+000                                                        
   38.1100000000000       0.147043000000000      -3.416000000000000E-002        
  0.000000000000000E+000  0.000000000000000E+000  0.000000000000000E+000        
  0.000000000000000E+000  0.000000000000000E+000  0.000000000000000E+000        
  0.000000000000000E+000                                                        
   14.7500000000000       0.305631000000000      -7.717300000000001E-002        
  0.000000000000000E+000  0.000000000000000E+000  0.000000000000000E+000        
  0.000000000000000E+000  0.000000000000000E+000  0.000000000000000E+000        
  0.000000000000000E+000                                                        
   6.03500000000000       0.399345000000000      -0.141493000000000             
  0.000000000000000E+000  0.000000000000000E+000  0.000000000000000E+000        
  0.000000000000000E+000  0.000000000000000E+000  0.000000000000000E+000        
  0.000000000000000E+000                                                        
   2.53000000000000       0.217051000000000      -0.118019000000000             
  0.000000000000000E+000  0.000000000000000E+000  0.000000000000000E+000        
  0.000000000000000E+000  0.000000000000000E+000  0.000000000000000E+000        
  0.000000000000000E+000                                                        
  0.735500000000000       1.589400000000000E-002  0.273806000000000             
   1.00000000000000       0.000000000000000E+000  0.000000000000000E+000        
  0.000000000000000E+000  0.000000000000000E+000  0.000000000000000E+000        
  0.000000000000000E+000                                                        
  0.290500000000000      -3.084000000000000E-003  0.586510000000000             
  0.000000000000000E+000   1.00000000000000       0.000000000000000E+000        
  0.000000000000000E+000  0.000000000000000E+000  0.000000000000000E+000        
  0.000000000000000E+000                                                        
  0.111100000000000       9.779999999999999E-004  0.285430000000000             
  0.000000000000000E+000  0.000000000000000E+000   1.00000000000000             
  0.000000000000000E+000  0.000000000000000E+000  0.000000000000000E+000        
  0.000000000000000E+000                                                        
   7.21600000000000       0.000000000000000E+000  0.000000000000000E+000        
  0.000000000000000E+000  0.000000000000000E+000  0.000000000000000E+000        
   1.00000000000000       0.000000000000000E+000  0.000000000000000E+000        
  0.000000000000000E+000                                                        
   19.5700000000000       0.000000000000000E+000  0.000000000000000E+000        
  0.000000000000000E+000  0.000000000000000E+000  0.000000000000000E+000        
  0.000000000000000E+000   1.00000000000000       0.000000000000000E+000        
  0.000000000000000E+000                                                        
   53.0730000000000       0.000000000000000E+000  0.000000000000000E+000        
  0.000000000000000E+000  0.000000000000000E+000  0.000000000000000E+000        
  0.000000000000000E+000  0.000000000000000E+000   1.00000000000000             
  0.000000000000000E+000                                                        
  4.145000000000000E-002  0.000000000000000E+000  0.000000000000000E+000        
  0.000000000000000E+000  0.000000000000000E+000  0.000000000000000E+000        
  0.000000000000000E+000  0.000000000000000E+000  0.000000000000000E+000        
   1.00000000000000                                                             
   10    8                                                                      
   34.5100000000000       5.378000000000000E-003  0.000000000000000E+000        
  0.000000000000000E+000  0.000000000000000E+000  0.000000000000000E+000        
  0.000000000000000E+000  0.000000000000000E+000  0.000000000000000E+000        
   7.91500000000000       3.613200000000000E-002  0.000000000000000E+000        
  0.000000000000000E+000  0.000000000000000E+000  0.000000000000000E+000        
  0.000000000000000E+000  0.000000000000000E+000  0.000000000000000E+000        
   2.36800000000000       0.142493000000000       0.000000000000000E+000        
  0.000000000000000E+000  0.000000000000000E+000  0.000000000000000E+000        
  0.000000000000000E+000  0.000000000000000E+000  0.000000000000000E+000        
  0.813200000000000       0.342150000000000        1.00000000000000             
  0.000000000000000E+000  0.000000000000000E+000  0.000000000000000E+000        
  0.000000000000000E+000  0.000000000000000E+000  0.000000000000000E+000        
  0.289000000000000       0.463864000000000       0.000000000000000E+000        
   1.00000000000000       0.000000000000000E+000  0.000000000000000E+000        
  0.000000000000000E+000  0.000000000000000E+000  0.000000000000000E+000        
  0.100700000000000       0.250028000000000       0.000000000000000E+000        
  0.000000000000000E+000   1.00000000000000       0.000000000000000E+000        
  0.000000000000000E+000  0.000000000000000E+000  0.000000000000000E+000        
   8.18200000000000       0.000000000000000E+000  0.000000000000000E+000        
  0.000000000000000E+000  0.000000000000000E+000   1.00000000000000             
  0.000000000000000E+000  0.000000000000000E+000  0.000000000000000E+000        
   24.1860000000000       0.000000000000000E+000  0.000000000000000E+000        
  0.000000000000000E+000  0.000000000000000E+000  0.000000000000000E+000        
   1.00000000000000       0.000000000000000E+000  0.000000000000000E+000        
   71.4940000000000       0.000000000000000E+000  0.000000000000000E+000        
  0.000000000000000E+000  0.000000000000000E+000  0.000000000000000E+000        
  0.000000000000000E+000   1.00000000000000       0.000000000000000E+000        
  3.218000000000000E-002  0.000000000000000E+000  0.000000000000000E+000        
  0.000000000000000E+000  0.000000000000000E+000  0.000000000000000E+000        
  0.000000000000000E+000  0.000000000000000E+000   1.00000000000000             
    6    6                                                                      
   1.84800000000000        1.00000000000000       0.000000000000000E+000        
  0.000000000000000E+000  0.000000000000000E+000  0.000000000000000E+000        
  0.000000000000000E+000                                                        
  0.649000000000000       0.000000000000000E+000   1.00000000000000             
  0.000000000000000E+000  0.000000000000000E+000  0.000000000000000E+000        
  0.000000000000000E+000                                                        
  0.228000000000000       0.000000000000000E+000  0.000000000000000E+000        
   1.00000000000000       0.000000000000000E+000  0.000000000000000E+000        
  0.000000000000000E+000                                                        
   8.65600000000000       0.000000000000000E+000  0.000000000000000E+000        
  0.000000000000000E+000   1.00000000000000       0.000000000000000E+000        
  0.000000000000000E+000                                                        
   33.2130000000000       0.000000000000000E+000  0.000000000000000E+000        
  0.000000000000000E+000  0.000000000000000E+000   1.00000000000000             
  0.000000000000000E+000                                                        
  7.660000000000000E-002  0.000000000000000E+000  0.000000000000000E+000        
  0.000000000000000E+000  0.000000000000000E+000  0.000000000000000E+000        
   1.00000000000000                                                             
    4    4                                                                      
   1.41900000000000        1.00000000000000       0.000000000000000E+000        
  0.000000000000000E+000  0.000000000000000E+000                                
  0.485000000000000       0.000000000000000E+000   1.00000000000000             
  0.000000000000000E+000  0.000000000000000E+000                                
   24.6940000000000       0.000000000000000E+000  0.000000000000000E+000        
   1.00000000000000       0.000000000000000E+000                                
  0.187000000000000       0.000000000000000E+000  0.000000000000000E+000        
  0.000000000000000E+000   1.00000000000000                                     
    2    2                                                                      
   1.01100000000000        1.00000000000000       0.000000000000000E+000        
  0.424000000000000       0.000000000000000E+000   1.00000000000000             
          8.00000000    1    5    1    1    1    1    1                         
O #2   0.000000000000000   0.000000000000000  -1.156387530249849                
   16    9                                                                      
   61420.0000000000       9.000000000000001E-005 -2.000000000000000E-005        
  0.000000000000000E+000  0.000000000000000E+000  0.000000000000000E+000        
  0.000000000000000E+000  0.000000000000000E+000  0.000000000000000E+000        
  0.000000000000000E+000                                                        
   9199.00000000000       6.980000000000001E-004 -1.590000000000000E-004        
  0.000000000000000E+000  0.000000000000000E+000  0.000000000000000E+000        
  0.000000000000000E+000  0.000000000000000E+000  0.000000000000000E+000        
  0.000000000000000E+000                                                        
   2091.00000000000       3.664000000000000E-003 -8.290000000000000E-004        
  0.000000000000000E+000  0.000000000000000E+000  0.000000000000000E+000        
  0.000000000000000E+000  0.000000000000000E+000  0.000000000000000E+000        
  0.000000000000000E+000                                                        
   590.900000000000       1.521800000000000E-002 -3.508000000000000E-003        
  0.000000000000000E+000  0.000000000000000E+000  0.000000000000000E+000        
  0.000000000000000E+000  0.000000000000000E+000  0.000000000000000E+000        
  0.000000000000000E+000                                                        
   192.300000000000       5.242300000000000E-002 -1.215600000000000E-002        
  0.000000000000000E+000  0.000000000000000E+000  0.000000000000000E+000        
  0.000000000000000E+000  0.000000000000000E+000  0.000000000000000E+000        
  0.000000000000000E+000                                                        
   69.3200000000000       0.145921000000000      -3.626100000000000E-002        
  0.000000000000000E+000  0.000000000000000E+000  0.000000000000000E+000        
  0.000000000000000E+000  0.000000000000000E+000  0.000000000000000E+000        
  0.000000000000000E+000                                                        
   26.9700000000000       0.305258000000000      -8.299200000000000E-002        
  0.000000000000000E+000  0.000000000000000E+000  0.000000000000000E+000        
  0.000000000000000E+000  0.000000000000000E+000  0.000000000000000E+000        
  0.000000000000000E+000                                                        
   11.1000000000000       0.398508000000000      -0.152090000000000             
  0.000000000000000E+000  0.000000000000000E+000  0.000000000000000E+000        
  0.000000000000000E+000  0.000000000000000E+000  0.000000000000000E+000        
  0.000000000000000E+000                                                        
   4.68200000000000       0.216980000000000      -0.115331000000000             
  0.000000000000000E+000  0.000000000000000E+000  0.000000000000000E+000        
  0.000000000000000E+000  0.000000000000000E+000  0.000000000000000E+000        
  0.000000000000000E+000                                                        
   1.42800000000000       1.759400000000000E-002  0.288979000000000             
   1.00000000000000       0.000000000000000E+000  0.000000000000000E+000        
  0.000000000000000E+000  0.000000000000000E+000  0.000000000000000E+000        
  0.000000000000000E+000                                                        
  0.554700000000000      -2.502000000000000E-003  0.586128000000000             
  0.000000000000000E+000   1.00000000000000       0.000000000000000E+000        
  0.000000000000000E+000  0.000000000000000E+000  0.000000000000000E+000        
  0.000000000000000E+000                                                        
  0.206700000000000       9.540000000000000E-004  0.277624000000000             
  0.000000000000000E+000  0.000000000000000E+000   1.00000000000000             
  0.000000000000000E+000  0.000000000000000E+000  0.000000000000000E+000        
  0.000000000000000E+000                                                        
   12.9740000000000       0.000000000000000E+000  0.000000000000000E+000        
  0.000000000000000E+000  0.000000000000000E+000  0.000000000000000E+000        
   1.00000000000000       0.000000000000000E+000  0.000000000000000E+000        
  0.000000000000000E+000                                                        
   34.9000000000000       0.000000000000000E+000  0.000000000000000E+000        
  0.000000000000000E+000  0.000000000000000E+000  0.000000000000000E+000        
  0.000000000000000E+000   1.00000000000000       0.000000000000000E+000        
  0.000000000000000E+000                                                        
   93.8810000000000       0.000000000000000E+000  0.000000000000000E+000        
  0.000000000000000E+000  0.000000000000000E+000  0.000000000000000E+000        
  0.000000000000000E+000  0.000000000000000E+000   1.00000000000000             
  0.000000000000000E+000                                                        
  6.959000000000000E-002  0.000000000000000E+000  0.000000000000000E+000        
  0.000000000000000E+000  0.000000000000000E+000  0.000000000000000E+000        
  0.000000000000000E+000  0.000000000000000E+000  0.000000000000000E+000        
   1.00000000000000                                                             
   10    8                                                                      
   63.4200000000000       6.044000000000000E-003  0.000000000000000E+000        
  0.000000000000000E+000  0.000000000000000E+000  0.000000000000000E+000        
  0.000000000000000E+000  0.000000000000000E+000  0.000000000000000E+000        
   14.6600000000000       4.179900000000000E-002  0.000000000000000E+000        
  0.000000000000000E+000  0.000000000000000E+000  0.000000000000000E+000        
  0.000000000000000E+000  0.000000000000000E+000  0.000000000000000E+000        
   4.45900000000000       0.161143000000000       0.000000000000000E+000        
  0.000000000000000E+000  0.000000000000000E+000  0.000000000000000E+000        
  0.000000000000000E+000  0.000000000000000E+000  0.000000000000000E+000        
   1.53100000000000       0.356731000000000        1.00000000000000             
  0.000000000000000E+000  0.000000000000000E+000  0.000000000000000E+000        
  0.000000000000000E+000  0.000000000000000E+000  0.000000000000000E+000        
  0.530200000000000       0.448309000000000       0.000000000000000E+000        
   1.00000000000000       0.000000000000000E+000  0.000000000000000E+000        
  0.000000000000000E+000  0.000000000000000E+000  0.000000000000000E+000        
  0.175000000000000       0.244940000000000       0.000000000000000E+000        
  0.000000000000000E+000   1.00000000000000       0.000000000000000E+000        
  0.000000000000000E+000  0.000000000000000E+000  0.000000000000000E+000        
   14.4750000000000       0.000000000000000E+000  0.000000000000000E+000        
  0.000000000000000E+000  0.000000000000000E+000   1.00000000000000             
  0.000000000000000E+000  0.000000000000000E+000  0.000000000000000E+000        
   42.7300000000000       0.000000000000000E+000  0.000000000000000E+000        
  0.000000000000000E+000  0.000000000000000E+000  0.000000000000000E+000        
   1.00000000000000       0.000000000000000E+000  0.000000000000000E+000        
   126.140000000000       0.000000000000000E+000  0.000000000000000E+000        
  0.000000000000000E+000  0.000000000000000E+000  0.000000000000000E+000        
  0.000000000000000E+000   1.00000000000000       0.000000000000000E+000        
  5.348000000000000E-002  0.000000000000000E+000  0.000000000000000E+000        
  0.000000000000000E+000  0.000000000000000E+000  0.000000000000000E+000        
  0.000000000000000E+000  0.000000000000000E+000   1.00000000000000             
    6    6                                                                      
   3.77500000000000        1.00000000000000       0.000000000000000E+000        
  0.000000000000000E+000  0.000000000000000E+000  0.000000000000000E+000        
  0.000000000000000E+000                                                        
   1.30000000000000       0.000000000000000E+000   1.00000000000000             
  0.000000000000000E+000  0.000000000000000E+000  0.000000000000000E+000        
  0.000000000000000E+000                                                        
  0.444000000000000       0.000000000000000E+000  0.000000000000000E+000        
   1.00000000000000       0.000000000000000E+000  0.000000000000000E+000        
  0.000000000000000E+000                                                        
   14.9270000000000       0.000000000000000E+000  0.000000000000000E+000        
  0.000000000000000E+000   1.00000000000000       0.000000000000000E+000        
  0.000000000000000E+000                                                        
   57.5440000000000       0.000000000000000E+000  0.000000000000000E+000        
  0.000000000000000E+000  0.000000000000000E+000   1.00000000000000             
  0.000000000000000E+000                                                        
  0.154000000000000       0.000000000000000E+000  0.000000000000000E+000        
  0.000000000000000E+000  0.000000000000000E+000  0.000000000000000E+000        
   1.00000000000000                                                             
    4    4                                                                      
   2.66600000000000        1.00000000000000       0.000000000000000E+000        
  0.000000000000000E+000  0.000000000000000E+000                                
  0.859000000000000       0.000000000000000E+000   1.00000000000000             
  0.000000000000000E+000  0.000000000000000E+000                                
   26.4830000000000       0.000000000000000E+000  0.000000000000000E+000        
   1.00000000000000       0.000000000000000E+000                                
  0.324000000000000       0.000000000000000E+000  0.000000000000000E+000        
  0.000000000000000E+000   1.00000000000000                                     
    2    2                                                                      
   1.84600000000000        1.00000000000000       0.000000000000000E+000        
  0.714000000000000       0.000000000000000E+000   1.00000000000000             
FINISH                                                                          
 
********************************************************************************
 ONE- AND TWO-ELECTRON INTEGRALS OVER SYMMETRY-ADAPTED AOS ARE CALCULATED.

  SPHERICAL HARMONICS ARE USED.
  
  INTEGRALS LESS THAN  0.10E-13 ARE NEGLECTED.

  NUCLEAR REPULSION ENERGY :   17.7926213333 A.U.
  @MOLECU-I, ONE ELECTRON INTEGRALS (CPU/WALL):        0.06/       0.06 SECONDS.
  @TWOEL-I,    4489443 INTEGRALS OF SYMMETRY TYPE  I I I I
  @TWOEL-I,   19359981 INTEGRALS OF SYMMETRY TYPE  I J I J
  @TWOEL-I,   10193949 INTEGRALS OF SYMMETRY TYPE  I I J J
  @TWOEL-I,   14327285 INTEGRALS OF SYMMETRY TYPE  I J K L
  @TWOEL-I, TOTAL NUMBER OF 2-E INTEGRALS   48370658.
  @MOLECU-I, TWO ELECTRON INTEGRALS (CPU/WALL):      156.74/      21.53 SECONDS.
 @CHECKOUT-I, Total execution time (CPU/WALL):      156.83/      21.62 seconds.

Running with 14 threads/proc

--executable xvmol finished with status     0 in       21.65 seconds (walltime).
 --invoking executable--
/nfs/workspaces/public/cfour_mpi/bin/xvmol2ja
 @GETMEM-I,  Allocated    3814 MB of main memory.
 @CHECKOUT-I, Total execution time (CPU/WALL):        0.14/       0.04 seconds.
--executable xvmol2ja finished with status     0 in        0.07 seconds (walltime).
 --invoking executable--
/nfs/workspaces/public/cfour_mpi/bin/xvprop
 @GETMEM-I,  Allocated    3814 MB of main memory.
   Property integrals will be calculated.
    --------------------------------------------------------------
                                   Property evaluated at 
    Property type                X             Y             Z
    --------------------------------------------------------------
    Dipole moment               ----          ----          ----  
    Quadrupole moment           ----          ----          ----  
    Octopole moment             ----          ----          ----  
    Relativisitic corr.         ----          ----          ----  
    Second moment            0.0000000     0.0000000     0.0000000
    Electron density         0.0000000     0.0000000     1.5413600
    Electron density         0.0000000     0.0000000    -1.1563875
    Field gradient           0.0000000     0.0000000     1.5413600
    Field gradient           0.0000000     0.0000000    -1.1563875
    Potential                0.0000000     0.0000000     1.5413600
    Potential                0.0000000     0.0000000    -1.1563875
    --------------------------------------------------------------
 @CHECKOUT-I, Total execution time (CPU/WALL):        1.31/       1.32 seconds.
--executable xvprop finished with status     0 in        1.33 seconds (walltime).
 --invoking executable--
/nfs/workspaces/public/cfour_mpi/bin/xvscf
  There are  218 functions in the AO basis.

  There are 4 irreducible representations.

       Irrep        # of functions
         1                 86
         2                 52
         3                 52
         4                 28


  Parameters for SCF calculation: 
        SCF reference function:  RHF  
  Maximum number of iterations:  150
     Full symmetry point group: CXv 
     Computational point group: C2v 
        Initial density matrix: MOREAD                 
     SCF convergence tolerance: 10**(-10)
  DIIS convergence acceleration:  ON
          Latest start for DIIS:   8
                     DIIS order:   6

  Memory information:    2523578 words required.
  Fock matrices are constructed from AO integral file.
 @GETMEM-I,  Allocated      19 MB of main memory.
  Initialization and symmetry analysis required      0.002 seconds.

  Adding electric field perturbation to one-electron Hamiltonian.
  Field direction     : Z
  Field strength      :  0.0002000 a.u.

  @INITGES-I, Occupancies from core Hamiltonian:

          Alpha population by irrep:   5    1    1    0
           Beta population by irrep:   5    1    1    0


 total no. of electrons in initial guess :  0.000000000000000E+000
  --------------------------------------------------------------------
  Iteration         Total Energy            Largest Density Difference
  --------------------------------------------------------------------
       0            17.792621921399185              0.0000000000D+00
   current occupation vector 
     5  1  1  0
     5  1  1  0
       1           -93.249524560066547              0.1756638386D+02
   current occupation vector 
     5  1  1  0
     5  1  1  0
       2           -98.343505041742816              0.1756404893D+02
   current occupation vector 
     5  1  1  0
     5  1  1  0
       3          -103.117202697596952              0.6462661994D+01
   current occupation vector 
     5  1  1  0
     5  1  1  0
       4           -98.246955119929623              0.6455983604D+01
   current occupation vector 
     5  1  1  0
     5  1  1  0
       5          -101.118325202351727              0.6546500291D+01
   current occupation vector 
     5  1  1  0
     5  1  1  0
       6           -96.665077699130123              0.6537436755D+01
   current occupation vector 
     5  1  1  0
     5  1  1  0
       7          -101.083792744413032              0.6664654646D+01
   current occupation vector 
     5  1  1  0
     5  1  1  0
       8           -96.588024234945749              0.6664834875D+01
   current occupation vector 
     5  1  1  0
     5  1  1  0
       9          -107.889458757385597              0.5167983789D+01
   current occupation vector 
     5  1  1  0
     5  1  1  0
      10          -109.706689243105629              0.9416279886D+00
   current occupation vector 
     5  1  1  0
     5  1  1  0
      11          -112.343480971765729              0.1508890025D+01
   current occupation vector 
     5  1  1  0
     5  1  1  0
      12          -112.638278727931322              0.5295620194D+00
   current occupation vector 
     5  1  1  0
     5  1  1  0
      13          -112.641488315439858              0.9709581621D-01
   current occupation vector 
     5  1  1  0
     5  1  1  0
      14          -112.642196320849848              0.4019992493D-01
   current occupation vector 
     5  1  1  0
     5  1  1  0
      15          -112.642243744221616              0.1058346865D-01
   current occupation vector 
     5  1  1  0
     5  1  1  0
      16          -112.642249462984637              0.4031573504D-02
   current occupation vector 
     5  1  1  0
     5  1  1  0
      17          -112.642250963380746              0.2765638653D-02
   current occupation vector 
     5  1  1  0
     5  1  1  0
      18          -112.642251083788750              0.8068954445D-03
   current occupation vector 
     5  1  1  0
     5  1  1  0
      19          -112.642251085413733              0.1157213985D-03
   current occupation vector 
     5  1  1  0
     5  1  1  0
      20          -112.642251085468587              0.7320748609D-05
   current occupation vector 
     5  1  1  0
     5  1  1  0
      21          -112.642251085468445              0.9016442812D-06
   current occupation vector 
     5  1  1  0
     5  1  1  0
      22          -112.642251085469269              0.1699161181D-06
   current occupation vector 
     5  1  1  0
     5  1  1  0
      23          -112.642251085468558              0.2321053372D-07
   current occupation vector 
     5  1  1  0
     5  1  1  0
      24          -112.642251085468217              0.5366755040D-08
   current occupation vector 
     5  1  1  0
     5  1  1  0
      25          -112.642251085469013              0.1382053805D-08
   current occupation vector 
     5  1  1  0
     5  1  1  0
      26          -112.642251085468530              0.3482232280D-09
   current occupation vector 
     5  1  1  0
     5  1  1  0
      27          -112.642251085468189              0.2967346369D-09
   current occupation vector 
     5  1  1  0
     5  1  1  0
      28          -112.642251085468160              0.1460704890D-09
   current occupation vector 
     5  1  1  0
     5  1  1  0

  SCF has converged.

 Density matrix saved to file den.dat
 total electron number:   13.9999999999999     
     E(SCF)=      -112.642251085467933              0.3167044405D-10

  Eigenvector printing suppressed.

 @PUTMOS-I, Writing converged MOs to NEWMOS. 
 @PUTMOS-I, Symmetry   1 Full Blocks 21 Partial Blocksize   2
 @PUTMOS-I, Symmetry   2 Full Blocks 13 Partial Blocksize   0
 @PUTMOS-I, Symmetry   3 Full Blocks 13 Partial Blocksize   0
 @PUTMOS-I, Symmetry   4 Full Blocks  7 Partial Blocksize   0
 @PUTFOCK-I, Writing converged Fock matrix to NEWFOCK. 
 @PUTFOCK-I, Symmetry   1 Full Blocks 21 Partial Blocksize   2
 @PUTFOCK-I, Symmetry   2 Full Blocks 13 Partial Blocksize   0
 @PUTFOCK-I, Symmetry   3 Full Blocks 13 Partial Blocksize   0
 @PUTFOCK-I, Symmetry   4 Full Blocks  7 Partial Blocksize   0


 
  ORBITAL EIGENVALUES (ALPHA)  (1H = 27.2113834 eV)

       MO #        E(hartree)               E(eV)           FULLSYM    COMPSYM
       ----   --------------------   --------------------   -------   ---------
    1     1         -20.6593724418        -562.1701043169     SG+        A1 (1)
    2     2         -11.4777744315        -312.3261206349     SG+        A1 (1)
    3     3          -1.3466137648         -36.6432234465     SG+        A1 (1)
    4     4          -0.7941884119         -21.6109653679     SG+        A1 (1)
    5     5          -0.5588669489         -15.2075428173     SG+        A1 (1)
    6   139          -0.5363153208         -14.5938818163      PI        B2 (3)
    7    87          -0.5363153208         -14.5938818163      PI        B1 (2)
  +++++++++++++++++++++++++++++++++++++++++++++++++++++++++++++++++++++++++++++
    8   140           0.0274926031           0.7481117635      PI        B2 (3)
    9    88           0.0274926031           0.7481117635      PI        B1 (2)
   10     6           0.0637796342           1.7355320783     SG+        A1 (1)
   11     7           0.0689706867           1.8767878001     SG+        A1 (1)
   12   141           0.0883455181           2.4040037652      PI        B2 (3)
   13    89           0.0883455181           2.4040037652      PI        B1 (2)
   14     8           0.1565904125           4.2610417501     SG+        A1 (1)
   15   142           0.1731324586           4.7111737101      PI        B2 (3)
   16    90           0.1731324586           4.7111737101      PI        B1 (2)
   17     9           0.2232351087           6.0745361320     SG+        A1 (1)
   18   191           0.2252760802           6.1300737901      DE        A2 (4)
   19    10           0.2252760802           6.1300737901      DE        A1 (1)
   20   143           0.2958543525           8.0506062157      PI        B2 (3)
   21    91           0.2958543525           8.0506062157      PI        B1 (2)
   22    11           0.2995393546           8.1508802204     SG+        A1 (1)
   23    12           0.3626268741           9.8675789028     SG+        A1 (1)
   24   144           0.3998396617          10.8801903320      PI        B2 (3)
   25    92           0.3998396617          10.8801903320      PI        B1 (2)
   26    13           0.4753129547          12.9339230440     SG+        A1 (1)
   27    14           0.5115073284          13.9188220248     SG+        A1 (1)
   28   192           0.5472019358          14.8901216711      DE        A2 (4)
   29    15           0.5472019358          14.8901216711      DE        A1 (1)
   30    93           0.6243635963          16.9897971997      PI        B1 (2)
   31   145           0.6243635963          16.9897971997      PI        B2 (3)
   32    16           0.7284113202          19.8210797067     SG+        A1 (1)
   33   146           0.7394069275          20.1202853927      PH        B2 (3)
   34    94           0.7394069275          20.1202853927      PH        B1 (2)
   35    17           0.7506550022          20.4263610668      DE        A1 (1)
   36   193           0.7506550022          20.4263610668      DE        A2 (4)
   37   147           0.7906453216          21.5145529788      PI        B2 (3)
   38    95           0.7906453216          21.5145529788      PI        B1 (2)
   39    18           0.8256497044          22.4670706611     SG+        A1 (1)
   40    19           0.8683498686          23.6290012003     SG+        A1 (1)
   41    20           0.8726406715          23.7457598828      DE        A1 (1)
   42   194           0.8726406715          23.7457598828      DE        A2 (4)
   43    96           0.8975608146          24.4238714508      PI        B1 (2)
   44   148           0.8975608146          24.4238714509      PI        B2 (3)
   45    97           1.0333204373          28.1180785950      PI        B1 (2)
   46   149           1.0333204373          28.1180785950      PI        B2 (3)
   47    21           1.1234420732          30.5704129817     SG+        A1 (1)
   48    22           1.3955046802          37.9736128899     SG+        A1 (1)
   49    98           1.4274595104          38.8431480257      PH        B1 (2)
   50   150           1.4274595104          38.8431480257      PH        B2 (3)
   51   151           1.5475728701          42.1115987067      PI        B2 (3)
   52    99           1.5475728701          42.1115987067      PI        B1 (2)
   53    23           1.5666131206          42.6297102635      DE        A1 (1)
   54   195           1.5666131206          42.6297102635      DE        A2 (4)
   55    24           1.6264264224          44.2573129520     SG+        A1 (1)
   56   100           1.6438447158          44.7312888126      PI        B1 (2)
   57   152           1.6438447158          44.7312888127      PI        B2 (3)
   58   196           1.7114533084          46.5710121470      DE        A2 (4)
   59    25           1.7114533084          46.5710121470      DE        A1 (1)
   60    26           1.8882532067          51.3819819645     SG+        A1 (1)
   61    27           2.0023730936          54.4873419588     SG+        A1 (1)
   62   197           2.0825040460          56.6678160289      PI        A2 (4)
   63    28           2.0825040460          56.6678160289      PI        A1 (1)
   64   101           2.0881288684          56.8208752274      PI        B1 (2)
   65   153           2.0881288684          56.8208752274      PI        B2 (3)
   66    29           2.1466705518          58.4138754175      DE        A1 (1)
   67   198           2.1466705518          58.4138754175      DE        A2 (4)
   68   102           2.2234076528          60.5019980939      PH        B1 (2)
   69   154           2.2234076528          60.5019980939      PH        B2 (3)
   70   155           2.2587817075          61.4645750592      PI        B2 (3)
   71   103           2.2587817075          61.4645750592      PI        B1 (2)
   72   104           2.2591052754          61.4733797912      PH        B1 (2)
   73   156           2.2591052754          61.4733797912      PH        B2 (3)
   74    30           2.2645127255          61.6205239883     SG+        A1 (1)
   75    31           2.3116962726          62.9044535779      DE        A1 (1)
   76   199           2.3116962726          62.9044535779      DE        A2 (4)
   77    32           2.4893839015          67.7395797726     SG+        A1 (1)
   78   105           2.5231774109          68.6591479141      PI        B1 (2)
   79   157           2.5231774109          68.6591479141      PI        B2 (3)
   80    33           2.6035523643          70.8462615858     SG+        A1 (1)
   81   106           2.6337175832          71.6670989241      PI        B1 (2)
   82   158           2.6337175832          71.6670989241      PI        B2 (3)
   83   200           2.7591221632          75.0795310300      DE        A2 (4)
   84    34           2.7591221632          75.0795310300      DE        A1 (1)
   85    35           3.1981000627          87.0247269584     SG+        A1 (1)
   86   107           3.5458469982          96.4874021446      PI        B1 (2)
   87   159           3.5458469982          96.4874021446      PI        B2 (3)
   88    36           3.7013151620         100.7179059568      PI        A1 (1)
   89   201           3.7013151620         100.7179059568      PI        A2 (4)
   90    37           3.9031715515         106.2106975639     SG+        A1 (1)
   91   108           4.0033154816         108.9357524415      PH        B1 (2)
   92   160           4.0033154816         108.9357524415      PH        B2 (3)
   93   161           4.1273264945         112.3102636583      PH        B2 (3)
   94   109           4.1273264945         112.3102636583      PH        B1 (2)
   95   110           4.1659913078         113.3623867189      PI        B1 (2)
   96   162           4.1659913078         113.3623867189      PI        B2 (3)
   97    38           4.2024053507         114.3532631992     SG+        A1 (1)
   98   202           4.2222902194         114.8943579850      DE        A2 (4)
   99    39           4.2222902194         114.8943579851      DE        A1 (1)
  100   203           4.2745573676         116.3166193964      DE        A2 (4)
  101    40           4.2745573677         116.3166193964      DE        A1 (1)
  102    41           4.4156442070         120.1557874752     SG+        A1 (1)
  103   111           4.6844427867         127.4701686848      PI        B1 (2)
  104   163           4.6844427867         127.4701686848      PI        B2 (3)
  105   204           4.8493383842         131.9572060100      DE        A2 (4)
  106    42           4.8493383842         131.9572060100      DE        A1 (1)
  107    43           4.8653007975         132.3915653574     SG+        A1 (1)
  108   112           5.1170292718         139.2414453827      PI        B1 (2)
  109   164           5.1170292718         139.2414453827      PI        B2 (3)
  110    44           5.3793277859         146.3789508174     SG+        A1 (1)
  111   113           5.4448115483         148.1608545815      PI        B1 (2)
  112   165           5.4448115483         148.1608545816      PI        B2 (3)
  113   205           5.8536790300         159.2867043862      PI        A2 (4)
  114    45           5.8536790300         159.2867043862      PI        A1 (1)
  115   166           5.9428891381         161.7142348399      PH        B2 (3)
  116   114           5.9428891381         161.7142348399      PH        B1 (2)
  117    46           6.1484063024         167.3066411927     SG+        A1 (1)
  118   206           6.1798036641         168.1610068415      DE        A2 (4)
  119    47           6.1798036641         168.1610068415      DE        A1 (1)
  120   115           6.2019114260         168.7625896262      PI        B1 (2)
  121   167           6.2019114260         168.7625896262      PI        B2 (3)
  122    48           6.2854900634         171.0368799720     SG+        A1 (1)
  123   168           6.3862001618         173.7773410728      PH        B2 (3)
  124   116           6.3862001618         173.7773410728      PH        B1 (2)
  125   207           6.5133921738         177.2384116767      DE        A2 (4)
  126    49           6.5133921738         177.2384116767      DE        A1 (1)
  127    50           6.5211001272         177.4481557517      DE        A1 (1)
  128   208           6.5211001272         177.4481557517      DE        A2 (4)
  129   117           6.9503748616         189.1293151322      PI        B1 (2)
  130   169           6.9503748616         189.1293151322      PI        B2 (3)
  131    51           7.2396155647         196.9999547994     SG+        A1 (1)
  132   118           7.6248393804         207.4824277426      PI        B1 (2)
  133   170           7.6248393804         207.4824277426      PI        B2 (3)
  134    52           8.2545336641         224.6172803233     SG+        A1 (1)
  135    53           9.7179742468         264.4395231023     SG+        A1 (1)
  136   119           9.9384341430         270.4385418617      PI        B1 (2)
  137   171           9.9384341430         270.4385418618      PI        B2 (3)
  138    54          10.6309047260         289.2816243891      PI        A1 (1)
  139   209          10.6309047260         289.2816243891      PI        A2 (4)
  140    55          10.7516276699         292.5666626986     SG+        A1 (1)
  141   172          10.7623606905         292.8587230372      PH        B2 (3)
  142   120          10.7623606905         292.8587230372      PH        B1 (2)
  143   210          10.9971530862         299.2477489361      DE        A2 (4)
  144    56          10.9971530862         299.2477489361      DE        A1 (1)
  145   121          11.0395618976         300.4017513633      PI        B1 (2)
  146   173          11.0395618976         300.4017513633      PI        B2 (3)
  147    57          11.3122029303         307.8206910351     SG+        A1 (1)
  148   174          11.8720032604         323.0536324436      PH        B2 (3)
  149   122          11.8720032604         323.0536324436      PH        B1 (2)
  150   211          12.0489272767         327.8679796860      DE        A2 (4)
  151    58          12.0489272767         327.8679796861      DE        A1 (1)
  152   123          12.5760094896         342.2106158625      PI        B1 (2)
  153   175          12.5760094896         342.2106158626      PI        B2 (3)
  154   212          12.7537300883         347.0466392129      DE        A2 (4)
  155    59          12.7537300883         347.0466392129      DE        A1 (1)
  156    60          12.8464588486         349.5699170618     SG+        A1 (1)
  157   124          13.0997844071         356.4632559595      PI        B1 (2)
  158   176          13.0997844071         356.4632559595      PI        B2 (3)
  159    61          13.8969619197         378.1555588921     SG+        A1 (1)
  160    62          17.4868463257         475.8412798248     SG+        A1 (1)
  161   125          18.8619419219         513.2595333050      PI        B1 (2)
  162   177          18.8619419219         513.2595333053      PI        B2 (3)
  163    63          20.2142580672         550.0579264124     SG+        A1 (1)
  164   213          26.3193840005         716.1868488888      DE        A2 (4)
  165    64          26.3193840005         716.1868488888      DE        A1 (1)
  166   126          26.7186984064         727.0527462869      PI        B1 (2)
  167   178          26.7186984064         727.0527462869      PI        B2 (3)
  168    65          27.2259492187         740.8557426200     SG+        A1 (1)
  169   179          33.5951866262         914.1715036808      PI        B2 (3)
  170   127          33.5951866262         914.1715036814      PI        B1 (2)
  171    66          34.3485049106         934.6703363378     SG+        A1 (1)
  172    67          35.9360334056         977.8691828744     SG+        A1 (1)
  173   214          47.0770300778        1281.0311147795      DE        A2 (4)
  174    68          47.0770300778        1281.0311147796      DE        A1 (1)
  175   128          47.2637069786        1286.1108514994      PI        B1 (2)
  176   180          47.2637069786        1286.1108514994      PI        B2 (3)
  177    69          47.7452358268        1299.2139176058     SG+        A1 (1)
  178    70          63.8912877207        1738.5703260888     SG+        A1 (1)
  179   129          66.4175499078        1807.3134150294      PI        B1 (2)
  180   181          66.4175499078        1807.3134150297      PI        B2 (3)
  181    71          67.3864108352        1833.6774611874     SG+        A1 (1)
  182   130          98.5531694630        2681.7680795421      PH        B1 (2)
  183   182          98.5531694630        2681.7680795421      PH        B2 (3)
  184    72          98.5666600998        2682.1351784331      DE        A1 (1)
  185   215          98.5666600998        2682.1351784331      DE        A2 (4)
  186   131          98.5849918183        2682.6340098532      PI        B1 (2)
  187   183          98.5849918183        2682.6340098533      PI        B2 (3)
  188    73          98.6033593744        2683.1338164661     SG+        A1 (1)
  189   184         103.2930986950        2810.7481111650      PH        B2 (3)
  190   132         103.2930986950        2810.7481111650      PH        B1 (2)
  191    74         103.3064826928        2811.1123082600      DE        A1 (1)
  192   216         103.3064826930        2811.1123082660      DE        A2 (4)
  193   133         103.3494522374        2812.2815690107      PI        B1 (2)
  194   185         103.3494522374        2812.2815690107      PI        B2 (3)
  195    75         103.3517616617        2812.3444116415     SG+        A1 (1)
  196    76         115.0134215716        3129.6743105309      DE        A1 (1)
  197   217         115.0134215716        3129.6743105309      DE        A2 (4)
  198   186         115.2050818066        3134.8896506679      PI        B2 (3)
  199   134         115.2050818066        3134.8896506680      PI        B1 (2)
  200    77         115.4817157054        3142.4172417495     SG+        A1 (1)
  201   187         116.8733832334        3180.2864404186      PI        B2 (3)
  202   135         116.8733832334        3180.2864404199      PI        B1 (2)
  203    78         117.4909335845        3197.0908397922     SG+        A1 (1)
  204    79         122.1323812639        3323.3910521274     SG+        A1 (1)
  205   218         198.5519372920        5402.8728904653      DE        A2 (4)
  206    80         198.5519372920        5402.8728904653      DE        A1 (1)
  207   188         198.6528096375        5405.6177665329      PI        B2 (3)
  208   136         198.6528096375        5405.6177665330      PI        B1 (2)
  209    81         198.9053353210        5412.4893397245     SG+        A1 (1)
  210    82         216.4235612775        5889.1845027163     SG+        A1 (1)
  211   137         224.8834796756        6119.3905857796      PI        B1 (2)
  212   189         224.8834796756        6119.3905857798      PI        B2 (3)
  213    83         225.6362983914        6139.8758244844     SG+        A1 (1)
  214   190         395.3608134039       10758.3146748696      PI        B2 (3)
  215   138         395.3608134040       10758.3146748711      PI        B1 (2)
  216    84         395.8899859738       10772.7141925537     SG+        A1 (1)
  217    85         508.7881957908       13844.8306650581     SG+        A1 (1)
  218    86         895.2540272118       24361.1005748553     SG+        A1 (1)


  VSCF finished.

 @CHECKOUT-I, Total execution time (CPU/WALL):       49.02/       8.34 seconds.
--executable xvscf finished with status     0 in        8.37 seconds (walltime).
 --invoking executable--
/nfs/workspaces/public/cfour_mpi/bin/xvtran
 @GETMEM-I,  Allocated    3814 MB of main memory.
  Full RHF integral transformation
  Transformation of IIII integrals :
  1 pass through the AO integral file was required.
     4489443 AO integrals were read.
     8712629 MO integrals were written to HF2.
  Transformation of IIJJ integrals :
  1 pass through the AO integral file was required.
    10193949 AO integrals were read.
    14489220 MO integrals were written to HF2.
  Transformation of IJIJ integrals :
  1 pass through the AO integral file was required.
    19359981 AO integrals were read.
    27056796 MO integrals were written to HF2.
  Transformation of IJKL integrals :
  1 pass through the AO integral file was required.
    14327285 AO integrals were read.
    18279365 MO integrals were written to HF2.
  Summary of active molecular orbitals: 
------------------------------------------------------------------------
 
  Index      Eigenvalue    Symmetry    Index      Eigenvalue    Symmetry
------------------------------------------------------------------------
     1       -20.6593724        1       110         4.1273265        2
     2       -11.4777744        1       111         4.1659913        2
     3        -1.3466138        1       112         4.6844428        2
     4        -0.7941884        1       113         5.1170293        2
     5        -0.5588669        1       114         5.4448115        2
     6        -0.5363153        2       115         5.9428891        2
     7        -0.5363153        3       116         6.2019114        2
     8         0.0637796        1       117         6.3862002        2
     9         0.0689707        1       118         6.9503749        2
    10         0.1565904        1       119         7.6248394        2
    11         0.2232351        1       120         9.9384341        2
    12         0.2252761        1       121        10.7623607        2
    13         0.2995394        1       122        11.0395619        2
    14         0.3626269        1       123        11.8720033        2
    15         0.4753130        1       124        12.5760095        2
    16         0.5115073        1       125        13.0997844        2
    17         0.5472019        1       126        18.8619419        2
    18         0.7284113        1       127        26.7186984        2
    19         0.7506550        1       128        33.5951866        2
    20         0.8256497        1       129        47.2637070        2
    21         0.8683499        1       130        66.4175499        2
    22         0.8726407        1       131        98.5531695        2
    23         1.1234421        1       132        98.5849918        2
    24         1.3955047        1       133       103.2930987        2
    25         1.5666131        1       134       103.3494522        2
    26         1.6264264        1       135       115.2050818        2
    27         1.7114533        1       136       116.8733832        2
    28         1.8882532        1       137       198.6528096        2
    29         2.0023731        1       138       224.8834797        2
    30         2.0825040        1       139       395.3608134        2
    31         2.1466706        1       140         0.0274926        3
    32         2.2645127        1       141         0.0883455        3
    33         2.3116963        1       142         0.1731325        3
    34         2.4893839        1       143         0.2958544        3
    35         2.6035524        1       144         0.3998397        3
    36         2.7591222        1       145         0.6243636        3
    37         3.1981001        1       146         0.7394069        3
    38         3.7013152        1       147         0.7906453        3
    39         3.9031716        1       148         0.8975608        3
    40         4.2024054        1       149         1.0333204        3
    41         4.2222902        1       150         1.4274595        3
    42         4.2745574        1       151         1.5475729        3
    43         4.4156442        1       152         1.6438447        3
    44         4.8493384        1       153         2.0881289        3
    45         4.8653008        1       154         2.2234077        3
    46         5.3793278        1       155         2.2587817        3
    47         5.8536790        1       156         2.2591053        3
    48         6.1484063        1       157         2.5231774        3
    49         6.1798037        1       158         2.6337176        3
    50         6.2854901        1       159         3.5458470        3
    51         6.5133922        1       160         4.0033155        3
    52         6.5211001        1       161         4.1273265        3
    53         7.2396156        1       162         4.1659913        3
    54         8.2545337        1       163         4.6844428        3
    55         9.7179742        1       164         5.1170293        3
    56        10.6309047        1       165         5.4448115        3
    57        10.7516277        1       166         5.9428891        3
    58        10.9971531        1       167         6.2019114        3
    59        11.3122029        1       168         6.3862002        3
    60        12.0489273        1       169         6.9503749        3
    61        12.7537301        1       170         7.6248394        3
    62        12.8464588        1       171         9.9384341        3
    63        13.8969619        1       172        10.7623607        3
    64        17.4868463        1       173        11.0395619        3
    65        20.2142581        1       174        11.8720033        3
    66        26.3193840        1       175        12.5760095        3
    67        27.2259492        1       176        13.0997844        3
    68        34.3485049        1       177        18.8619419        3
    69        35.9360334        1       178        26.7186984        3
    70        47.0770301        1       179        33.5951866        3
    71        47.7452358        1       180        47.2637070        3
    72        63.8912877        1       181        66.4175499        3
    73        67.3864108        1       182        98.5531695        3
    74        98.5666601        1       183        98.5849918        3
    75        98.6033594        1       184       103.2930987        3
    76       103.3064827        1       185       103.3494522        3
    77       103.3517617        1       186       115.2050818        3
    78       115.0134216        1       187       116.8733832        3
    79       115.4817157        1       188       198.6528096        3
    80       117.4909336        1       189       224.8834797        3
    81       122.1323813        1       190       395.3608134        3
    82       198.5519373        1       191         0.2252761        4
    83       198.9053353        1       192         0.5472019        4
    84       216.4235613        1       193         0.7506550        4
    85       225.6362984        1       194         0.8726407        4
    86       395.8899860        1       195         1.5666131        4
    87       508.7881958        1       196         1.7114533        4
    88       895.2540272        1       197         2.0825040        4
    89         0.0274926        2       198         2.1466706        4
    90         0.0883455        2       199         2.3116963        4
    91         0.1731325        2       200         2.7591222        4
    92         0.2958544        2       201         3.7013152        4
    93         0.3998397        2       202         4.2222902        4
    94         0.6243636        2       203         4.2745574        4
    95         0.7394069        2       204         4.8493384        4
    96         0.7906453        2       205         5.8536790        4
    97         0.8975608        2       206         6.1798037        4
    98         1.0333204        2       207         6.5133922        4
    99         1.4274595        2       208         6.5211001        4
   100         1.5475729        2       209        10.6309047        4
   101         1.6438447        2       210        10.9971531        4
   102         2.0881289        2       211        12.0489273        4
   103         2.2234077        2       212        12.7537301        4
   104         2.2587817        2       213        26.3193840        4
   105         2.2591053        2       214        47.0770301        4
   106         2.5231774        2       215        98.5666601        4
   107         2.6337176        2       216       103.3064827        4
   108         3.5458470        2       217       115.0134216        4
   109         4.0033155        2       218       198.5519373        4
------------------------------------------------------------------------
  -20.6593724417892       -11.4777744315238       -1.34661376482873     
 -0.794188411893396      -0.558866948944658      -0.536315320753937     
 -0.536315320753953       6.377963416262011E-002  6.897068673333828E-002
  0.156590412455818       0.223235108730272       0.225276080234073     
  0.299539354561664       0.362626874117917       0.475312954651675     
  0.511507328391560       0.547201935757904       0.728411320195349     
  0.750655002229973       0.825649704421556       0.868349868616481     
  0.872640671507631        1.12344207320647        1.39550468021594     
   1.56661312057769        1.62642642240568        1.71145330843502     
   1.88825320672496        2.00237309356274        2.08250404604032     
   2.14667055176172        2.26451272552003        2.31169627259466     
   2.48938390146585        2.60355236425936        2.75912216319142     
   3.19810006272588        3.70131516197808        3.90317155150395     
   4.20240535066722        4.22229021935944        4.27455736765005     
   4.41564420701858        4.84933838424521        4.86530079751018     
   5.37932778593632        5.85367903001227        6.14840630236580     
   6.17980366413375        6.28549006339849        6.51339217383206     
   6.52110012722315        7.23961556469116        8.25453366414585     
   9.71797424684673        10.6309047260392        10.7516276698601     
   10.9971530861650        11.3122029303052        12.0489272767397     
[...]
 Convergence information after    14 iterations: 
 Largest element of residual vector : -0.13070971E-05.
 Largest element of DIIS residual   : -0.86682862E-06.
 Convergence information after    15 iterations: 
 Largest element of residual vector : -0.66767994E-06.
 Largest element of DIIS residual   : -0.49250820E-06.
 Convergence information after    16 iterations: 
 Largest element of residual vector : -0.39390316E-06.
 Largest element of DIIS residual   : -0.16533438E-06.
 Convergence information after    17 iterations: 
 Largest element of residual vector : -0.12154719E-06.
 Largest element of DIIS residual   : -0.43602689E-07.
 Perturbed amplitude equations converged in    17 iterations.
  Dominant contributions to perturbed wavefunction:
    7    7  140   28   0.2470147200 ABAB
    7    7   28  140   0.2470147200 ABAB
    7    7  140   39  -0.2225116514 ABAB
    7    7   39  140  -0.2225116514 ABAB
    7    7  140   54  -0.1715127645 ABAB
    7    7   54  140  -0.1715127645 ABAB
    7    7  140   21  -0.1657303030 ABAB
    7    7   21  140  -0.1657303030 ABAB
    7    7  140   45   0.1576965832 ABAB
    7    7   45  140   0.1576965832 ABAB
    7    6   28   89   0.1563906392 ABAB
    6    7   89   28   0.1563906392 ABAB
    7    6   39   89  -0.1415994795 ABAB
    6    7   89   39  -0.1415994795 ABAB
    7    7  140   57   0.1357874786 ABAB
    7    7   57  140   0.1357874786 ABAB
    7    7  140   20  -0.1355473122 ABAB
    7    7   20  140  -0.1355473122 ABAB
    7    7  140   24   0.1313687671 ABAB
    7    7   24  140   0.1313687671 ABAB
  norm of converged amps    1.86501953554627     
 Starting iterative solution of the perturbed Lambda equations.
 The DIIS procedure is used to accelerate convergence.
 Convergence criterion is 10**(-7).
 Maximum number of iterations is 100.
 Convergence information after     1 iterations: 
 Largest element of residual vector :  0.64225183E-01.
 Largest element of DIIS residual   :  0.64225183E-01.
 Convergence information after     2 iterations: 
 Largest element of residual vector : -0.13899850E-01.
 Largest element of DIIS residual   : -0.85707259E-02.
 Convergence information after     3 iterations: 
 Largest element of residual vector :  0.59784401E-02.
 Largest element of DIIS residual   :  0.54901732E-02.
 Convergence information after     4 iterations: 
 Largest element of residual vector :  0.37427099E-02.
 Largest element of DIIS residual   :  0.32895783E-02.
 Convergence information after     5 iterations: 
 Largest element of residual vector :  0.27969976E-02.
 Largest element of DIIS residual   :  0.17988662E-02.
 Convergence information after     6 iterations: 
 Largest element of residual vector :  0.11978771E-02.
 Largest element of DIIS residual   :  0.51566575E-03.
 Convergence information after     7 iterations: 
 Largest element of residual vector :  0.51027334E-03.
 Largest element of DIIS residual   : -0.19204688E-03.
 Convergence information after     8 iterations: 
 Largest element of residual vector :  0.12130327E-03.
 Largest element of DIIS residual   :  0.90378675E-04.
 Convergence information after     9 iterations: 
 Largest element of residual vector :  0.54867974E-04.
 Largest element of DIIS residual   : -0.16768897E-04.
 Convergence information after    10 iterations: 
 Largest element of residual vector :  0.14353760E-04.
 Largest element of DIIS residual   :  0.63906635E-05.
 Convergence information after    11 iterations: 
 Largest element of residual vector : -0.35163572E-05.
 Largest element of DIIS residual   : -0.25843747E-05.
 Convergence information after    12 iterations: 
 Largest element of residual vector : -0.21880502E-05.
 Largest element of DIIS residual   : -0.16751797E-05.
 Convergence information after    13 iterations: 
 Largest element of residual vector : -0.13197238E-05.
 Largest element of DIIS residual   : -0.12120254E-05.
 Convergence information after    14 iterations: 
 Largest element of residual vector : -0.10182520E-05.
 Largest element of DIIS residual   : -0.82472428E-06.
 Convergence information after    15 iterations: 
 Largest element of residual vector : -0.61501668E-06.
 Largest element of DIIS residual   : -0.43921849E-06.
 Convergence information after    16 iterations: 
 Largest element of residual vector : -0.35480583E-06.
 Largest element of DIIS residual   : -0.18372686E-06.
 Convergence information after    17 iterations: 
 Largest element of residual vector : -0.13177093E-06.
 Largest element of DIIS residual   : -0.50755764E-07.
 Perturbed Lambda equations converged in    17 iterations.
  Dominant contributions to perturbed wavefunction:
    7    7  140   28   0.2205243331 ABAB
    7    7   28  140   0.2205243331 ABAB
    7    7  140   39  -0.1959168915 ABAB
    7    7   39  140  -0.1959168915 ABAB
    7    7  140   54  -0.1540777639 ABAB
    7    7   54  140  -0.1540777639 ABAB
    7    7  140   21  -0.1469172174 ABAB
    7    7   21  140  -0.1469172174 ABAB
    7    7  140   45   0.1389602735 ABAB
    7    7   45  140   0.1389602735 ABAB
    7    6   28   89   0.1371858395 ABAB
    6    7   89   28   0.1371858395 ABAB
    7    6   39   89  -0.1225907842 ABAB
    6    7   89   39  -0.1225907842 ABAB
    7    7  140   57   0.1188206404 ABAB
    7    7   57  140   0.1188206404 ABAB
    7    7  140   20  -0.1182651909 ABAB
    7    7   20  140  -0.1182651909 ABAB
    7    7  140   29  -0.1130455265 ABAB
    7    7   29  140  -0.1130455265 ABAB
        The DBOC first-order density matrix is being calculated 
             (Symmetry block 3, perturbation   2)
 term   3.83045385324477     
 final tnorm  0.840598508842440     
  norm contr. I: |<0|L dT/dx|0>|^2   0.000000000000000E+000
  norm contr. II: <0|[nabla(1+L)e-T][nabla e^T]|0>   3.83045385324477     
  total norm contribution   3.83045385324477     
 oo  7.999620703977124E-003
 vv  -28.6993359823302     
 vo  7.413724041472718E-002
  Correlated perturbed 1-el contribution to DBOC  -28.6171991212115       cm**-1
  SUM_I |dc_I/dx|^2 contribution to DBOC   14.4205464220665       cm**-1
 
 
  The total diagonal Born-Oppenheimer correction (DBOC) is:      0.0041396049 a.u.
  The total diagonal Born-Oppenheimer correction (DBOC) is:        908.538263 cm-1
 
 Total CC energy including DBOC  -113.167712166668     
 First-order density matrix is being calculated  (Symmetry block 3, perturbation   2)
 Calculation of the contributions of <pq||rs> to dI(i,j)/dx required   1.6 seconds.
 Calculation of the contributions of <pq||rs> to dI(a,b)/dx required  13.1 seconds.
 Calculation of the contributions of <pq||rs> to dI(i,a)/dx required   8.9 seconds.
 First-order Z-vector equations are solved for 1 perturbation.
 Convergence reached after  20 iterations.
        U*G(pq,rs) contribution is being calculated
             (Symmetry block 3, perturbation   2)

 CCSD contribution to force constants 

        0.0000000000        0.0000000000        0.0000000000
        0.0000000000        0.0000000000        0.0000000000
        0.0000000000        0.0000000000        0.0000000000
        0.0000000000        0.0000000000        0.0000000000
        0.0000000000        0.0000000000        0.0000000000
        0.0000000000        0.0000000000        0.0000000000
        0.0000000000        0.0000000000        0.0000000000
        0.0000000000        0.0000000000        0.0000000000
        0.0000000000        0.0000000000        0.0000000000
        0.0000000000        0.0000000000        0.0000000000
        0.0000000000        0.0000000000        0.0000000000
        0.0000000000       -0.3689165187        0.3689165187

 CCSD contribution to dipole derivatives 

        0.0000000000        0.0000000000        0.0000000000
        0.0000000000        0.0000000000        0.0000000000
        0.0000000000        0.0000000000        0.0000000000
        0.0000000000        0.0000000000       -0.0550513244
        0.0000000000        0.0000000000        0.0000000000
        0.0000000000        0.0000000000        0.0000000000
 @CHECKOUT-I, Total execution time (CPU/WALL):     1018.11/     204.26 seconds.
--executable xsdcc finished with status     0 in      204.30 seconds (walltime).
 --invoking executable--
/nfs/workspaces/public/cfour_mpi/bin/xanti
 @GETMEM-I,  Allocated    3814 MB of main memory.
 CCSD MO derivative gammas will be sorted to Mulliken order.
 @CHECKOUT-I, Total execution time (CPU/WALL):        9.29/      17.58 seconds.
--executable xanti finished with status     0 in       17.63 seconds (walltime).
 --invoking executable--
/nfs/workspaces/public/cfour_mpi/bin/xbcktrn
 @GETMEM-I,  Allocated    3814 MB of main memory.
 CCSD MO derivative gammas will be transformed to the AO basis.
 @CHECKOUT-I, Total execution time (CPU/WALL):       19.42/       2.86 seconds.
--executable xbcktrn finished with status     0 in        2.89 seconds (walltime).
 --invoking executable--
/nfs/workspaces/public/cfour_mpi/bin/xvdint
 @GETMEM-I,  Allocated    3814 MB of main memory.
 One- and two-electron integral derivatives are calculated
 for RHF-CC/MBPT hessians and dipole derivatives.
 Spherical gaussians are used.
  magnet F F
                    8722  records have been written to the Sort file.
  Total length of Sort file :             178609116  words.
 Evaluation of 2el integral derivatives

                      Two-electron integral gradient
                      ------------------------------

                         C #1 z     0.0000000000
                         O #2 z     0.0000000000


 C #1       0.0000000000           -0.0316456832            0.0000000000
 O #2       0.0000000000            0.0316456832            0.0000000000


 Evaluation of 2e integral derivatives required  258.52 seconds.
  contribution to Hessian
        0.0000000000        0.0000000000        0.0000000000
        0.0000000000       -0.0316456832        0.0316456832
 @CHECKOUT-I, Total execution time (CPU/WALL):      258.51/      57.66 seconds.
--executable xvdint finished with status     0 in       57.69 seconds (walltime).
 --invoking executable--
/nfs/workspaces/public/cfour_mpi/bin/xanti
 @GETMEM-I,  Allocated    3814 MB of main memory.
 CCSD MO gammas will be sorted to Mulliken order.
 @CHECKOUT-I, Total execution time (CPU/WALL):       10.43/       9.00 seconds.
--executable xanti finished with status     0 in        9.02 seconds (walltime).
 --invoking executable--
/nfs/workspaces/public/cfour_mpi/bin/xbcktrn
 @GETMEM-I,  Allocated    3814 MB of main memory.
 CCSD MO gammas will be transformed to the AO basis.
 @CHECKOUT-I, Total execution time (CPU/WALL):       24.57/       4.15 seconds.
--executable xbcktrn finished with status     0 in        4.17 seconds (walltime).
 --invoking executable--
/nfs/workspaces/public/cfour_mpi/bin/xvdint
 @GETMEM-I,  Allocated    3814 MB of main memory.
 One- and two-electron integral derivatives are calculated
 for RHF-CC/MBPT hessians and dipole derivatives.
 Spherical gaussians are used.
  magnet F F

                     Kinetic energy integral gradient
                     --------------------------------

                         C #1 z    -0.7709013224
                         O #2 z     0.7709013224


 C #1       0.0000000000            0.0000000000           -0.7709013224
 O #2       0.0000000000            0.0000000000            0.7709013224



                   Nuclear attraction integral gradient
                   ------------------------------------

                         C #1 z    16.5763789239
                         O #2 z   -16.5763789239


 C #1       0.0000000000            0.0000000000           16.5763789239
 O #2       0.0000000000            0.0000000000          -16.5763789239



                      Reorthonormalization gradient
                      -----------------------------

                         C #1 z     0.0000000000
                         O #2 z     0.0000000000


 C #1       0.0000000000            0.0000000000            0.0000000000
 O #2       0.0000000000            0.0000000000            0.0000000000



                     Kinetic energy integral Hessian
                     -------------------------------


           Symmetry 1

           C #1 z      O #2 z

 C #1 z    0.781016
 O #2 z   -0.781016    0.781016


           Symmetry 2

           C #1 x      O #2 x

 C #1 x   -0.698784
 O #2 x    0.698784   -0.698784


           Symmetry 3

           C #1 y      O #2 y

 C #1 y   -0.698784
 O #2 y    0.698784   -0.698784




           C #1 x      C #1 y      C #1 z      O #2 x      O #2 y      O #2 z

 C #1 x   -0.698784
 C #1 y    0.000000   -0.698784
 C #1 z    0.000000    0.000000    0.781016

 O #2 x    0.698784    0.000000    0.000000   -0.698784
 O #2 y    0.000000    0.698784    0.000000    0.000000   -0.698784
 O #2 z    0.000000    0.000000   -0.781016    0.000000    0.000000    0.781016




                   Nuclear attraction integral Hessian
                   -----------------------------------


           Symmetry 1

           C #1 z      O #2 z

 C #1 z  -10.269570
 O #2 z   10.269570  -10.269570


           Symmetry 2

           C #1 x      O #2 x

 C #1 x   10.430707
 O #2 x  -10.430707   10.430707


           Symmetry 3

           C #1 y      O #2 y

 C #1 y   10.430707
 O #2 y  -10.430707   10.430707




           C #1 x      C #1 y      C #1 z      O #2 x      O #2 y      O #2 z

 C #1 x   10.430707
 C #1 y    0.000000   10.430707
 C #1 z    0.000000    0.000000  -10.269570

 O #2 x  -10.430707    0.000000    0.000000   10.430707
 O #2 y    0.000000  -10.430707    0.000000    0.000000   10.430707
 O #2 z    0.000000    0.000000   10.269570    0.000000    0.000000  -10.269570




                Highest order reorthonormalization Hessian
                ------------------------------------------


           Symmetry 1

           C #1 z      O #2 z

 C #1 z    0.000000
 O #2 z    0.000000    0.000000


           Symmetry 2

           C #1 x      O #2 x

 C #1 x    0.000000
 O #2 x    0.000000    0.000000


           Symmetry 3

           C #1 y      O #2 y

 C #1 y    0.000000
 O #2 y    0.000000    0.000000




           C #1 x      C #1 y      C #1 z      O #2 x      O #2 y      O #2 z




                Electronic contributions to dipole moment
                -----------------------------------------

                               au             Debye

                    z      0.31967954      0.81254449

  Conversion factor used: 1 a.u. =   2.54174691 Debye 



   Electronic contributions to static part of dipole moment derivatives
   --------------------------------------------------------------------


                     Total dipole moment derivatives
                     -------------------------------


           Symmetry 1
                              Ez

               C #1 z    -5.64500835
               O #2 z    -8.35499165

           Symmetry 2
                              Ex

               C #1 x    -5.67493082
               O #2 x    -8.32506918

           Symmetry 3
                              Ey

               C #1 y    -5.67493082
               O #2 y    -8.32506918



                       Ex          Ey          Ez

      C #1    x   -5.674931    0.000000    0.000000
      C #1    y    0.000000   -5.674931    0.000000
      C #1    z    0.000000    0.000000   -5.645008

      O #2    x   -8.325069    0.000000    0.000000
      O #2    y    0.000000   -8.325069    0.000000
      O #2    z    0.000000    0.000000   -8.354992

 Evaluation of 1e integral derivatives required    1.65 seconds.
                    8815  records have been written to the Sort file.
  Total length of Sort file :             180513570  words.
 Evaluation of 2el integral derivatives

                      Two-electron integral gradient
                      ------------------------------

                         C #1 z    -8.5478631045
                         O #2 z     8.5478631045


 C #1       0.0000000000            0.0000000000           -8.5478631045
 O #2       0.0000000000            0.0000000000            8.5478631045


 Evaluation of 2e integral derivatives required  534.75 seconds.

                            Molecular gradient
                            ------------------

                         C #1 z     0.6622525405
                         O #2 z    -0.6622525405


 C #1       0.0000000000            0.0000000000            0.6622525405
 O #2       0.0000000000            0.0000000000           -0.6622525405


  Molecular gradient norm 0.937E+00

                            Molecular hessian
                            -----------------


           Symmetry 1

           C #1 z      O #2 z

 C #1 z   28.251460
 O #2 z  -28.251460   28.251460


           Symmetry 2

           C #1 x      O #2 x

 C #1 x    0.683010
 O #2 x   -0.683010    0.683010


           Symmetry 3

           C #1 y      O #2 y

 C #1 y    0.683010
 O #2 y   -0.683010    0.683010




           C #1 x      C #1 y      C #1 z      O #2 x      O #2 y      O #2 z

 C #1 x    0.683010
 C #1 y    0.000000    0.683010
 C #1 z    0.000000    0.000000   28.251460

 O #2 x   -0.683010    0.000000    0.000000    0.683010
 O #2 y    0.000000   -0.683010    0.000000    0.000000    0.683010
 O #2 z    0.000000    0.000000  -28.251460    0.000000    0.000000   28.251460




                           Total dipole moment
                           -------------------

                               au             Debye

                    z      0.31673921      0.80507091

  Conversion factor used: 1 a.u. =   2.54174691 Debye 



                     Total dipole moment derivatives
                     -------------------------------


           Symmetry 1
                              Ez

               C #1 z     0.66145175
               O #2 z    -0.66145175

           Symmetry 2
                              Ex

               C #1 x     0.11951807
               O #2 x    -0.11951807

           Symmetry 3
                              Ey

               C #1 y     0.11951807
               O #2 y    -0.11951807



                       Ex          Ey          Ez

      C #1    x    0.119518    0.000000    0.000000
      C #1    y    0.000000    0.119518    0.000000
      C #1    z    0.000000    0.000000    0.661452

      O #2    x   -0.119518    0.000000    0.000000
      O #2    y    0.000000   -0.119518    0.000000
      O #2    z    0.000000    0.000000   -0.661452

 @CHECKOUT-I, Total execution time (CPU/WALL):      536.38/      95.33 seconds.
--executable xvdint finished with status     0 in       95.36 seconds (walltime).
 --invoking executable--
/nfs/workspaces/public/cfour_mpi/bin/xjoda
  @GTFLGS-I, Hessian will be transformed to curvilinear coordinates.
  @GTFLGS-I, Hessian will be transformed to curvilinear coordinates.
  igrd and ihes are                      0                     1
  gradient from JOBARC 
   0.000000000000000   0.000000000000000   0.662252540525288
   0.000000000000000   0.000000000000000  -0.662252540525288
 
  @PROJFCM-I, Projecting force constant matrix onto totally symmetric subspace.
  Largest difference between matrix elements of symmetrized
  and unsymmetrized FCM :    -0.1203259714E-11.
  read isotopes from ZMAT file 
 
  Summary of diagonal Born-Oppenheimer correction at the correlated level
  The total diagonal Born-Oppenheimer correction (DBOC) is:      0.0041396049 a.u.
  The total diagonal Born-Oppenheimer correction (DBOC) is:        908.538263 cm-1
  The total diagonal Born-Oppenheimer correction (DBOC) is:            10.869 kJ/mole
  hellooooooo 
  readis is  F
 
 @CHECKOUT-I, Total execution time (CPU/WALL):        0.01/       0.01 seconds.
--executable xjoda finished with status     0 in        0.04 seconds (walltime).
  The final electronic energy is      -113.167712166668110 a.u. 
  This computation required                         2086.32 seconds (walltime).
