 --invoking executable--
/nfs/workspaces/public/cfour_mpi/bin/xjoda


   *************************************************************************
         <<<     CCCCCC     CCCCCC   |||     CCCCCC     CCCCCC   >>>
       <<<      CCC        CCC       |||    CCC        CCC         >>>
      <<<      CCC        CCC        |||   CCC        CCC            >>>
    <<<        CCC        CCC        |||   CCC        CCC              >>>
      <<<      CCC        CCC        |||   CCC        CCC            >>>
       <<<      CCC        CCC       |||    CCC        CCC         >>>
         <<<     CCCCCC     CCCCCC   |||     CCCCCC     CCCCCC   >>>
   *************************************************************************

     ****************************************************************
     * CFOUR Coupled-Cluster techniques for Computational Chemistry *
     ****************************************************************
 

   Department of Chemistry                Institut fuer Physikalische Chemie
   University of Florida                  Universitaet Mainz
   Gainesville, FL 32611, USA             D-55099 Mainz, Germany

   Department of Chemistry                Fakultaet fuer Chemie und Biowiss.
   Johns Hopkins University               Karlsruher Institut fuer Technologie
   Baltimore, MD 21218, USA               D-76131 Karlsruhe, Germany

   Department of Chemistry                Department of Physical Chemistry
   Southern Methodist University          Eotvos Lorand University
   Dallas, TX 75275, USA                  H-1053 Budapest, Hungary

 
                       Version 2.1
 
                     vincent.theory.phys.ucl.ac.uk                     
                     Tue 25 Feb 10:12:53 GMT 2025                      
                     integer*8 version is running
 
********************************************************************************
*                          Input from ZMAT file                                *
********************************************************************************
Carbon Monoxide DBOC calculation                                                
C                                                                               
O 1 r                                                                           
                                                                                
r=1.3344827586206895                                                            
                                                                                
                                                                                
*CFOUR(CALC=CCSD,BASIS=AUG-PCVQZ,SCF_CONV=10                                    
CC_CONV=14,DBOC=ON,MEMORY=500000000                                             
ZFIELD=-200)                                                                    
                                                                                
%isotopes                                                                       
12                                                                              
16                                                                              
********************************************************************************
  @GTFLGS-I, Hessian will be transformed to curvilinear coordinates.
    -------------------------------------------------------------------
                    CFOUR Control Parameters 
    -------------------------------------------------------------------
        External           Internal           Value            Units
          Name               Name
    -------------------------------------------------------------------
       ABCDTYPE             IABCDT         STANDARD    [  0]    ***   
       ANHARMONIC           IANHAR         OFF         [  0]    ***   
       ANH_ALGORIT          IANALG         STANDARD    [  0]    ***   
       ANH_DERIVAT          IANDER         SECOND      [  1]    ***   
       ANH_MODE             ANHMOD         VIBRATION   [  0]    ***   
       ANH_STEPSIZ          ICUBST             50000          x 10-6  
       ANH_SYMMETR          IANHSM         ABELIAN     [  0]    ***   
       AO_LADDERS           IAOLAD         SINGLEPASS  [  1]    ***   
       AV_SCF               IAVSCF         OFF         [  0]    ***   
       BASIS                IBASIS         AUG-PCVQZ   [ 52]    ***   
       BOTHVECTORS          BOTHVC         OFF         [  0]    ***   
       BOX_POTENT           IPIAB          OFF         [  0]    ***   
       BREIT                IBREIT         OFF         [  0]    ***   
       BRUCK_CONV           IBRTOL          10D-  4             ***   
       BRUECKNER            IBRKNR         OFF         [  0]    ***   
       BUFFERSIZE           IBUFFS              4096            ***   
       CACHE_RECS           ICHREC             10               ***   
       CALCLEVEL            ICLLVL         CCSD        [ 10]    ***   
       CCORBOPT             ICCORB         OFF         [  0]  x 0.01  
       CC_CONV              ICCCNV          10D- 14             ***   
       CC_EXPORDER          ICCEOR              5               ***   
       CC_EXTRAPOL          ICCEXT         DIIS        [  1]    ***   
       CC_GUESS             ICCGES         MP2         [  0]    ***   
       CC_MAXCYC            ICCCYC            100              cycles 
       CC_PROGRAM           ICCPRO         VCC         [  0]    ***   
       CHARGE               ICHRGE              0               ***   
       CHOLESKY             ICHOLE         OFF         [  0]    ***   
       CIS_CONV             ICISTL              5               ***   
       COMM_SIZE            IPSIZE            ***               ***   
       CONSTANT             ICONST         OLD         [  1]    ***   
       CONTINUUM            ICONTU         NONE        [  0]    ***   
       CONTRACTION          ICNTYP         GENERAL     [  1]    ***   
       COORDINATES          ICOORD         INTERNAL    [  0]    ***   
       CPHF_CONVER          ICPHFT          10D- 16             ***   
       CPHF_MAXCYC          ICPHFC             64              cycles 
       CUBIC                ICUBIC         OFF         [  0]    ***   
       CURVILINEAR          ICURVY         ON          [  1]    ***   
       DBOC                 IDBOC          ON          [  1]    ***   
       DCT                  IDCT           OFF         [  0]    ***   
       DERIV_LEV            IDRLVL         SECOND      [  2]    ***   
       DEVMEM_SIZE          IDVMEM          50000000           MByte  
       DIAG_MRCC            IEOMST          10D-  0             ***   
       DIFF_TYPE            IDIFTY         RELAXED     [  0]    ***   
       DIRECT               IDIRCT         OFF         [  0]    ***   
       DROPMO               IDRPMO      NONE         
       ECP                  IECP           OFF         [  0]    ***   
       EIGENVECTOR          IVEC                1               ***   
       EL_ANHARM            IELANH         OFF         [  0]    ***   
       EOMFOLLOW            IEOMSR         ENERGY      [  0]    ***   
       EOMIP                IEOMIP         OFF         [  0]    ***   
       EOMLEVEL             HBARFM         SAME        [  0]    ***   
       EOM_MRCC             IMRCCE         NEW         [  1]    ***   
       EOM_NONIT            EOMNON         OFF         [  0]    ***   
       EOM_NSING            IEOMSI          10D-  0             ***   
       EOM_NSTATES          IMRCCD         DAVIDSON    [  0]    ***   
       EOM_NTRIP            IEOMTR          10D-  0             ***   
       EOM_ORDER            IEXORD         ENERGY      [  0]    ***   
       EOM_PROPSTA          IEOMST              0               ***   
       ESTATE_CONV          IEXTOL          10D-  5             ***   
       ESTATE_DIAG          IEXDIG         ITERATIVE   [  0]    ***   
       ESTATE_LOCK          IESLOC         ON          [  1]    ***   
       ESTATE_MAXC          IEXMXC             40               ***   
       ESTATE_PROP          IEXPRP         OFF         [  0]    ***   
       EVAL_HESS            IRECAL              0            # of cyc.
       EXCITATION           IEXCIT              0               ***   
       EXCITE               IEXCIT         NONE        [  0]    ***   
       EXTERN_POT           IEXPOT         OFF         [  0]    ***   
       FCGRADNEW            IFCGNW         OFF         [  0]    ***   
       FC_FIELD             IFINFC              0             x 10-6  
       FD_CALTYPE           IFDCAL         GRADONLY    [  0]    ***   
       FD_PROJECT           IFDPRJ         OFF         [  1]    ***   
       FD_STEPSIZE          IDISFD              0            10-4 bohr
       FD_USEGROUP          IFDGRP         FULL        [  0]    ***   
       FILE_RECSIZ          IFLREC              4096           words  
       FINITE_PERT          IFIPER              0             x 10-6  
       FIXGEOM              IFIXGM         OFF         [  0]    ***   
       FOCK                 IFOCK          AO          [  1]    ***   
       FREQ_ALGORI          IVIALG         STANDARD    [  0]    ***   
       FROZEN_CORE          IFROCO         OFF         [  0]    ***   
       GAMMA_ABCD           IGABCD         STORE       [  0]    ***   
       GAMMA_ABCI           IGABCI         STORE       [  0]    ***   
       GENBAS_1             IGNBS1              0               ***   
       GENBAS_2             IGNBS2              0               ***   
       GENBAS_3             IGNBS3              0               ***   
       GENBAS_4             IGNBS4              0               ***   
       GEO_CONV             ICONTL              5              H/bohr 
       GEO_MAXCYC           IOPTCY             50               ***   
       GEO_MAXSTEP          IMXSTP            300            millibohr
       GEO_METHOD           INR            SINGLE_POINT[  5]    ***   
       GIAO                 IGIAO          OFF         [  1]    ***   
       GIMIC                IGIMIC         OFF         [  0]    ***   
       GRID                 IGRID          OFF         [  0]    ***   
       GRID_ALGO            IGALGO         SERIAL      [  0]    ***   
       GUESS                IGUESS         MOREAD      [  0]    ***   
       HBAR                 IHBAR          OFF         [  0]    ***   
       HESS_TYPE            IHESTP         SCF         [  0]    ***   
       HF2_FILE             IHF2Fl         USE         [  1]    ***   
       HFSTABILITY          ISTABL         OFF         [  0]    ***   
       INCORE               INCORE         OFF         [  0]    ***   
       INPUT_MRCC           IMRCC          ON          [  1]    ***   
       INTEGRALS            INTTYP         VMOL        [  1]    ***   
       JODA_PRINT           IJPRNT              0               ***   
       KEYWORD_OUT          IDMPKW         NO          [  0]    ***   
       LINDEP_TOL           ILINDP              8               ***   
       LINEQ_CONV           IZTACN          10D-  7           cycles  
       LINEQ_EXPOR          ILMAXD              5               ***   
       LINEQ_MAXCY          ILMAXC            100               ***   
       LINEQ_TYPE           ILTYPE         DIIS        [  1]    ***   
       LOCK_ORBOCC          ILOCOC         OFF         [  0]    ***   
       MEMORY_SIZE          IMEMSZ         500000000           words  
       MEM_UNIT             IMEMU          INTEGERWORDS[  0]    ***   
       MRCC                 IMRCCC         OFF         [  0]    ***   
       MULTIPLICTY          IMULTP              1               ***   
       NACOUPLING           IVCOUP         OFF         [  0]    ***   
       NEGEVAL              IDIE           ABORT       [  0]    ***   
       NEWNORM              INEWNO         OFF         [  0]    ***   
       NON-HF               INONHF         OFF         [  0]    ***   
       NTOP_TAMP            ITOPT2             15               ***   
       NUC_MODEL            INUCMO         POINT       [  0]    ***   
       OCCUPATION           IOCCU   ESTIMATED BY SCF 
       OPEN-SHELL           IOPEN          SPIN-ORBITAL[  0]    ***   
       OPTVIB               IOPTVB         OFF         [  0]    ***   
       ORBITALS             IORBTP         STANDARD    [  0]    ***   
       PARALLEL             IPARAL         ON          [  1]    ***   
       PARA_INT             IPINTS         ON          [  1]    ***   
       PARA_PRINT           IPPRIN              0               ***   
       PERT_ORB             IPTORB         STANDARD    [  0]    ***   
       POINTS               IGRDFD              0               ***   
       PRINT                IPRNT               0               ***   
       PROPS                IPROPS         OFF         [  0]    ***   
       PROP_INTEGR          IINTYP         INTERNAL    [  0]    ***   
       PSI                  IPSI           OFF         [  0]    ***   
       QC_ALG               IQCALG         FLM         [  0]    ***   
       QC_LINALG            IQCLIN         TRIDIAG     [  2]    ***   
       QC_MAXCYC            IQCMAX          10D-100           cycles  
       QC_MAXSCFCY          IQCMSC          10D- 15           cycles  
       QC_RTRUST            IQCRTR          10D-  0           x 10-3  
       QC_SKIPSCF           IQCSKI         OFF         [  0]    ***   
       QC_START             IQCSTA          10D-  1             ***   
       QRHFGUESS            IQGUES         OFF         [  0]    ***   
       QUARTIC              IQUART         OFF         [  0]    ***   
       RAMAN_INT            IRAMIN         OFF         [  0]    ***   
       RAMAN_ORB            IRAMRE         UNRELAXED   [  0]    ***   
       RDO                  IRDOFM         ON          [  1]    ***   
       REDUCE_REPR          REDREP         Ir          [  0]    ***   
       REFERENCE            IREFNC         RHF         [  0]    ***   
       RELATIVIST           IRELAT         OFF         [  0]    ***   
       RELAX_DENS           IRDENS         ON          [  1]    ***   
       RESET_FLAGS          IRESET         OFF         [  0]    ***   
       RESTART_CC           ICCRES         OFF         [  0]    ***   
       ROT_EVEC             ROTVEC              0               ***   
       SAVE_INTS            ISVINT         OFF         [  0]    ***   
       SCALE_ON             ISTCRT              0               ***   
       SCF_CONV             ISCFCV          10D- 10             ***   
       SCF_DAMPING          IDAMP               0             x 10-3  
       SCF_EXPORDE          IRPPOR              6               ***   
       SCF_EXPSTAR          IRPPLS              8               ***   
       SCF_EXTRAPO          IRPP           ON          [  1]    ***   
       SCF_MAXCYC           ISCFCY            150              cycles 
       SCF_NOSTOP           ISCFST         OFF         [  0]    ***   
       SCF_PRINT            ISCFPR              0               ***   
       SCF_PROG             ISCFPR         SCF         [  0]    ***   
       SD_FIELD             IFINSD              0             x 10-6  
       SOPERT               IPERSO         OFF         [  0]    ***   
       SPHERICAL            IDFGHI         ON          [  1]    ***   
       SPINORBIT            ISOCAL         OFF         [  0]    ***   
       SPINROTATIO          ISRCON         OFF         [  0]    ***   
       SPIN_FLIP            ISPFLP         OFF         [  0]    ***   
       SPIN_ORBIT           ISPORB         OFF         [  0]    ***   
       SPIN_SCAL            ISCSMP         OFF         [  0]    ***   
       STEEPSCALE           ISTPSC              1000          x 10-3  
       SUBGROUP             ISUBGP         DEFAULT     [  0]    ***   
       SUBGRPAXIS           ISBXYZ         X           [  0]    ***   
       SYMMETRY             ISYM           ON          [  0]    ***   
       SYM_CHECK            ISYMCK         OVERRIDE    [  1]    ***   
       T3_EXTRAPOL          IT3EXT         OFF         [  0]    ***   
       T4_EXTRAPOL          IT4EXP         OFF         [  0]    ***   
       TAMP_SUM             IEVERY              5               ***   
       TESTSUITE            ITESTS         OFF         [  0]    ***   
       THERMOCH             ITHERM         OFF         [  0]    ***   
       TOL_CHOLESK          ITOLCH          10D-  4             ***   
       TRANGRAD             IRESRM         OFF         [  0]    ***   
       TRANS_INV            ITRAIN         IGNORE      [  1]    ***   
       TREAT_PERT           ITREAT         SIMULTANEOUS[  0]    ***   
       TRIP_ALGORI          ITRALG         NORMAL      [  0]    ***   
       UIJ_THRESHO          IUIJTH              1               ***   
       UNITS                IUNITS         ANGSTROM    [  0]    ***   
       UNOS                 IUNOS          OFF         [  0]    ***   
       UPDATE_HESS          IHUPDT         ON          [  1]    ***   
       VIBPHASE             ISETPH         STANDARD    [  0]    ***   
       VIBRATION            IVIB           ANALYTIC    [  1]    ***   
       VIB_ALGORIT          IGEALG         STANDARD    [  0]    ***   
       VNATORB              IVNORB         OFF         [  0]    ***   
       VTRAN                IVTRAN         FULL/PARTIAL[  0]    ***   
       XFIELD               IXEFLD              0             x 10-6  
       XFORM_TOL            IXFTOL          10D- 11             ***   
       YFIELD               IYEFLD              0             x 10-6  
       ZFIELD               IZEFLD            ***             x 10-6  
       ZSCALE_EXP           IZEXPS         OFF         [  0]    ***   
    -------------------------------------------------------------------
   2 entries found in Z-matrix 
   Job Title : Carbon Monoxide DBOC calculation                                                
   There are  1 unique internal coordinates.
   Of these,  0 will be optimized.
   User supplied Z-matrix: 
--------------------------------------------------------------------------------
       SYMBOL    BOND      LENGTH    ANGLE     ANGLE     DIHED     ANGLE
                  TO      (ANGST)    WRT      (DEG)      WRT      (DEG)
--------------------------------------------------------------------------------
        C    
        O          1         r    
                  *Initial values for internal coordinates* 
                      Name             Value
                        r               1.3344827586
--------------------------------------------------------------------------------
  read isotopes from ZMAT file 
   Rotational constants (in cm-1): 
          1.3806595329             1.3806595329
   Rotational constants (in MHz): 
      41391.1373019754         41391.1373019754
********************************************************************************
   The full molecular point group is CXv .
   The largest Abelian subgroup of the full molecular point group is C2v .
   The computational point group is C2v .
********************************************************************************
--------------------------------------------------------------------------------
   Analysis of internal coordinates specified by Z-matrix 
--------------------------------------------------------------------------------
   *The nuclear repulsion energy is   19.033967007751937 a.u.
   *There is   1 degree of freedom within the tot. symm. molecular subspace.
   *Z-matrix requests optimization of   0 coordinates.
   *The optimization is constrained.
   *The following   1 parameters can have non-zero 
    derivatives within the totally symmetric subspace:
             r    [ 1]
   *The following   0 parameters are to be optimized:

   *The following coordinates must be varied in an  unconstrained optimization.
             r    [ 1]
--------------------------------------------------------------------------------


 ----------------------------------------------------------------
         Coordinates used in calculation (QCOMP) 
 ----------------------------------------------------------------
 Z-matrix   Atomic            Coordinates (in bohr)
  Symbol    Number           X              Y              Z
 ----------------------------------------------------------------
     C         6        -0.00000000     0.00000000     1.44083651
     O         8         0.00000000     0.00000000    -1.08097095
 ----------------------------------------------------------------
 
   Interatomic distance matrix (Angstroms) 
 
                 C             O    
                [ 1]        [ 2]
  C    [ 1]     0.00000
  O    [ 2]     1.33448     0.00000
 rotcon2
   Rotational constants (in cm-1): 
          1.3806595329             0.0000000000
   Rotational constants (in MHz): 
      41391.1373019754             0.0000000000
  ECPDATA file not present.   Using default ECPDATA. 
  @GTFLGS-I, Hessian will be transformed to curvilinear coordinates.
  There are  218 basis functions.
 @CHECKOUT-I, Total execution time (CPU/WALL):        0.09/       0.10 seconds.
--executable xjoda finished with status     0 in        0.11 seconds (walltime).
 --invoking executable--
/nfs/workspaces/public/cfour_mpi/bin/xvmol
 SERIAL VERSION OF MOLECULE STARTED
********************************************************************************
                    INPUT FROM MOL FILE
********************************************************************************
INTGRL        1    0    1    0    0    0    0    0    0                         
         *** CFOUR Program System (Release V0.1) ***                            
Carbon Monoxide DBOC calculation                                                
    2    2 X  Y       0.10E-08              0    0                              
   9999.00      3.00                                                            
          6.00000000    1    5    1    1    1    1    1                         
C #1  -0.000000000000000   0.000000000000000   1.440836508149174                
   16    9                                                                      
   33980.0000000000       9.100000000000000E-005 -1.900000000000000E-005        
  0.000000000000000E+000  0.000000000000000E+000  0.000000000000000E+000        
  0.000000000000000E+000  0.000000000000000E+000  0.000000000000000E+000        
  0.000000000000000E+000                                                        
   5089.00000000000       7.040000000000000E-004 -1.510000000000000E-004        
  0.000000000000000E+000  0.000000000000000E+000  0.000000000000000E+000        
  0.000000000000000E+000  0.000000000000000E+000  0.000000000000000E+000        
  0.000000000000000E+000                                                        
   1157.00000000000       3.693000000000000E-003 -7.850000000000000E-004        
  0.000000000000000E+000  0.000000000000000E+000  0.000000000000000E+000        
  0.000000000000000E+000  0.000000000000000E+000  0.000000000000000E+000        
  0.000000000000000E+000                                                        
   326.600000000000       1.536000000000000E-002 -3.324000000000000E-003        
  0.000000000000000E+000  0.000000000000000E+000  0.000000000000000E+000        
  0.000000000000000E+000  0.000000000000000E+000  0.000000000000000E+000        
  0.000000000000000E+000                                                        
   106.100000000000       5.292900000000000E-002 -1.151200000000000E-002        
  0.000000000000000E+000  0.000000000000000E+000  0.000000000000000E+000        
  0.000000000000000E+000  0.000000000000000E+000  0.000000000000000E+000        
  0.000000000000000E+000                                                        
   38.1100000000000       0.147043000000000      -3.416000000000000E-002        
  0.000000000000000E+000  0.000000000000000E+000  0.000000000000000E+000        
  0.000000000000000E+000  0.000000000000000E+000  0.000000000000000E+000        
  0.000000000000000E+000                                                        
   14.7500000000000       0.305631000000000      -7.717300000000001E-002        
  0.000000000000000E+000  0.000000000000000E+000  0.000000000000000E+000        
  0.000000000000000E+000  0.000000000000000E+000  0.000000000000000E+000        
  0.000000000000000E+000                                                        
   6.03500000000000       0.399345000000000      -0.141493000000000             
  0.000000000000000E+000  0.000000000000000E+000  0.000000000000000E+000        
  0.000000000000000E+000  0.000000000000000E+000  0.000000000000000E+000        
  0.000000000000000E+000                                                        
   2.53000000000000       0.217051000000000      -0.118019000000000             
  0.000000000000000E+000  0.000000000000000E+000  0.000000000000000E+000        
  0.000000000000000E+000  0.000000000000000E+000  0.000000000000000E+000        
  0.000000000000000E+000                                                        
  0.735500000000000       1.589400000000000E-002  0.273806000000000             
   1.00000000000000       0.000000000000000E+000  0.000000000000000E+000        
  0.000000000000000E+000  0.000000000000000E+000  0.000000000000000E+000        
  0.000000000000000E+000                                                        
  0.290500000000000      -3.084000000000000E-003  0.586510000000000             
  0.000000000000000E+000   1.00000000000000       0.000000000000000E+000        
  0.000000000000000E+000  0.000000000000000E+000  0.000000000000000E+000        
  0.000000000000000E+000                                                        
  0.111100000000000       9.779999999999999E-004  0.285430000000000             
  0.000000000000000E+000  0.000000000000000E+000   1.00000000000000             
  0.000000000000000E+000  0.000000000000000E+000  0.000000000000000E+000        
  0.000000000000000E+000                                                        
   7.21600000000000       0.000000000000000E+000  0.000000000000000E+000        
  0.000000000000000E+000  0.000000000000000E+000  0.000000000000000E+000        
   1.00000000000000       0.000000000000000E+000  0.000000000000000E+000        
  0.000000000000000E+000                                                        
   19.5700000000000       0.000000000000000E+000  0.000000000000000E+000        
  0.000000000000000E+000  0.000000000000000E+000  0.000000000000000E+000        
  0.000000000000000E+000   1.00000000000000       0.000000000000000E+000        
  0.000000000000000E+000                                                        
   53.0730000000000       0.000000000000000E+000  0.000000000000000E+000        
  0.000000000000000E+000  0.000000000000000E+000  0.000000000000000E+000        
  0.000000000000000E+000  0.000000000000000E+000   1.00000000000000             
  0.000000000000000E+000                                                        
  4.145000000000000E-002  0.000000000000000E+000  0.000000000000000E+000        
  0.000000000000000E+000  0.000000000000000E+000  0.000000000000000E+000        
  0.000000000000000E+000  0.000000000000000E+000  0.000000000000000E+000        
   1.00000000000000                                                             
   10    8                                                                      
   34.5100000000000       5.378000000000000E-003  0.000000000000000E+000        
  0.000000000000000E+000  0.000000000000000E+000  0.000000000000000E+000        
  0.000000000000000E+000  0.000000000000000E+000  0.000000000000000E+000        
   7.91500000000000       3.613200000000000E-002  0.000000000000000E+000        
  0.000000000000000E+000  0.000000000000000E+000  0.000000000000000E+000        
  0.000000000000000E+000  0.000000000000000E+000  0.000000000000000E+000        
   2.36800000000000       0.142493000000000       0.000000000000000E+000        
  0.000000000000000E+000  0.000000000000000E+000  0.000000000000000E+000        
  0.000000000000000E+000  0.000000000000000E+000  0.000000000000000E+000        
  0.813200000000000       0.342150000000000        1.00000000000000             
  0.000000000000000E+000  0.000000000000000E+000  0.000000000000000E+000        
  0.000000000000000E+000  0.000000000000000E+000  0.000000000000000E+000        
  0.289000000000000       0.463864000000000       0.000000000000000E+000        
   1.00000000000000       0.000000000000000E+000  0.000000000000000E+000        
  0.000000000000000E+000  0.000000000000000E+000  0.000000000000000E+000        
  0.100700000000000       0.250028000000000       0.000000000000000E+000        
  0.000000000000000E+000   1.00000000000000       0.000000000000000E+000        
  0.000000000000000E+000  0.000000000000000E+000  0.000000000000000E+000        
   8.18200000000000       0.000000000000000E+000  0.000000000000000E+000        
  0.000000000000000E+000  0.000000000000000E+000   1.00000000000000             
  0.000000000000000E+000  0.000000000000000E+000  0.000000000000000E+000        
   24.1860000000000       0.000000000000000E+000  0.000000000000000E+000        
  0.000000000000000E+000  0.000000000000000E+000  0.000000000000000E+000        
   1.00000000000000       0.000000000000000E+000  0.000000000000000E+000        
   71.4940000000000       0.000000000000000E+000  0.000000000000000E+000        
  0.000000000000000E+000  0.000000000000000E+000  0.000000000000000E+000        
  0.000000000000000E+000   1.00000000000000       0.000000000000000E+000        
  3.218000000000000E-002  0.000000000000000E+000  0.000000000000000E+000        
  0.000000000000000E+000  0.000000000000000E+000  0.000000000000000E+000        
  0.000000000000000E+000  0.000000000000000E+000   1.00000000000000             
    6    6                                                                      
   1.84800000000000        1.00000000000000       0.000000000000000E+000        
  0.000000000000000E+000  0.000000000000000E+000  0.000000000000000E+000        
  0.000000000000000E+000                                                        
  0.649000000000000       0.000000000000000E+000   1.00000000000000             
  0.000000000000000E+000  0.000000000000000E+000  0.000000000000000E+000        
  0.000000000000000E+000                                                        
  0.228000000000000       0.000000000000000E+000  0.000000000000000E+000        
   1.00000000000000       0.000000000000000E+000  0.000000000000000E+000        
  0.000000000000000E+000                                                        
   8.65600000000000       0.000000000000000E+000  0.000000000000000E+000        
  0.000000000000000E+000   1.00000000000000       0.000000000000000E+000        
  0.000000000000000E+000                                                        
   33.2130000000000       0.000000000000000E+000  0.000000000000000E+000        
  0.000000000000000E+000  0.000000000000000E+000   1.00000000000000             
  0.000000000000000E+000                                                        
  7.660000000000000E-002  0.000000000000000E+000  0.000000000000000E+000        
  0.000000000000000E+000  0.000000000000000E+000  0.000000000000000E+000        
   1.00000000000000                                                             
    4    4                                                                      
   1.41900000000000        1.00000000000000       0.000000000000000E+000        
  0.000000000000000E+000  0.000000000000000E+000                                
  0.485000000000000       0.000000000000000E+000   1.00000000000000             
  0.000000000000000E+000  0.000000000000000E+000                                
   24.6940000000000       0.000000000000000E+000  0.000000000000000E+000        
   1.00000000000000       0.000000000000000E+000                                
  0.187000000000000       0.000000000000000E+000  0.000000000000000E+000        
  0.000000000000000E+000   1.00000000000000                                     
    2    2                                                                      
   1.01100000000000        1.00000000000000       0.000000000000000E+000        
  0.424000000000000       0.000000000000000E+000   1.00000000000000             
          8.00000000    1    5    1    1    1    1    1                         
O #2   0.000000000000000   0.000000000000000  -1.080970952190077                
   16    9                                                                      
   61420.0000000000       9.000000000000001E-005 -2.000000000000000E-005        
  0.000000000000000E+000  0.000000000000000E+000  0.000000000000000E+000        
  0.000000000000000E+000  0.000000000000000E+000  0.000000000000000E+000        
  0.000000000000000E+000                                                        
   9199.00000000000       6.980000000000001E-004 -1.590000000000000E-004        
  0.000000000000000E+000  0.000000000000000E+000  0.000000000000000E+000        
  0.000000000000000E+000  0.000000000000000E+000  0.000000000000000E+000        
  0.000000000000000E+000                                                        
   2091.00000000000       3.664000000000000E-003 -8.290000000000000E-004        
  0.000000000000000E+000  0.000000000000000E+000  0.000000000000000E+000        
  0.000000000000000E+000  0.000000000000000E+000  0.000000000000000E+000        
  0.000000000000000E+000                                                        
   590.900000000000       1.521800000000000E-002 -3.508000000000000E-003        
  0.000000000000000E+000  0.000000000000000E+000  0.000000000000000E+000        
  0.000000000000000E+000  0.000000000000000E+000  0.000000000000000E+000        
  0.000000000000000E+000                                                        
   192.300000000000       5.242300000000000E-002 -1.215600000000000E-002        
  0.000000000000000E+000  0.000000000000000E+000  0.000000000000000E+000        
  0.000000000000000E+000  0.000000000000000E+000  0.000000000000000E+000        
  0.000000000000000E+000                                                        
   69.3200000000000       0.145921000000000      -3.626100000000000E-002        
  0.000000000000000E+000  0.000000000000000E+000  0.000000000000000E+000        
  0.000000000000000E+000  0.000000000000000E+000  0.000000000000000E+000        
  0.000000000000000E+000                                                        
   26.9700000000000       0.305258000000000      -8.299200000000000E-002        
  0.000000000000000E+000  0.000000000000000E+000  0.000000000000000E+000        
  0.000000000000000E+000  0.000000000000000E+000  0.000000000000000E+000        
  0.000000000000000E+000                                                        
   11.1000000000000       0.398508000000000      -0.152090000000000             
  0.000000000000000E+000  0.000000000000000E+000  0.000000000000000E+000        
  0.000000000000000E+000  0.000000000000000E+000  0.000000000000000E+000        
  0.000000000000000E+000                                                        
   4.68200000000000       0.216980000000000      -0.115331000000000             
  0.000000000000000E+000  0.000000000000000E+000  0.000000000000000E+000        
  0.000000000000000E+000  0.000000000000000E+000  0.000000000000000E+000        
  0.000000000000000E+000                                                        
   1.42800000000000       1.759400000000000E-002  0.288979000000000             
   1.00000000000000       0.000000000000000E+000  0.000000000000000E+000        
  0.000000000000000E+000  0.000000000000000E+000  0.000000000000000E+000        
  0.000000000000000E+000                                                        
  0.554700000000000      -2.502000000000000E-003  0.586128000000000             
  0.000000000000000E+000   1.00000000000000       0.000000000000000E+000        
  0.000000000000000E+000  0.000000000000000E+000  0.000000000000000E+000        
  0.000000000000000E+000                                                        
  0.206700000000000       9.540000000000000E-004  0.277624000000000             
  0.000000000000000E+000  0.000000000000000E+000   1.00000000000000             
  0.000000000000000E+000  0.000000000000000E+000  0.000000000000000E+000        
  0.000000000000000E+000                                                        
   12.9740000000000       0.000000000000000E+000  0.000000000000000E+000        
  0.000000000000000E+000  0.000000000000000E+000  0.000000000000000E+000        
   1.00000000000000       0.000000000000000E+000  0.000000000000000E+000        
  0.000000000000000E+000                                                        
   34.9000000000000       0.000000000000000E+000  0.000000000000000E+000        
  0.000000000000000E+000  0.000000000000000E+000  0.000000000000000E+000        
  0.000000000000000E+000   1.00000000000000       0.000000000000000E+000        
  0.000000000000000E+000                                                        
   93.8810000000000       0.000000000000000E+000  0.000000000000000E+000        
  0.000000000000000E+000  0.000000000000000E+000  0.000000000000000E+000        
  0.000000000000000E+000  0.000000000000000E+000   1.00000000000000             
  0.000000000000000E+000                                                        
  6.959000000000000E-002  0.000000000000000E+000  0.000000000000000E+000        
  0.000000000000000E+000  0.000000000000000E+000  0.000000000000000E+000        
  0.000000000000000E+000  0.000000000000000E+000  0.000000000000000E+000        
   1.00000000000000                                                             
   10    8                                                                      
   63.4200000000000       6.044000000000000E-003  0.000000000000000E+000        
  0.000000000000000E+000  0.000000000000000E+000  0.000000000000000E+000        
  0.000000000000000E+000  0.000000000000000E+000  0.000000000000000E+000        
   14.6600000000000       4.179900000000000E-002  0.000000000000000E+000        
  0.000000000000000E+000  0.000000000000000E+000  0.000000000000000E+000        
  0.000000000000000E+000  0.000000000000000E+000  0.000000000000000E+000        
   4.45900000000000       0.161143000000000       0.000000000000000E+000        
  0.000000000000000E+000  0.000000000000000E+000  0.000000000000000E+000        
  0.000000000000000E+000  0.000000000000000E+000  0.000000000000000E+000        
   1.53100000000000       0.356731000000000        1.00000000000000             
  0.000000000000000E+000  0.000000000000000E+000  0.000000000000000E+000        
  0.000000000000000E+000  0.000000000000000E+000  0.000000000000000E+000        
  0.530200000000000       0.448309000000000       0.000000000000000E+000        
   1.00000000000000       0.000000000000000E+000  0.000000000000000E+000        
  0.000000000000000E+000  0.000000000000000E+000  0.000000000000000E+000        
  0.175000000000000       0.244940000000000       0.000000000000000E+000        
  0.000000000000000E+000   1.00000000000000       0.000000000000000E+000        
  0.000000000000000E+000  0.000000000000000E+000  0.000000000000000E+000        
   14.4750000000000       0.000000000000000E+000  0.000000000000000E+000        
  0.000000000000000E+000  0.000000000000000E+000   1.00000000000000             
  0.000000000000000E+000  0.000000000000000E+000  0.000000000000000E+000        
   42.7300000000000       0.000000000000000E+000  0.000000000000000E+000        
  0.000000000000000E+000  0.000000000000000E+000  0.000000000000000E+000        
   1.00000000000000       0.000000000000000E+000  0.000000000000000E+000        
   126.140000000000       0.000000000000000E+000  0.000000000000000E+000        
  0.000000000000000E+000  0.000000000000000E+000  0.000000000000000E+000        
  0.000000000000000E+000   1.00000000000000       0.000000000000000E+000        
  5.348000000000000E-002  0.000000000000000E+000  0.000000000000000E+000        
  0.000000000000000E+000  0.000000000000000E+000  0.000000000000000E+000        
  0.000000000000000E+000  0.000000000000000E+000   1.00000000000000             
    6    6                                                                      
   3.77500000000000        1.00000000000000       0.000000000000000E+000        
  0.000000000000000E+000  0.000000000000000E+000  0.000000000000000E+000        
  0.000000000000000E+000                                                        
   1.30000000000000       0.000000000000000E+000   1.00000000000000             
  0.000000000000000E+000  0.000000000000000E+000  0.000000000000000E+000        
  0.000000000000000E+000                                                        
  0.444000000000000       0.000000000000000E+000  0.000000000000000E+000        
   1.00000000000000       0.000000000000000E+000  0.000000000000000E+000        
  0.000000000000000E+000                                                        
   14.9270000000000       0.000000000000000E+000  0.000000000000000E+000        
  0.000000000000000E+000   1.00000000000000       0.000000000000000E+000        
  0.000000000000000E+000                                                        
   57.5440000000000       0.000000000000000E+000  0.000000000000000E+000        
  0.000000000000000E+000  0.000000000000000E+000   1.00000000000000             
  0.000000000000000E+000                                                        
  0.154000000000000       0.000000000000000E+000  0.000000000000000E+000        
  0.000000000000000E+000  0.000000000000000E+000  0.000000000000000E+000        
   1.00000000000000                                                             
    4    4                                                                      
   2.66600000000000        1.00000000000000       0.000000000000000E+000        
  0.000000000000000E+000  0.000000000000000E+000                                
  0.859000000000000       0.000000000000000E+000   1.00000000000000             
  0.000000000000000E+000  0.000000000000000E+000                                
   26.4830000000000       0.000000000000000E+000  0.000000000000000E+000        
   1.00000000000000       0.000000000000000E+000                                
  0.324000000000000       0.000000000000000E+000  0.000000000000000E+000        
  0.000000000000000E+000   1.00000000000000                                     
    2    2                                                                      
   1.84600000000000        1.00000000000000       0.000000000000000E+000        
  0.714000000000000       0.000000000000000E+000   1.00000000000000             
FINISH                                                                          
 
********************************************************************************
 ONE- AND TWO-ELECTRON INTEGRALS OVER SYMMETRY-ADAPTED AOS ARE CALCULATED.

  SPHERICAL HARMONICS ARE USED.
  
  INTEGRALS LESS THAN  0.10E-13 ARE NEGLECTED.

  NUCLEAR REPULSION ENERGY :   19.0339670078 A.U.
  @MOLECU-I, ONE ELECTRON INTEGRALS (CPU/WALL):        0.06/       0.07 SECONDS.
  @TWOEL-I,    4515292 INTEGRALS OF SYMMETRY TYPE  I I I I
  @TWOEL-I,   19440869 INTEGRALS OF SYMMETRY TYPE  I J I J
  @TWOEL-I,   10239823 INTEGRALS OF SYMMETRY TYPE  I I J J
  @TWOEL-I,   14394616 INTEGRALS OF SYMMETRY TYPE  I J K L
  @TWOEL-I, TOTAL NUMBER OF 2-E INTEGRALS   48590600.
  @MOLECU-I, TWO ELECTRON INTEGRALS (CPU/WALL):      184.28/      25.72 SECONDS.
 @CHECKOUT-I, Total execution time (CPU/WALL):      184.35/      25.80 seconds.

Running with 14 threads/proc

--executable xvmol finished with status     0 in       25.82 seconds (walltime).
 --invoking executable--
/nfs/workspaces/public/cfour_mpi/bin/xvmol2ja
 @GETMEM-I,  Allocated    3814 MB of main memory.
 @CHECKOUT-I, Total execution time (CPU/WALL):        0.18/       0.06 seconds.
--executable xvmol2ja finished with status     0 in        0.08 seconds (walltime).
 --invoking executable--
/nfs/workspaces/public/cfour_mpi/bin/xvprop
 @GETMEM-I,  Allocated    3814 MB of main memory.
   Property integrals will be calculated.
    --------------------------------------------------------------
                                   Property evaluated at 
    Property type                X             Y             Z
    --------------------------------------------------------------
    Dipole moment               ----          ----          ----  
    Quadrupole moment           ----          ----          ----  
    Octopole moment             ----          ----          ----  
    Relativisitic corr.         ----          ----          ----  
    Second moment            0.0000000     0.0000000     0.0000000
    Electron density         0.0000000     0.0000000     1.4408365
    Electron density         0.0000000     0.0000000    -1.0809710
    Field gradient           0.0000000     0.0000000     1.4408365
    Field gradient           0.0000000     0.0000000    -1.0809710
    Potential                0.0000000     0.0000000     1.4408365
    Potential                0.0000000     0.0000000    -1.0809710
    --------------------------------------------------------------
 @CHECKOUT-I, Total execution time (CPU/WALL):        1.38/       1.40 seconds.
--executable xvprop finished with status     0 in        1.42 seconds (walltime).
 --invoking executable--
/nfs/workspaces/public/cfour_mpi/bin/xvscf
  There are  218 functions in the AO basis.

  There are 4 irreducible representations.

       Irrep        # of functions
         1                 86
         2                 52
         3                 52
         4                 28


  Parameters for SCF calculation: 
        SCF reference function:  RHF  
  Maximum number of iterations:  150
     Full symmetry point group: CXv 
     Computational point group: C2v 
        Initial density matrix: MOREAD                 
     SCF convergence tolerance: 10**(-10)
  DIIS convergence acceleration:  ON
          Latest start for DIIS:   8
                     DIIS order:   6

  Memory information:    2523578 words required.
  Fock matrices are constructed from AO integral file.
 @GETMEM-I,  Allocated      19 MB of main memory.
  Initialization and symmetry analysis required      0.001 seconds.

  Adding electric field perturbation to one-electron Hamiltonian.
  Field direction     : Z
  Field strength      : -0.0002000 a.u.

  @INITGES-I, Occupancies from core Hamiltonian:

          Alpha population by irrep:   5    1    1    0
           Beta population by irrep:   5    1    1    0


 total no. of electrons in initial guess :  0.000000000000000E+000
  --------------------------------------------------------------------
  Iteration         Total Energy            Largest Density Difference
  --------------------------------------------------------------------
       0            19.033966458038208              0.0000000000D+00
   current occupation vector 
     5  1  1  0
     5  1  1  0
       1           -92.943432181658181              0.1780491173D+02
   current occupation vector 
     5  1  1  0
     5  1  1  0
       2           -98.360753553874929              0.1780152376D+02
   current occupation vector 
     5  1  1  0
     5  1  1  0
       3          -103.467740248611406              0.6975562006D+01
   current occupation vector 
     5  1  1  0
     5  1  1  0
       4           -99.113508195539069              0.6960016414D+01
   current occupation vector 
     5  1  1  0
     5  1  1  0
       5          -101.673960432831379              0.6228861891D+01
   current occupation vector 
     5  1  1  0
     5  1  1  0
       6           -97.764547511210736              0.6207552029D+01
   current occupation vector 
     5  1  1  0
     5  1  1  0
       7          -101.677134211647271              0.6373238524D+01
   current occupation vector 
     5  1  1  0
     5  1  1  0
       8           -97.671808270087425              0.6372420988D+01
   current occupation vector 
     5  1  1  0
     5  1  1  0
       9          -108.765358602178651              0.4810863718D+01
   current occupation vector 
     5  1  1  0
     5  1  1  0
      10          -110.824793103452038              0.1107564121D+01
   current occupation vector 
     5  1  1  0
     5  1  1  0
      11          -112.527216986059983              0.1051654034D+01
   current occupation vector 
     5  1  1  0
     5  1  1  0
      12          -112.698232276402251              0.4260880715D+00
   current occupation vector 
     5  1  1  0
     5  1  1  0
      13          -112.700046474740390              0.5567659311D-01
   current occupation vector 
     5  1  1  0
     5  1  1  0
      14          -112.700311181878646              0.1986217734D-01
   current occupation vector 
     5  1  1  0
     5  1  1  0
      15          -112.700340859127664              0.8503872050D-02
   current occupation vector 
     5  1  1  0
     5  1  1  0
      16          -112.700341399618424              0.1004000217D-02
   current occupation vector 
     5  1  1  0
     5  1  1  0
      17          -112.700341450912617              0.4613372930D-03
   current occupation vector 
     5  1  1  0
     5  1  1  0
      18          -112.700341455908045              0.1583165213D-03
   current occupation vector 
     5  1  1  0
     5  1  1  0
      19          -112.700341456027985              0.2376941288D-04
   current occupation vector 
     5  1  1  0
     5  1  1  0
      20          -112.700341456027132              0.1589756116D-05
   current occupation vector 
     5  1  1  0
     5  1  1  0
      21          -112.700341456028951              0.7964067716D-06
   current occupation vector 
     5  1  1  0
     5  1  1  0
      22          -112.700341456030088              0.1545919246D-06
   current occupation vector 
     5  1  1  0
     5  1  1  0
      23          -112.700341456028696              0.3471416199D-07
   current occupation vector 
     5  1  1  0
     5  1  1  0
      24          -112.700341456029150              0.2779671604D-08
   current occupation vector 
     5  1  1  0
     5  1  1  0
      25          -112.700341456026763              0.3751026156D-09
   current occupation vector 
     5  1  1  0
     5  1  1  0
      26          -112.700341456029832              0.1075588507D-09
   current occupation vector 
     5  1  1  0
     5  1  1  0
      27          -112.700341456029179              0.1097457680D-09
   current occupation vector 
     5  1  1  0
     5  1  1  0

  SCF has converged.

 Density matrix saved to file den.dat
 total electron number:   14.0000000000004     
     E(SCF)=      -112.700341456029861              0.3794009551D-10

  Eigenvector printing suppressed.

 @PUTMOS-I, Writing converged MOs to NEWMOS. 
 @PUTMOS-I, Symmetry   1 Full Blocks 21 Partial Blocksize   2
 @PUTMOS-I, Symmetry   2 Full Blocks 13 Partial Blocksize   0
 @PUTMOS-I, Symmetry   3 Full Blocks 13 Partial Blocksize   0
 @PUTMOS-I, Symmetry   4 Full Blocks  7 Partial Blocksize   0
 @PUTFOCK-I, Writing converged Fock matrix to NEWFOCK. 
 @PUTFOCK-I, Symmetry   1 Full Blocks 21 Partial Blocksize   2
 @PUTFOCK-I, Symmetry   2 Full Blocks 13 Partial Blocksize   0
 @PUTFOCK-I, Symmetry   3 Full Blocks 13 Partial Blocksize   0
 @PUTFOCK-I, Symmetry   4 Full Blocks  7 Partial Blocksize   0


 
  ORBITAL EIGENVALUES (ALPHA)  (1H = 27.2113834 eV)

       MO #        E(hartree)               E(eV)           FULLSYM    COMPSYM
       ----   --------------------   --------------------   -------   ---------
    1     1         -20.6645246852        -562.3103039877     SG+        A1 (1)
    2     2         -11.4460831362        -311.4637566462     SG+        A1 (1)
    3     3          -1.3935010779         -37.9190920986     SG+        A1 (1)
    4     4          -0.7931132807         -21.5817095616     SG+        A1 (1)
    5     5          -0.5654695856         -15.3872096951     SG+        A1 (1)
    6    87          -0.5634868263         -15.3332560703      PI        B1 (2)
    7   139          -0.5634868263         -15.3332560703      PI        B2 (3)
  +++++++++++++++++++++++++++++++++++++++++++++++++++++++++++++++++++++++++++++
    8    88           0.0442914027           1.2052303402      PI        B1 (2)
    9   140           0.0442914027           1.2052303402      PI        B2 (3)
   10     6           0.0633819952           1.7247117711     SG+        A1 (1)
   11     7           0.0694688957           1.8903447563     SG+        A1 (1)
   12    89           0.0964757679           2.6252391079      PI        B1 (2)
   13   141           0.0964757679           2.6252391079      PI        B2 (3)
   14     8           0.1571928060           4.2774337113     SG+        A1 (1)
   15   142           0.1705330058           4.6404390045      PI        B2 (3)
   16    90           0.1705330058           4.6404390045      PI        B1 (2)
   17     9           0.2259990766           6.1497475214      DE        A1 (1)
   18   191           0.2259990766           6.1497475214      DE        A2 (4)
   19    10           0.2271686708           6.1815737974     SG+        A1 (1)
   20    11           0.2994052489           8.1472310192     SG+        A1 (1)
   21   143           0.3015819431           8.2064618814      PI        B2 (3)
   22    91           0.3015819431           8.2064618814      PI        B1 (2)
   23    12           0.3776021194          10.2750760445     SG+        A1 (1)
   24   144           0.3970578240          10.8044926815      PI        B2 (3)
   25    92           0.3970578240          10.8044926815      PI        B1 (2)
   26    13           0.5097511838          13.8710349006     SG+        A1 (1)
   27    14           0.5367207712          14.6049146843     SG+        A1 (1)
   28    15           0.5448347852          14.8257082300      DE        A1 (1)
   29   192           0.5448347852          14.8257082300      DE        A2 (4)
   30    93           0.6259652080          17.0333792709      PI        B1 (2)
   31   145           0.6259652080          17.0333792709      PI        B2 (3)
   32   146           0.7425847997          20.2067596927      PH        B2 (3)
   33    94           0.7425847997          20.2067596927      PH        B1 (2)
   34    16           0.7519765992          20.4623235493     SG+        A1 (1)
   35    17           0.7567005372          20.5908684358      DE        A1 (1)
   36   193           0.7567005372          20.5908684358      DE        A2 (4)
   37    95           0.7992311103          21.7481841679      PI        B1 (2)
   38   147           0.7992311103          21.7481841679      PI        B2 (3)
   39    18           0.8260256992          22.4773020004     SG+        A1 (1)
   40    19           0.8681064300          23.6223768995     SG+        A1 (1)
   41    20           0.8785158311          23.9056311022      DE        A1 (1)
   42   194           0.8785158311          23.9056311022      DE        A2 (4)
   43    96           0.8959575664          24.3802448494      PI        B1 (2)
   44   148           0.8959575664          24.3802448494      PI        B2 (3)
   45    97           1.0395548936          28.2877267745      PI        B1 (2)
   46   149           1.0395548936          28.2877267745      PI        B2 (3)
   47    21           1.1243374026          30.5947761330     SG+        A1 (1)
   48    22           1.4146404196          38.4943228314     SG+        A1 (1)
   49   150           1.4330453925          38.9951476042      PH        B2 (3)
   50    98           1.4330453925          38.9951476042      PH        B1 (2)
   51    23           1.5524156731          42.2433780766      DE        A1 (1)
   52   195           1.5524156731          42.2433780766      DE        A2 (4)
   53    99           1.5677734250          42.6612837523      PI        B1 (2)
   54   151           1.5677734250          42.6612837523      PI        B2 (3)
   55    24           1.6472611381          44.8242543883     SG+        A1 (1)
   56   100           1.6699525500          45.4417190973      PI        B1 (2)
   57   152           1.6699525500          45.4417190973      PI        B2 (3)
   58    25           1.7321841020          47.1351257176      DE        A1 (1)
   59   196           1.7321841020          47.1351257176      DE        A2 (4)
   60    26           1.8529638402          50.4217094822     SG+        A1 (1)
   61    27           2.0314854329          55.2795289875     SG+        A1 (1)
   62   101           2.0642287663          56.1705203846      PI        B1 (2)
   63   153           2.0642287663          56.1705203847      PI        B2 (3)
   64   197           2.0898907181          56.8688175953      PI        A2 (4)
   65    28           2.0898907181          56.8688175953      PI        A1 (1)
   66   198           2.1595675755          58.7648212752      DE        A2 (4)
   67    29           2.1595675755          58.7648212752      DE        A1 (1)
   68   102           2.2324537156          60.7481539771      PH        B1 (2)
   69   154           2.2324537156          60.7481539771      PH        B2 (3)
   70   103           2.2794478219          62.0269286218      PI        B1 (2)
   71   155           2.2794478219          62.0269286218      PI        B2 (3)
   72    30           2.2883058065          62.2679666361     SG+        A1 (1)
   73   104           2.2898440979          62.3098256755      PH        B1 (2)
   74   156           2.2898440979          62.3098256755      PH        B2 (3)
   75   199           2.3282658711          63.3553352753      DE        A2 (4)
   76    31           2.3282658711          63.3553352753      DE        A1 (1)
   77    32           2.4976020781          67.9632077286     SG+        A1 (1)
   78   105           2.5395152581          69.1037233382      PI        B1 (2)
   79   157           2.5395152581          69.1037233382      PI        B2 (3)
   80    33           2.6703663360          72.6643621863     SG+        A1 (1)
   81   158           2.6820833427          72.9831981503      PI        B2 (3)
   82   106           2.6820833427          72.9831981503      PI        B1 (2)
   83    34           2.8338062450          77.1117882132      DE        A1 (1)
   84   200           2.8338062450          77.1117882132      DE        A2 (4)
   85    35           3.3544683308          91.2797238528     SG+        A1 (1)
   86   107           3.6272095158          98.7013888056      PI        B1 (2)
   87   159           3.6272095158          98.7013888056      PI        B2 (3)
   88    36           3.7022741307         100.7440008225      PI        A1 (1)
   89   201           3.7022741307         100.7440008225      PI        A2 (4)
   90    37           3.8984707653         106.0827826688     SG+        A1 (1)
   91   160           4.0606326941         110.4954330861      PH        B2 (3)
   92   108           4.0606326941         110.4954330861      PH        B1 (2)
   93   161           4.1297709440         112.3767805122      PH        B2 (3)
   94   109           4.1297709440         112.3767805122      PH        B1 (2)
   95   110           4.1781938607         113.6944350633      PI        B1 (2)
   96   162           4.1781938607         113.6944350633      PI        B2 (3)
   97    38           4.2112366459         114.5935749608      DE        A1 (1)
   98   202           4.2112366459         114.5935749609      DE        A2 (4)
   99    39           4.2168078298         114.7451745812     SG+        A1 (1)
  100    40           4.2973232083         116.9361094160      DE        A1 (1)
  101   203           4.2973232083         116.9361094160      DE        A2 (4)
  102    41           4.3828236721         119.2626953165     SG+        A1 (1)
  103   111           4.8075482360         130.8200382626      PI        B1 (2)
  104   163           4.8075482360         130.8200382626      PI        B2 (3)
  105   204           4.9590681491         134.9431047109      DE        A2 (4)
  106    42           4.9590681491         134.9431047109      DE        A1 (1)
  107   112           4.9861840866         135.6809668840      PI        B1 (2)
  108   164           4.9861840866         135.6809668840      PI        B2 (3)
  109    43           5.0881306033         138.4550726355     SG+        A1 (1)
  110    44           5.3531286199         145.6660352663     SG+        A1 (1)
  111   113           5.5633779342         151.3872099667      PI        B1 (2)
  112   165           5.5633779342         151.3872099667      PI        B2 (3)
  113   205           5.8686212264         159.6933022197      PI        A2 (4)
  114    45           5.8686212264         159.6933022197      PI        A1 (1)
  115   114           5.9832234439         162.8117870986      PH        B1 (2)
  116   166           5.9832234439         162.8117870986      PH        B2 (3)
  117    46           6.2057124637         168.8660211198     SG+        A1 (1)
  118   206           6.2202943468         169.2628143329      DE        A2 (4)
  119    47           6.2202943468         169.2628143329      DE        A1 (1)
  120   115           6.2507541547         170.0916678420      PI        B1 (2)
  121   167           6.2507541547         170.0916678420      PI        B2 (3)
  122   116           6.4047962595         174.2833666170      PH        B1 (2)
  123   168           6.4047962595         174.2833666170      PH        B2 (3)
  124    48           6.4596937127         175.7772022629     SG+        A1 (1)
  125    49           6.5351259028         177.8298165089      DE        A1 (1)
  126   207           6.5351259028         177.8298165089      DE        A2 (4)
  127    50           6.7074998211         182.5203492884      DE        A1 (1)
  128   208           6.7074998211         182.5203492884      DE        A2 (4)
  129   117           7.0810504277         192.6851780635      PI        B1 (2)
  130   169           7.0810504277         192.6851780635      PI        B2 (3)
  131    51           7.4001518470         201.3683691259     SG+        A1 (1)
  132   118           7.8686834136         214.1177612201      PI        B1 (2)
  133   170           7.8686834136         214.1177612201      PI        B2 (3)
  134    52           8.2776498058         225.2463025157     SG+        A1 (1)
  135    53           9.9582440658         270.9775972662     SG+        A1 (1)
  136   171          10.0402699746         273.2096357188      PI        B2 (3)
  137   119          10.0402699746         273.2096357190      PI        B1 (2)
  138   209          10.6190860573         288.9600220623      PI        A2 (4)
  139    54          10.6190860573         288.9600220623      PI        A1 (1)
  140   120          10.7855260174         293.4890836307      PH        B1 (2)
  141   172          10.7855260174         293.4890836307      PH        B2 (3)
  142    55          10.8321563464         294.7579593906     SG+        A1 (1)
  143    56          11.0191078834         299.8451693408      DE        A1 (1)
  144   210          11.0191078834         299.8451693408      DE        A2 (4)
  145   121          11.1498381573         303.4025209463      PI        B1 (2)
  146   173          11.1498381573         303.4025209463      PI        B2 (3)
  147    57          11.4714380090         312.1536978128     SG+        A1 (1)
  148   174          11.8631918691         322.8138622979      PH        B2 (3)
  149   122          11.8631918691         322.8138622979      PH        B1 (2)
  150   211          12.1062503082         329.4278186737      DE        A2 (4)
  151    58          12.1062503082         329.4278186740      DE        A1 (1)
  152   175          12.6013990836         342.9015018411      PI        B2 (3)
  153   123          12.6013990836         342.9015018411      PI        B1 (2)
  154   212          12.7796605434         347.7522427686      DE        A2 (4)
  155    59          12.7796605434         347.7522427686      DE        A1 (1)
  156    60          12.9612408846         352.6932950504     SG+        A1 (1)
  157   124          13.2607290199         360.8427815248      PI        B1 (2)
  158   176          13.2607290199         360.8427815248      PI        B2 (3)
  159    61          14.2632675992         388.1232431792     SG+        A1 (1)
  160    62          17.6360516229         479.9013623723     SG+        A1 (1)
  161   125          18.9981563534         516.9661164258      PI        B1 (2)
  162   177          18.9981563534         516.9661164259      PI        B2 (3)
  163    63          20.4529689751         556.5535804495     SG+        A1 (1)
  164   213          26.3699422346         717.5626083811      DE        A2 (4)
  165    64          26.3699422346         717.5626083811      DE        A1 (1)
  166   126          26.7971039466         729.1862694996      PI        B1 (2)
  167   178          26.7971039466         729.1862694997      PI        B2 (3)
  168    65          27.3995523501         745.5797239878     SG+        A1 (1)
  169   179          33.6871294442         916.6733949522      PI        B2 (3)
  170   127          33.6871294443         916.6733949530      PI        B1 (2)
  171    66          34.4791380355         938.2250443855     SG+        A1 (1)
  172    67          36.1790285712         984.4814174916     SG+        A1 (1)
  173   214          47.0851319989        1281.2515792604      DE        A2 (4)
  174    68          47.0851319989        1281.2515792604      DE        A1 (1)
  175   128          47.3157956694        1287.5282568355      PI        B1 (2)
  176   180          47.3157956694        1287.5282568355      PI        B2 (3)
  177    69          47.9546230634        1304.9116339817     SG+        A1 (1)
  178    70          63.9694737198        1740.6978752848     SG+        A1 (1)
  179   129          66.5236726072        1810.2011604913      PI        B1 (2)
  180   181          66.5236726072        1810.2011604913      PI        B2 (3)
  181    71          67.5803172759        1838.9539236889     SG+        A1 (1)
  182   182          98.5860394320        2682.6625168723      PH        B2 (3)
  183   130          98.5860394320        2682.6625168723      PH        B1 (2)
  184   215          98.6002530904        2683.0492901801      DE        A2 (4)
  185    72          98.6002530904        2683.0492901801      DE        A1 (1)
  186   131          98.6283271910        2683.8132252952      PI        B1 (2)
  187   183          98.6283271910        2683.8132252952      PI        B2 (3)
  188    73          98.6504692480        2684.4157412962     SG+        A1 (1)
  189   184         103.2862006813        2810.5604066688      PH        B2 (3)
  190   132         103.2862006813        2810.5604066688      PH        B1 (2)
  191    74         103.3094809537        2811.1938950862      DE        A1 (1)
  192   216         103.3094809537        2811.1938950867      DE        A2 (4)
  193   185         103.3527767924        2812.3720347524      PI        B2 (3)
  194   133         103.3527767924        2812.3720347524      PI        B1 (2)
  195    75         103.3620925028        2812.6255281202     SG+        A1 (1)
  196    76         115.0561333381        3130.8365567857      DE        A1 (1)
  197   217         115.0561333381        3130.8365567858      DE        A2 (4)
  198   186         115.2620306732        3136.4393081114      PI        B2 (3)
  199   134         115.2620306732        3136.4393081114      PI        B1 (2)
  200    77         115.5711560624        3144.8510375950     SG+        A1 (1)
  201   187         116.9525764191        3182.4413965584      PI        B2 (3)
  202   135         116.9525764191        3182.4413965587      PI        B1 (2)
  203    78         117.5949078880        3199.9201244276     SG+        A1 (1)
  204    79         122.3679738742        3329.8018529723     SG+        A1 (1)
  205   218         198.5549180384        5402.9540006981      DE        A2 (4)
  206    80         198.5549180384        5402.9540006982      DE        A1 (1)
  207   188         198.6781952160        5406.3085432416      PI        B2 (3)
  208   136         198.6781952160        5406.3085432416      PI        B1 (2)
  209    81         199.0118713285        5415.3883318703     SG+        A1 (1)
  210    82         216.4907453911        5891.0126753892     SG+        A1 (1)
  211   137         224.9750775640        6121.8830910398      PI        B1 (2)
  212   189         224.9750775640        6121.8830910399      PI        B2 (3)
  213    83         225.8064901595        6144.5069779381     SG+        A1 (1)
  214   138         395.4200972024       10759.9278690403      PI        B1 (2)
  215   190         395.4200972024       10759.9278690406      PI        B2 (3)
  216    84         395.9577969718       10774.5594236179     SG+        A1 (1)
  217    85         508.9779766356       13849.9948643888     SG+        A1 (1)
  218    86         895.3246264577       24363.0216780028     SG+        A1 (1)


  VSCF finished.

 @CHECKOUT-I, Total execution time (CPU/WALL):       50.00/       9.96 seconds.
--executable xvscf finished with status     0 in        9.99 seconds (walltime).
 --invoking executable--
/nfs/workspaces/public/cfour_mpi/bin/xvtran
 @GETMEM-I,  Allocated    3814 MB of main memory.
  Full RHF integral transformation
  Transformation of IIII integrals :
  1 pass through the AO integral file was required.
     4515292 AO integrals were read.
     8752257 MO integrals were written to HF2.
  Transformation of IIJJ integrals :
  1 pass through the AO integral file was required.
    10239823 AO integrals were read.
    14544228 MO integrals were written to HF2.
  Transformation of IJIJ integrals :
  1 pass through the AO integral file was required.
    19440869 AO integrals were read.
    27258305 MO integrals were written to HF2.
  Transformation of IJKL integrals :
  1 pass through the AO integral file was required.
    14394616 AO integrals were read.
    18423261 MO integrals were written to HF2.
  Summary of active molecular orbitals: 
------------------------------------------------------------------------
 
  Index      Eigenvalue    Symmetry    Index      Eigenvalue    Symmetry
------------------------------------------------------------------------
     1       -20.6645247        1       110         4.1297709        2
     2       -11.4460831        1       111         4.1781939        2
     3        -1.3935011        1       112         4.8075482        2
     4        -0.7931133        1       113         4.9861841        2
     5        -0.5654696        1       114         5.5633779        2
     6        -0.5634868        2       115         5.9832234        2
     7        -0.5634868        3       116         6.2507542        2
     8         0.0633820        1       117         6.4047963        2
     9         0.0694689        1       118         7.0810504        2
    10         0.1571928        1       119         7.8686834        2
    11         0.2259991        1       120        10.0402700        2
    12         0.2271687        1       121        10.7855260        2
    13         0.2994052        1       122        11.1498382        2
    14         0.3776021        1       123        11.8631919        2
    15         0.5097512        1       124        12.6013991        2
    16         0.5367208        1       125        13.2607290        2
    17         0.5448348        1       126        18.9981564        2
    18         0.7519766        1       127        26.7971039        2
    19         0.7567005        1       128        33.6871294        2
    20         0.8260257        1       129        47.3157957        2
    21         0.8681064        1       130        66.5236726        2
    22         0.8785158        1       131        98.5860394        2
    23         1.1243374        1       132        98.6283272        2
    24         1.4146404        1       133       103.2862007        2
    25         1.5524157        1       134       103.3527768        2
    26         1.6472611        1       135       115.2620307        2
    27         1.7321841        1       136       116.9525764        2
    28         1.8529638        1       137       198.6781952        2
    29         2.0314854        1       138       224.9750776        2
    30         2.0898907        1       139       395.4200972        2
    31         2.1595676        1       140         0.0442914        3
    32         2.2883058        1       141         0.0964758        3
    33         2.3282659        1       142         0.1705330        3
    34         2.4976021        1       143         0.3015819        3
    35         2.6703663        1       144         0.3970578        3
    36         2.8338062        1       145         0.6259652        3
    37         3.3544683        1       146         0.7425848        3
    38         3.7022741        1       147         0.7992311        3
    39         3.8984708        1       148         0.8959576        3
    40         4.2112366        1       149         1.0395549        3
    41         4.2168078        1       150         1.4330454        3
    42         4.2973232        1       151         1.5677734        3
    43         4.3828237        1       152         1.6699525        3
    44         4.9590681        1       153         2.0642288        3
    45         5.0881306        1       154         2.2324537        3
    46         5.3531286        1       155         2.2794478        3
    47         5.8686212        1       156         2.2898441        3
    48         6.2057125        1       157         2.5395153        3
    49         6.2202943        1       158         2.6820833        3
    50         6.4596937        1       159         3.6272095        3
    51         6.5351259        1       160         4.0606327        3
    52         6.7074998        1       161         4.1297709        3
    53         7.4001518        1       162         4.1781939        3
    54         8.2776498        1       163         4.8075482        3
    55         9.9582441        1       164         4.9861841        3
    56        10.6190861        1       165         5.5633779        3
    57        10.8321563        1       166         5.9832234        3
    58        11.0191079        1       167         6.2507542        3
    59        11.4714380        1       168         6.4047963        3
    60        12.1062503        1       169         7.0810504        3
    61        12.7796605        1       170         7.8686834        3
    62        12.9612409        1       171        10.0402700        3
    63        14.2632676        1       172        10.7855260        3
    64        17.6360516        1       173        11.1498382        3
    65        20.4529690        1       174        11.8631919        3
    66        26.3699422        1       175        12.6013991        3
    67        27.3995524        1       176        13.2607290        3
    68        34.4791380        1       177        18.9981564        3
    69        36.1790286        1       178        26.7971039        3
    70        47.0851320        1       179        33.6871294        3
    71        47.9546231        1       180        47.3157957        3
    72        63.9694737        1       181        66.5236726        3
    73        67.5803173        1       182        98.5860394        3
    74        98.6002531        1       183        98.6283272        3
    75        98.6504692        1       184       103.2862007        3
    76       103.3094810        1       185       103.3527768        3
    77       103.3620925        1       186       115.2620307        3
    78       115.0561333        1       187       116.9525764        3
    79       115.5711561        1       188       198.6781952        3
    80       117.5949079        1       189       224.9750776        3
    81       122.3679739        1       190       395.4200972        3
    82       198.5549180        1       191         0.2259991        4
    83       199.0118713        1       192         0.5448348        4
    84       216.4907454        1       193         0.7567005        4
    85       225.8064902        1       194         0.8785158        4
    86       395.9577970        1       195         1.5524157        4
    87       508.9779766        1       196         1.7321841        4
    88       895.3246265        1       197         2.0898907        4
    89         0.0442914        2       198         2.1595676        4
    90         0.0964758        2       199         2.3282659        4
    91         0.1705330        2       200         2.8338062        4
    92         0.3015819        2       201         3.7022741        4
    93         0.3970578        2       202         4.2112366        4
    94         0.6259652        2       203         4.2973232        4
    95         0.7425848        2       204         4.9590681        4
    96         0.7992311        2       205         5.8686212        4
    97         0.8959576        2       206         6.2202943        4
    98         1.0395549        2       207         6.5351259        4
    99         1.4330454        2       208         6.7074998        4
   100         1.5677734        2       209        10.6190861        4
   101         1.6699525        2       210        11.0191079        4
   102         2.0642288        2       211        12.1062503        4
   103         2.2324537        2       212        12.7796605        4
   104         2.2794478        2       213        26.3699422        4
   105         2.2898441        2       214        47.0851320        4
   106         2.5395153        2       215        98.6002531        4
   107         2.6820833        2       216       103.3094810        4
   108         3.6272095        2       217       115.0561333        4
   109         4.0606327        2       218       198.5549180        4
------------------------------------------------------------------------
  -20.6645246851995       -11.4460831361537       -1.39350107788308     
 -0.793113280730302      -0.565469585609432      -0.563486826264882     
 -0.563486826264846       6.338199516681146E-002  6.946889573792854E-002
  0.157192805983340       0.225999076598808       0.227168670792613     
  0.299405248879481       0.377602119431137       0.509751183785152     
  0.536720771214205       0.544834785208897       0.751976599224863     
  0.756700537166609       0.826025699244565       0.868106430028691     
  0.878515831068367        1.12433740259474        1.41464041961847     
   1.55241567308870        1.64726113808134        1.73218410195129     
   1.85296384020797        2.03148543294858        2.08989071813441     
   2.15956757550320        2.28830580646386        2.32826587108879     
   2.49760207812987        2.67036633596199        2.83380624497057     
   3.35446833080819        3.70227413070579        3.89847076532024     
   4.21123664594112        4.21680782981349        4.29732320834483     
   4.38282367211259        4.95906814906532        5.08813060329460     
   5.35312861992415        5.86862122635452        6.20571246369633     
   6.22029434684708        6.45969371270282        6.53512590281896     
   6.70749982113672        7.40015184696280        8.27764980576723     
   9.95824406583545        10.6190860572838        10.8321563463972     
   11.0191078833863        11.4714380090219        12.1062503082456     
   12.7796605434119        12.9612408845935        14.2632675992198     
[...]
 Convergence information after    12 iterations: 
 Largest element of residual vector : -0.23939304E-05.
 Largest element of DIIS residual   : -0.12548954E-05.
 Convergence information after    13 iterations: 
 Largest element of residual vector : -0.96919528E-06.
 Largest element of DIIS residual   : -0.38561257E-06.
 Convergence information after    14 iterations: 
 Largest element of residual vector : -0.49264390E-06.
 Largest element of DIIS residual   : -0.24483099E-06.
 Convergence information after    15 iterations: 
 Largest element of residual vector : -0.16577279E-06.
 Largest element of DIIS residual   : -0.10127095E-06.
 Convergence information after    16 iterations: 
 Largest element of residual vector : -0.98044929E-07.
 Largest element of DIIS residual   : -0.44480221E-07.
 Perturbed amplitude equations converged in    16 iterations.
  Dominant contributions to perturbed wavefunction:
    7    7  140   28  -0.2308796997 ABAB
    7    7   28  140  -0.2308796997 ABAB
    7    7  140   39  -0.1963313336 ABAB
    7    7   39  140  -0.1963313336 ABAB
    7    7  141   28  -0.1797456600 ABAB
    7    7   28  141  -0.1797456600 ABAB
    7    7  141   39  -0.1581270192 ABAB
    7    7   39  141  -0.1581270192 ABAB
    7    7  140   54  -0.1557143409 ABAB
    7    7   54  140  -0.1557143409 ABAB
    7    6   28   89  -0.1485749459 ABAB
    6    7   89   28  -0.1485749459 ABAB
    7    7  140   20  -0.1392344911 ABAB
    7    7   20  140  -0.1392344911 ABAB
    7    7  140   45   0.1301131697 ABAB
    7    7   45  140   0.1301131697 ABAB
    7    6   39   89  -0.1267030782 ABAB
    6    7   89   39  -0.1267030782 ABAB
    7    7  141   54  -0.1263764038 ABAB
    7    7   54  141  -0.1263764038 ABAB
  norm of converged amps    2.00578775401855     
 Starting iterative solution of the perturbed Lambda equations.
 The DIIS procedure is used to accelerate convergence.
 Convergence criterion is 10**(-7).
 Maximum number of iterations is 100.
 Convergence information after     1 iterations: 
 Largest element of residual vector :  0.62086474E-01.
 Largest element of DIIS residual   :  0.62086474E-01.
 Convergence information after     2 iterations: 
 Largest element of residual vector : -0.11956363E-01.
 Largest element of DIIS residual   :  0.77265313E-02.
 Convergence information after     3 iterations: 
 Largest element of residual vector :  0.48347267E-02.
 Largest element of DIIS residual   :  0.43405455E-02.
 Convergence information after     4 iterations: 
 Largest element of residual vector :  0.31042944E-02.
 Largest element of DIIS residual   :  0.26845142E-02.
 Convergence information after     5 iterations: 
 Largest element of residual vector :  0.21484794E-02.
 Largest element of DIIS residual   :  0.12048088E-02.
 Convergence information after     6 iterations: 
 Largest element of residual vector :  0.83767506E-03.
 Largest element of DIIS residual   :  0.32543072E-03.
 Convergence information after     7 iterations: 
 Largest element of residual vector :  0.30001611E-03.
 Largest element of DIIS residual   :  0.13907547E-03.
 Convergence information after     8 iterations: 
 Largest element of residual vector :  0.89021958E-04.
 Largest element of DIIS residual   :  0.56512256E-04.
 Convergence information after     9 iterations: 
 Largest element of residual vector :  0.34669338E-04.
 Largest element of DIIS residual   : -0.93913094E-05.
 Convergence information after    10 iterations: 
 Largest element of residual vector : -0.67427566E-05.
 Largest element of DIIS residual   : -0.53309057E-05.
 Convergence information after    11 iterations: 
 Largest element of residual vector : -0.30709382E-05.
 Largest element of DIIS residual   : -0.17319126E-05.
 Convergence information after    12 iterations: 
 Largest element of residual vector : -0.18151409E-05.
 Largest element of DIIS residual   : -0.13658895E-05.
 Convergence information after    13 iterations: 
 Largest element of residual vector : -0.10059190E-05.
 Largest element of DIIS residual   : -0.69073246E-06.
 Convergence information after    14 iterations: 
 Largest element of residual vector : -0.67496437E-06.
 Largest element of DIIS residual   : -0.44744978E-06.
 Convergence information after    15 iterations: 
 Largest element of residual vector : -0.30844764E-06.
 Largest element of DIIS residual   : -0.18642459E-06.
 Convergence information after    16 iterations: 
 Largest element of residual vector : -0.16592565E-06.
 Largest element of DIIS residual   : -0.64805574E-07.
 Perturbed Lambda equations converged in    16 iterations.
  Dominant contributions to perturbed wavefunction:
    7    7  140   28  -0.2114619829 ABAB
    7    7   28  140  -0.2114619829 ABAB
    7    7  140   39  -0.1779004998 ABAB
    7    7   39  140  -0.1779004998 ABAB
    7    7  141   28  -0.1633399994 ABAB
    7    7   28  141  -0.1633399994 ABAB
    7    7  140   54  -0.1440914173 ABAB
    7    7   54  140  -0.1440914173 ABAB
    7    7  141   39  -0.1421844500 ABAB
    7    7   39  141  -0.1421844500 ABAB
    7    6   28   89  -0.1336803195 ABAB
    6    7   89   28  -0.1336803195 ABAB
    7    7  140   20  -0.1250662210 ABAB
    7    7   20  140  -0.1250662210 ABAB
    7    7  140   45   0.1170150121 ABAB
    7    7   45  140   0.1170150121 ABAB
    7    7  141   54  -0.1161782626 ABAB
    7    7   54  141  -0.1161782626 ABAB
    7    6   39   89  -0.1127995756 ABAB
    6    7   89   39  -0.1127995756 ABAB
        The DBOC first-order density matrix is being calculated 
             (Symmetry block 3, perturbation   2)
 term   4.53929429935194     
 final tnorm  0.857681355601590     
  norm contr. I: |<0|L dT/dx|0>|^2   0.000000000000000E+000
  norm contr. II: <0|[nabla(1+L)e-T][nabla e^T]|0>   4.53929429935194     
  total norm contribution   4.53929429935194     
 oo  8.486089823566832E-003
 vv  -34.0395361671990     
 vo  6.450088111095002E-002
  Correlated perturbed 1-el contribution to DBOC  -33.9665491962644       cm**-1
  SUM_I |dc_I/dx|^2 contribution to DBOC   17.0891248596498       cm**-1
 
 
  The total diagonal Born-Oppenheimer correction (DBOC) is:      0.0041388797 a.u.
  The total diagonal Born-Oppenheimer correction (DBOC) is:        908.379099 cm-1
 
 Total CC energy including DBOC  -113.215401309695     
 First-order density matrix is being calculated  (Symmetry block 3, perturbation   2)
 Calculation of the contributions of <pq||rs> to dI(i,j)/dx required   2.3 seconds.
 Calculation of the contributions of <pq||rs> to dI(a,b)/dx required  15.4 seconds.
 Calculation of the contributions of <pq||rs> to dI(i,a)/dx required   9.3 seconds.
 First-order Z-vector equations are solved for 1 perturbation.
 Convergence reached after  19 iterations.
        U*G(pq,rs) contribution is being calculated
             (Symmetry block 3, perturbation   2)

 CCSD contribution to force constants 

        0.0000000000        0.0000000000        0.0000000000
        0.0000000000        0.0000000000        0.0000000000
        0.0000000000        0.0000000000        0.0000000000
        0.0000000000        0.0000000000        0.0000000000
        0.0000000000        0.0000000000        0.0000000000
        0.0000000000        0.0000000000        0.0000000000
        0.0000000000        0.0000000000        0.0000000000
        0.0000000000        0.0000000000        0.0000000000
        0.0000000000        0.0000000000        0.0000000000
        0.0000000000        0.0000000000        0.0000000000
        0.0000000000        0.0000000000        0.0000000000
        0.0000000000        1.2901039933       -1.2901039933

 CCSD contribution to dipole derivatives 

        0.0000000000        0.0000000000        0.0000000000
        0.0000000000        0.0000000000        0.0000000000
        0.0000000000        0.0000000000        0.0000000000
        0.0000000000        0.0000000000       -0.0524487931
        0.0000000000        0.0000000000        0.0000000000
        0.0000000000        0.0000000000        0.0000000000
 @CHECKOUT-I, Total execution time (CPU/WALL):     1069.54/     240.89 seconds.
--executable xsdcc finished with status     0 in      240.92 seconds (walltime).
 --invoking executable--
/nfs/workspaces/public/cfour_mpi/bin/xanti
 @GETMEM-I,  Allocated    3814 MB of main memory.
 CCSD MO derivative gammas will be sorted to Mulliken order.
 @CHECKOUT-I, Total execution time (CPU/WALL):       10.89/      19.82 seconds.
--executable xanti finished with status     0 in       19.85 seconds (walltime).
 --invoking executable--
/nfs/workspaces/public/cfour_mpi/bin/xbcktrn
 @GETMEM-I,  Allocated    3814 MB of main memory.
 CCSD MO derivative gammas will be transformed to the AO basis.
 @CHECKOUT-I, Total execution time (CPU/WALL):       24.60/       3.92 seconds.
--executable xbcktrn finished with status     0 in        3.94 seconds (walltime).
 --invoking executable--
/nfs/workspaces/public/cfour_mpi/bin/xvdint
 @GETMEM-I,  Allocated    3814 MB of main memory.
 One- and two-electron integral derivatives are calculated
 for RHF-CC/MBPT hessians and dipole derivatives.
 Spherical gaussians are used.
  magnet F F
                    8722  records have been written to the Sort file.
  Total length of Sort file :             178609116  words.
 Evaluation of 2el integral derivatives

                      Two-electron integral gradient
                      ------------------------------

                         C #1 z     0.0000000000
                         O #2 z     0.0000000000


 C #1       0.0000000000           -0.1446442701            0.0000000000
 O #2       0.0000000000            0.1446442701            0.0000000000


 Evaluation of 2e integral derivatives required  315.03 seconds.
  contribution to Hessian
        0.0000000000        0.0000000000        0.0000000000
        0.0000000000       -0.1446442701        0.1446442701
 @CHECKOUT-I, Total execution time (CPU/WALL):      315.03/      66.18 seconds.
--executable xvdint finished with status     0 in       66.20 seconds (walltime).
 --invoking executable--
/nfs/workspaces/public/cfour_mpi/bin/xanti
 @GETMEM-I,  Allocated    3814 MB of main memory.
 CCSD MO gammas will be sorted to Mulliken order.
 @CHECKOUT-I, Total execution time (CPU/WALL):       10.56/       9.24 seconds.
--executable xanti finished with status     0 in        9.26 seconds (walltime).
 --invoking executable--
/nfs/workspaces/public/cfour_mpi/bin/xbcktrn
 @GETMEM-I,  Allocated    3814 MB of main memory.
 CCSD MO gammas will be transformed to the AO basis.
 @CHECKOUT-I, Total execution time (CPU/WALL):       27.09/       4.25 seconds.
--executable xbcktrn finished with status     0 in        4.27 seconds (walltime).
 --invoking executable--
/nfs/workspaces/public/cfour_mpi/bin/xvdint
 @GETMEM-I,  Allocated    3814 MB of main memory.
 One- and two-electron integral derivatives are calculated
 for RHF-CC/MBPT hessians and dipole derivatives.
 Spherical gaussians are used.
  magnet F F

                     Kinetic energy integral gradient
                     --------------------------------

                         C #1 z    -0.9532190538
                         O #2 z     0.9532190538


 C #1       0.0000000000            0.0000000000           -0.9532190538
 O #2       0.0000000000            0.0000000000            0.9532190538



                   Nuclear attraction integral gradient
                   ------------------------------------

                         C #1 z    18.5138463902
                         O #2 z   -18.5138463902


 C #1       0.0000000000            0.0000000000           18.5138463902
 O #2       0.0000000000            0.0000000000          -18.5138463902



                      Reorthonormalization gradient
                      -----------------------------

                         C #1 z     0.0000000000
                         O #2 z     0.0000000000


 C #1       0.0000000000            0.0000000000            0.0000000000
 O #2       0.0000000000            0.0000000000            0.0000000000



                     Kinetic energy integral Hessian
                     -------------------------------


           Symmetry 1

           C #1 z      O #2 z

 C #1 z    0.917699
 O #2 z   -0.917699    0.917699


           Symmetry 2

           C #1 x      O #2 x

 C #1 x   -0.960720
 O #2 x    0.960720   -0.960720


           Symmetry 3

           C #1 y      O #2 y

 C #1 y   -0.960720
 O #2 y    0.960720   -0.960720




           C #1 x      C #1 y      C #1 z      O #2 x      O #2 y      O #2 z

 C #1 x   -0.960720
 C #1 y    0.000000   -0.960720
 C #1 z    0.000000    0.000000    0.917699

 O #2 x    0.960720    0.000000    0.000000   -0.960720
 O #2 y    0.000000    0.960720    0.000000    0.000000   -0.960720
 O #2 z    0.000000    0.000000   -0.917699    0.000000    0.000000    0.917699




                   Nuclear attraction integral Hessian
                   -----------------------------------


           Symmetry 1

           C #1 z      O #2 z

 C #1 z  -11.409718
 O #2 z   11.409718  -11.409718


           Symmetry 2

           C #1 x      O #2 x

 C #1 x   12.871755
 O #2 x  -12.871755   12.871755


           Symmetry 3

           C #1 y      O #2 y

 C #1 y   12.871755
 O #2 y  -12.871755   12.871755




           C #1 x      C #1 y      C #1 z      O #2 x      O #2 y      O #2 z

 C #1 x   12.871755
 C #1 y    0.000000   12.871755
 C #1 z    0.000000    0.000000  -11.409718

 O #2 x  -12.871755    0.000000    0.000000   12.871755
 O #2 y    0.000000  -12.871755    0.000000    0.000000   12.871755
 O #2 z    0.000000    0.000000   11.409718    0.000000    0.000000  -11.409718




                Highest order reorthonormalization Hessian
                ------------------------------------------


           Symmetry 1

           C #1 z      O #2 z

 C #1 z    0.000000
 O #2 z    0.000000    0.000000


           Symmetry 2

           C #1 x      O #2 x

 C #1 x    0.000000
 O #2 x    0.000000    0.000000


           Symmetry 3

           C #1 y      O #2 y

 C #1 y    0.000000
 O #2 y    0.000000    0.000000




           C #1 x      C #1 y      C #1 z      O #2 x      O #2 y      O #2 z




                Electronic contributions to dipole moment
                -----------------------------------------

                               au             Debye

                    z      0.20499454      0.52104424

  Conversion factor used: 1 a.u. =   2.54174691 Debye 



   Electronic contributions to static part of dipole moment derivatives
   --------------------------------------------------------------------


                     Total dipole moment derivatives
                     -------------------------------


           Symmetry 1
                              Ez

               C #1 z    -5.65904006
               O #2 z    -8.34095994

           Symmetry 2
                              Ex

               C #1 x    -5.69652695
               O #2 x    -8.30347305

           Symmetry 3
                              Ey

               C #1 y    -5.69652695
               O #2 y    -8.30347305



                       Ex          Ey          Ez

      C #1    x   -5.696527    0.000000    0.000000
      C #1    y    0.000000   -5.696527    0.000000
      C #1    z    0.000000    0.000000   -5.659040

      O #2    x   -8.303473    0.000000    0.000000
      O #2    y    0.000000   -8.303473    0.000000
      O #2    z    0.000000    0.000000   -8.340960

 Evaluation of 1e integral derivatives required    1.65 seconds.
                    8815  records have been written to the Sort file.
  Total length of Sort file :             180513570  words.
 Evaluation of 2el integral derivatives

                      Two-electron integral gradient
                      ------------------------------

                         C #1 z    -9.3370878493
                         O #2 z     9.3370878493


 C #1       0.0000000000            0.0000000000           -9.3370878493
 O #2       0.0000000000            0.0000000000            9.3370878493


 Evaluation of 2e integral derivatives required  700.18 seconds.

                            Molecular gradient
                            ------------------

                         C #1 z     0.6757915693
                         O #2 z    -0.6757915693


 C #1       0.0000000000            0.0000000000            0.6757915693
 O #2       0.0000000000            0.0000000000           -0.6757915693


  Molecular gradient norm 0.956E+00

                            Molecular hessian
                            -----------------


           Symmetry 1

           C #1 z      O #2 z

 C #1 z   37.396008
 O #2 z  -37.396008   37.396008


           Symmetry 2

           C #1 x      O #2 x

 C #1 x   -0.856122
 O #2 x    0.856122   -0.856122


           Symmetry 3

           C #1 y      O #2 y

 C #1 y   -0.856122
 O #2 y    0.856122   -0.856122




           C #1 x      C #1 y      C #1 z      O #2 x      O #2 y      O #2 z

 C #1 x   -0.856122
 C #1 y    0.000000   -0.856122
 C #1 z    0.000000    0.000000   37.396008

 O #2 x    0.856122    0.000000    0.000000   -0.856122
 O #2 y    0.000000    0.856122    0.000000    0.000000   -0.856122
 O #2 z    0.000000    0.000000  -37.396008    0.000000    0.000000   37.396008




                           Total dipole moment
                           -------------------

                               au             Debye

                    z      0.20224597      0.51405808

  Conversion factor used: 1 a.u. =   2.54174691 Debye 



                     Total dipole moment derivatives
                     -------------------------------


           Symmetry 1
                              Ez

               C #1 z     0.69037803
               O #2 z    -0.69037803

           Symmetry 2
                              Ex

               C #1 x     0.08216243
               O #2 x    -0.08216243

           Symmetry 3
                              Ey

               C #1 y     0.08216243
               O #2 y    -0.08216243



                       Ex          Ey          Ez

      C #1    x    0.082162    0.000000    0.000000
      C #1    y    0.000000    0.082162    0.000000
      C #1    z    0.000000    0.000000    0.690378

      O #2    x   -0.082162    0.000000    0.000000
      O #2    y    0.000000   -0.082162    0.000000
      O #2    z    0.000000    0.000000   -0.690378

 @CHECKOUT-I, Total execution time (CPU/WALL):      701.83/     117.65 seconds.
--executable xvdint finished with status     0 in      117.67 seconds (walltime).
 --invoking executable--
/nfs/workspaces/public/cfour_mpi/bin/xjoda
  @GTFLGS-I, Hessian will be transformed to curvilinear coordinates.
  @GTFLGS-I, Hessian will be transformed to curvilinear coordinates.
  igrd and ihes are                      0                     1
  gradient from JOBARC 
   0.000000000000000   0.000000000000000   0.675791569313482
   0.000000000000000   0.000000000000000  -0.675791569313482
 
  @PROJFCM-I, Projecting force constant matrix onto totally symmetric subspace.
  Largest difference between matrix elements of symmetrized
  and unsymmetrized FCM :    -0.5232481115E-12.
  read isotopes from ZMAT file 
 
  Summary of diagonal Born-Oppenheimer correction at the correlated level
  The total diagonal Born-Oppenheimer correction (DBOC) is:      0.0041388797 a.u.
  The total diagonal Born-Oppenheimer correction (DBOC) is:        908.379099 cm-1
  The total diagonal Born-Oppenheimer correction (DBOC) is:            10.867 kJ/mole
  hellooooooo 
  readis is  F
 
 @CHECKOUT-I, Total execution time (CPU/WALL):        0.01/       0.04 seconds.
--executable xjoda finished with status     0 in        0.06 seconds (walltime).
  The final electronic energy is      -113.215401309695451 a.u. 
  This computation required                         2579.38 seconds (walltime).
