 --invoking executable--
/nfs/workspaces/public/cfour_mpi/bin/xjoda


   *************************************************************************
         <<<     CCCCCC     CCCCCC   |||     CCCCCC     CCCCCC   >>>
       <<<      CCC        CCC       |||    CCC        CCC         >>>
      <<<      CCC        CCC        |||   CCC        CCC            >>>
    <<<        CCC        CCC        |||   CCC        CCC              >>>
      <<<      CCC        CCC        |||   CCC        CCC            >>>
       <<<      CCC        CCC       |||    CCC        CCC         >>>
         <<<     CCCCCC     CCCCCC   |||     CCCCCC     CCCCCC   >>>
   *************************************************************************

     ****************************************************************
     * CFOUR Coupled-Cluster techniques for Computational Chemistry *
     ****************************************************************
 

   Department of Chemistry                Institut fuer Physikalische Chemie
   University of Florida                  Universitaet Mainz
   Gainesville, FL 32611, USA             D-55099 Mainz, Germany

   Department of Chemistry                Fakultaet fuer Chemie und Biowiss.
   Johns Hopkins University               Karlsruher Institut fuer Technologie
   Baltimore, MD 21218, USA               D-76131 Karlsruhe, Germany

   Department of Chemistry                Department of Physical Chemistry
   Southern Methodist University          Eotvos Lorand University
   Dallas, TX 75275, USA                  H-1053 Budapest, Hungary

 
                       Version 2.1
 
                     vincent.theory.phys.ucl.ac.uk                     
                     Tue 25 Feb 20:04:52 GMT 2025                      
                     integer*8 version is running
 
********************************************************************************
*                          Input from ZMAT file                                *
********************************************************************************
Carbon Monoxide DBOC calculation                                                
C                                                                               
O 1 r                                                                           
                                                                                
r=1.5827586206896551                                                            
                                                                                
                                                                                
*CFOUR(CALC=CCSD,BASIS=AUG-PCVQZ,SCF_CONV=10                                    
CC_CONV=14,DBOC=ON,MEMORY=500000000                                             
ZFIELD=200)                                                                     
                                                                                
%isotopes                                                                       
12                                                                              
16                                                                              
********************************************************************************
  @GTFLGS-I, Hessian will be transformed to curvilinear coordinates.
    -------------------------------------------------------------------
                    CFOUR Control Parameters 
    -------------------------------------------------------------------
        External           Internal           Value            Units
          Name               Name
    -------------------------------------------------------------------
       ABCDTYPE             IABCDT         STANDARD    [  0]    ***   
       ANHARMONIC           IANHAR         OFF         [  0]    ***   
       ANH_ALGORIT          IANALG         STANDARD    [  0]    ***   
       ANH_DERIVAT          IANDER         SECOND      [  1]    ***   
       ANH_MODE             ANHMOD         VIBRATION   [  0]    ***   
       ANH_STEPSIZ          ICUBST             50000          x 10-6  
       ANH_SYMMETR          IANHSM         ABELIAN     [  0]    ***   
       AO_LADDERS           IAOLAD         SINGLEPASS  [  1]    ***   
       AV_SCF               IAVSCF         OFF         [  0]    ***   
       BASIS                IBASIS         AUG-PCVQZ   [ 52]    ***   
       BOTHVECTORS          BOTHVC         OFF         [  0]    ***   
       BOX_POTENT           IPIAB          OFF         [  0]    ***   
       BREIT                IBREIT         OFF         [  0]    ***   
       BRUCK_CONV           IBRTOL          10D-  4             ***   
       BRUECKNER            IBRKNR         OFF         [  0]    ***   
       BUFFERSIZE           IBUFFS              4096            ***   
       CACHE_RECS           ICHREC             10               ***   
       CALCLEVEL            ICLLVL         CCSD        [ 10]    ***   
       CCORBOPT             ICCORB         OFF         [  0]  x 0.01  
       CC_CONV              ICCCNV          10D- 14             ***   
       CC_EXPORDER          ICCEOR              5               ***   
       CC_EXTRAPOL          ICCEXT         DIIS        [  1]    ***   
       CC_GUESS             ICCGES         MP2         [  0]    ***   
       CC_MAXCYC            ICCCYC            100              cycles 
       CC_PROGRAM           ICCPRO         VCC         [  0]    ***   
       CHARGE               ICHRGE              0               ***   
       CHOLESKY             ICHOLE         OFF         [  0]    ***   
       CIS_CONV             ICISTL              5               ***   
       COMM_SIZE            IPSIZE            ***               ***   
       CONSTANT             ICONST         OLD         [  1]    ***   
       CONTINUUM            ICONTU         NONE        [  0]    ***   
       CONTRACTION          ICNTYP         GENERAL     [  1]    ***   
       COORDINATES          ICOORD         INTERNAL    [  0]    ***   
       CPHF_CONVER          ICPHFT          10D- 16             ***   
       CPHF_MAXCYC          ICPHFC             64              cycles 
       CUBIC                ICUBIC         OFF         [  0]    ***   
       CURVILINEAR          ICURVY         ON          [  1]    ***   
       DBOC                 IDBOC          ON          [  1]    ***   
       DCT                  IDCT           OFF         [  0]    ***   
       DERIV_LEV            IDRLVL         SECOND      [  2]    ***   
       DEVMEM_SIZE          IDVMEM          50000000           MByte  
       DIAG_MRCC            IEOMST          10D-  0             ***   
       DIFF_TYPE            IDIFTY         RELAXED     [  0]    ***   
       DIRECT               IDIRCT         OFF         [  0]    ***   
       DROPMO               IDRPMO      NONE         
       ECP                  IECP           OFF         [  0]    ***   
       EIGENVECTOR          IVEC                1               ***   
       EL_ANHARM            IELANH         OFF         [  0]    ***   
       EOMFOLLOW            IEOMSR         ENERGY      [  0]    ***   
       EOMIP                IEOMIP         OFF         [  0]    ***   
       EOMLEVEL             HBARFM         SAME        [  0]    ***   
       EOM_MRCC             IMRCCE         NEW         [  1]    ***   
       EOM_NONIT            EOMNON         OFF         [  0]    ***   
       EOM_NSING            IEOMSI          10D-  0             ***   
       EOM_NSTATES          IMRCCD         DAVIDSON    [  0]    ***   
       EOM_NTRIP            IEOMTR          10D-  0             ***   
       EOM_ORDER            IEXORD         ENERGY      [  0]    ***   
       EOM_PROPSTA          IEOMST              0               ***   
       ESTATE_CONV          IEXTOL          10D-  5             ***   
       ESTATE_DIAG          IEXDIG         ITERATIVE   [  0]    ***   
       ESTATE_LOCK          IESLOC         ON          [  1]    ***   
       ESTATE_MAXC          IEXMXC             40               ***   
       ESTATE_PROP          IEXPRP         OFF         [  0]    ***   
       EVAL_HESS            IRECAL              0            # of cyc.
       EXCITATION           IEXCIT              0               ***   
       EXCITE               IEXCIT         NONE        [  0]    ***   
       EXTERN_POT           IEXPOT         OFF         [  0]    ***   
       FCGRADNEW            IFCGNW         OFF         [  0]    ***   
       FC_FIELD             IFINFC              0             x 10-6  
       FD_CALTYPE           IFDCAL         GRADONLY    [  0]    ***   
       FD_PROJECT           IFDPRJ         OFF         [  1]    ***   
       FD_STEPSIZE          IDISFD              0            10-4 bohr
       FD_USEGROUP          IFDGRP         FULL        [  0]    ***   
       FILE_RECSIZ          IFLREC              4096           words  
       FINITE_PERT          IFIPER              0             x 10-6  
       FIXGEOM              IFIXGM         OFF         [  0]    ***   
       FOCK                 IFOCK          AO          [  1]    ***   
       FREQ_ALGORI          IVIALG         STANDARD    [  0]    ***   
       FROZEN_CORE          IFROCO         OFF         [  0]    ***   
       GAMMA_ABCD           IGABCD         STORE       [  0]    ***   
       GAMMA_ABCI           IGABCI         STORE       [  0]    ***   
       GENBAS_1             IGNBS1              0               ***   
       GENBAS_2             IGNBS2              0               ***   
       GENBAS_3             IGNBS3              0               ***   
       GENBAS_4             IGNBS4              0               ***   
       GEO_CONV             ICONTL              5              H/bohr 
       GEO_MAXCYC           IOPTCY             50               ***   
       GEO_MAXSTEP          IMXSTP            300            millibohr
       GEO_METHOD           INR            SINGLE_POINT[  5]    ***   
       GIAO                 IGIAO          OFF         [  1]    ***   
       GIMIC                IGIMIC         OFF         [  0]    ***   
       GRID                 IGRID          OFF         [  0]    ***   
       GRID_ALGO            IGALGO         SERIAL      [  0]    ***   
       GUESS                IGUESS         MOREAD      [  0]    ***   
       HBAR                 IHBAR          OFF         [  0]    ***   
       HESS_TYPE            IHESTP         SCF         [  0]    ***   
       HF2_FILE             IHF2Fl         USE         [  1]    ***   
       HFSTABILITY          ISTABL         OFF         [  0]    ***   
       INCORE               INCORE         OFF         [  0]    ***   
       INPUT_MRCC           IMRCC          ON          [  1]    ***   
       INTEGRALS            INTTYP         VMOL        [  1]    ***   
       JODA_PRINT           IJPRNT              0               ***   
       KEYWORD_OUT          IDMPKW         NO          [  0]    ***   
       LINDEP_TOL           ILINDP              8               ***   
       LINEQ_CONV           IZTACN          10D-  7           cycles  
       LINEQ_EXPOR          ILMAXD              5               ***   
       LINEQ_MAXCY          ILMAXC            100               ***   
       LINEQ_TYPE           ILTYPE         DIIS        [  1]    ***   
       LOCK_ORBOCC          ILOCOC         OFF         [  0]    ***   
       MEMORY_SIZE          IMEMSZ         500000000           words  
       MEM_UNIT             IMEMU          INTEGERWORDS[  0]    ***   
       MRCC                 IMRCCC         OFF         [  0]    ***   
       MULTIPLICTY          IMULTP              1               ***   
       NACOUPLING           IVCOUP         OFF         [  0]    ***   
       NEGEVAL              IDIE           ABORT       [  0]    ***   
       NEWNORM              INEWNO         OFF         [  0]    ***   
       NON-HF               INONHF         OFF         [  0]    ***   
       NTOP_TAMP            ITOPT2             15               ***   
       NUC_MODEL            INUCMO         POINT       [  0]    ***   
       OCCUPATION           IOCCU   ESTIMATED BY SCF 
       OPEN-SHELL           IOPEN          SPIN-ORBITAL[  0]    ***   
       OPTVIB               IOPTVB         OFF         [  0]    ***   
       ORBITALS             IORBTP         STANDARD    [  0]    ***   
       PARALLEL             IPARAL         ON          [  1]    ***   
       PARA_INT             IPINTS         ON          [  1]    ***   
       PARA_PRINT           IPPRIN              0               ***   
       PERT_ORB             IPTORB         STANDARD    [  0]    ***   
       POINTS               IGRDFD              0               ***   
       PRINT                IPRNT               0               ***   
       PROPS                IPROPS         OFF         [  0]    ***   
       PROP_INTEGR          IINTYP         INTERNAL    [  0]    ***   
       PSI                  IPSI           OFF         [  0]    ***   
       QC_ALG               IQCALG         FLM         [  0]    ***   
       QC_LINALG            IQCLIN         TRIDIAG     [  2]    ***   
       QC_MAXCYC            IQCMAX          10D-100           cycles  
       QC_MAXSCFCY          IQCMSC          10D- 15           cycles  
       QC_RTRUST            IQCRTR          10D-  0           x 10-3  
       QC_SKIPSCF           IQCSKI         OFF         [  0]    ***   
       QC_START             IQCSTA          10D-  1             ***   
       QRHFGUESS            IQGUES         OFF         [  0]    ***   
       QUARTIC              IQUART         OFF         [  0]    ***   
       RAMAN_INT            IRAMIN         OFF         [  0]    ***   
       RAMAN_ORB            IRAMRE         UNRELAXED   [  0]    ***   
       RDO                  IRDOFM         ON          [  1]    ***   
       REDUCE_REPR          REDREP         Ir          [  0]    ***   
       REFERENCE            IREFNC         RHF         [  0]    ***   
       RELATIVIST           IRELAT         OFF         [  0]    ***   
       RELAX_DENS           IRDENS         ON          [  1]    ***   
       RESET_FLAGS          IRESET         OFF         [  0]    ***   
       RESTART_CC           ICCRES         OFF         [  0]    ***   
       ROT_EVEC             ROTVEC              0               ***   
       SAVE_INTS            ISVINT         OFF         [  0]    ***   
       SCALE_ON             ISTCRT              0               ***   
       SCF_CONV             ISCFCV          10D- 10             ***   
       SCF_DAMPING          IDAMP               0             x 10-3  
       SCF_EXPORDE          IRPPOR              6               ***   
       SCF_EXPSTAR          IRPPLS              8               ***   
       SCF_EXTRAPO          IRPP           ON          [  1]    ***   
       SCF_MAXCYC           ISCFCY            150              cycles 
       SCF_NOSTOP           ISCFST         OFF         [  0]    ***   
       SCF_PRINT            ISCFPR              0               ***   
       SCF_PROG             ISCFPR         SCF         [  0]    ***   
       SD_FIELD             IFINSD              0             x 10-6  
       SOPERT               IPERSO         OFF         [  0]    ***   
       SPHERICAL            IDFGHI         ON          [  1]    ***   
       SPINORBIT            ISOCAL         OFF         [  0]    ***   
       SPINROTATIO          ISRCON         OFF         [  0]    ***   
       SPIN_FLIP            ISPFLP         OFF         [  0]    ***   
       SPIN_ORBIT           ISPORB         OFF         [  0]    ***   
       SPIN_SCAL            ISCSMP         OFF         [  0]    ***   
       STEEPSCALE           ISTPSC              1000          x 10-3  
       SUBGROUP             ISUBGP         DEFAULT     [  0]    ***   
       SUBGRPAXIS           ISBXYZ         X           [  0]    ***   
       SYMMETRY             ISYM           ON          [  0]    ***   
       SYM_CHECK            ISYMCK         OVERRIDE    [  1]    ***   
       T3_EXTRAPOL          IT3EXT         OFF         [  0]    ***   
       T4_EXTRAPOL          IT4EXP         OFF         [  0]    ***   
       TAMP_SUM             IEVERY              5               ***   
       TESTSUITE            ITESTS         OFF         [  0]    ***   
       THERMOCH             ITHERM         OFF         [  0]    ***   
       TOL_CHOLESK          ITOLCH          10D-  4             ***   
       TRANGRAD             IRESRM         OFF         [  0]    ***   
       TRANS_INV            ITRAIN         IGNORE      [  1]    ***   
       TREAT_PERT           ITREAT         SIMULTANEOUS[  0]    ***   
       TRIP_ALGORI          ITRALG         NORMAL      [  0]    ***   
       UIJ_THRESHO          IUIJTH              1               ***   
       UNITS                IUNITS         ANGSTROM    [  0]    ***   
       UNOS                 IUNOS          OFF         [  0]    ***   
       UPDATE_HESS          IHUPDT         ON          [  1]    ***   
       VIBPHASE             ISETPH         STANDARD    [  0]    ***   
       VIBRATION            IVIB           ANALYTIC    [  1]    ***   
       VIB_ALGORIT          IGEALG         STANDARD    [  0]    ***   
       VNATORB              IVNORB         OFF         [  0]    ***   
       VTRAN                IVTRAN         FULL/PARTIAL[  0]    ***   
       XFIELD               IXEFLD              0             x 10-6  
       XFORM_TOL            IXFTOL          10D- 11             ***   
       YFIELD               IYEFLD              0             x 10-6  
       ZFIELD               IZEFLD            200             x 10-6  
       ZSCALE_EXP           IZEXPS         OFF         [  0]    ***   
    -------------------------------------------------------------------
   2 entries found in Z-matrix 
   Job Title : Carbon Monoxide DBOC calculation                                                
   There are  1 unique internal coordinates.
   Of these,  0 will be optimized.
   User supplied Z-matrix: 
--------------------------------------------------------------------------------
       SYMBOL    BOND      LENGTH    ANGLE     ANGLE     DIHED     ANGLE
                  TO      (ANGST)    WRT      (DEG)      WRT      (DEG)
--------------------------------------------------------------------------------
        C    
        O          1         r    
                  *Initial values for internal coordinates* 
                      Name             Value
                        r               1.5827586207
--------------------------------------------------------------------------------
  read isotopes from ZMAT file 
   Rotational constants (in cm-1): 
          0.9814838433             0.9814838433
   Rotational constants (in MHz): 
      29424.1495084016         29424.1495084016
********************************************************************************
   The full molecular point group is CXv .
   The largest Abelian subgroup of the full molecular point group is C2v .
   The computational point group is C2v .
********************************************************************************
--------------------------------------------------------------------------------
   Analysis of internal coordinates specified by Z-matrix 
--------------------------------------------------------------------------------
   *The nuclear repulsion energy is   16.048246692810455 a.u.
   *There is   1 degree of freedom within the tot. symm. molecular subspace.
   *Z-matrix requests optimization of   0 coordinates.
   *The optimization is constrained.
   *The following   1 parameters can have non-zero 
    derivatives within the totally symmetric subspace:
             r    [ 1]
   *The following   0 parameters are to be optimized:

   *The following coordinates must be varied in an  unconstrained optimization.
             r    [ 1]
--------------------------------------------------------------------------------


 ----------------------------------------------------------------
         Coordinates used in calculation (QCOMP) 
 ----------------------------------------------------------------
 Z-matrix   Atomic            Coordinates (in bohr)
  Symbol    Number           X              Y              Z
 ----------------------------------------------------------------
     C         6        -0.00000000     0.00000000     1.70889911
     O         8         0.00000000     0.00000000    -1.28208183
 ----------------------------------------------------------------
 
   Interatomic distance matrix (Angstroms) 
 
                 C             O    
                [ 1]        [ 2]
  C    [ 1]     0.00000
  O    [ 2]     1.58276     0.00000
 rotcon2
   Rotational constants (in cm-1): 
          0.9814838433             0.0000000000
   Rotational constants (in MHz): 
      29424.1495084016             0.0000000000
  ECPDATA file not present.   Using default ECPDATA. 
  @GTFLGS-I, Hessian will be transformed to curvilinear coordinates.
  There are  218 basis functions.
 @CHECKOUT-I, Total execution time (CPU/WALL):        0.12/       0.27 seconds.
--executable xjoda finished with status     0 in        0.30 seconds (walltime).
 --invoking executable--
/nfs/workspaces/public/cfour_mpi/bin/xvmol
 SERIAL VERSION OF MOLECULE STARTED
********************************************************************************
                    INPUT FROM MOL FILE
********************************************************************************
INTGRL        1    0    1    0    0    0    0    0    0                         
         *** CFOUR Program System (Release V0.1) ***                            
Carbon Monoxide DBOC calculation                                                
    2    2 X  Y       0.10E-08              0    0                              
   9999.00      3.00                                                            
          6.00000000    1    5    1    1    1    1    1                         
C #1  -0.000000000000000   0.000000000000000   1.708899114316462                
   16    9                                                                      
   33980.0000000000       9.100000000000000E-005 -1.900000000000000E-005        
  0.000000000000000E+000  0.000000000000000E+000  0.000000000000000E+000        
  0.000000000000000E+000  0.000000000000000E+000  0.000000000000000E+000        
  0.000000000000000E+000                                                        
   5089.00000000000       7.040000000000000E-004 -1.510000000000000E-004        
  0.000000000000000E+000  0.000000000000000E+000  0.000000000000000E+000        
  0.000000000000000E+000  0.000000000000000E+000  0.000000000000000E+000        
  0.000000000000000E+000                                                        
   1157.00000000000       3.693000000000000E-003 -7.850000000000000E-004        
  0.000000000000000E+000  0.000000000000000E+000  0.000000000000000E+000        
  0.000000000000000E+000  0.000000000000000E+000  0.000000000000000E+000        
  0.000000000000000E+000                                                        
   326.600000000000       1.536000000000000E-002 -3.324000000000000E-003        
  0.000000000000000E+000  0.000000000000000E+000  0.000000000000000E+000        
  0.000000000000000E+000  0.000000000000000E+000  0.000000000000000E+000        
  0.000000000000000E+000                                                        
   106.100000000000       5.292900000000000E-002 -1.151200000000000E-002        
  0.000000000000000E+000  0.000000000000000E+000  0.000000000000000E+000        
  0.000000000000000E+000  0.000000000000000E+000  0.000000000000000E+000        
  0.000000000000000E+000                                                        
   38.1100000000000       0.147043000000000      -3.416000000000000E-002        
  0.000000000000000E+000  0.000000000000000E+000  0.000000000000000E+000        
  0.000000000000000E+000  0.000000000000000E+000  0.000000000000000E+000        
  0.000000000000000E+000                                                        
   14.7500000000000       0.305631000000000      -7.717300000000001E-002        
  0.000000000000000E+000  0.000000000000000E+000  0.000000000000000E+000        
  0.000000000000000E+000  0.000000000000000E+000  0.000000000000000E+000        
  0.000000000000000E+000                                                        
   6.03500000000000       0.399345000000000      -0.141493000000000             
  0.000000000000000E+000  0.000000000000000E+000  0.000000000000000E+000        
  0.000000000000000E+000  0.000000000000000E+000  0.000000000000000E+000        
  0.000000000000000E+000                                                        
   2.53000000000000       0.217051000000000      -0.118019000000000             
  0.000000000000000E+000  0.000000000000000E+000  0.000000000000000E+000        
  0.000000000000000E+000  0.000000000000000E+000  0.000000000000000E+000        
  0.000000000000000E+000                                                        
  0.735500000000000       1.589400000000000E-002  0.273806000000000             
   1.00000000000000       0.000000000000000E+000  0.000000000000000E+000        
  0.000000000000000E+000  0.000000000000000E+000  0.000000000000000E+000        
  0.000000000000000E+000                                                        
  0.290500000000000      -3.084000000000000E-003  0.586510000000000             
  0.000000000000000E+000   1.00000000000000       0.000000000000000E+000        
  0.000000000000000E+000  0.000000000000000E+000  0.000000000000000E+000        
  0.000000000000000E+000                                                        
  0.111100000000000       9.779999999999999E-004  0.285430000000000             
  0.000000000000000E+000  0.000000000000000E+000   1.00000000000000             
  0.000000000000000E+000  0.000000000000000E+000  0.000000000000000E+000        
  0.000000000000000E+000                                                        
   7.21600000000000       0.000000000000000E+000  0.000000000000000E+000        
  0.000000000000000E+000  0.000000000000000E+000  0.000000000000000E+000        
   1.00000000000000       0.000000000000000E+000  0.000000000000000E+000        
  0.000000000000000E+000                                                        
   19.5700000000000       0.000000000000000E+000  0.000000000000000E+000        
  0.000000000000000E+000  0.000000000000000E+000  0.000000000000000E+000        
  0.000000000000000E+000   1.00000000000000       0.000000000000000E+000        
  0.000000000000000E+000                                                        
   53.0730000000000       0.000000000000000E+000  0.000000000000000E+000        
  0.000000000000000E+000  0.000000000000000E+000  0.000000000000000E+000        
  0.000000000000000E+000  0.000000000000000E+000   1.00000000000000             
  0.000000000000000E+000                                                        
  4.145000000000000E-002  0.000000000000000E+000  0.000000000000000E+000        
  0.000000000000000E+000  0.000000000000000E+000  0.000000000000000E+000        
  0.000000000000000E+000  0.000000000000000E+000  0.000000000000000E+000        
   1.00000000000000                                                             
   10    8                                                                      
   34.5100000000000       5.378000000000000E-003  0.000000000000000E+000        
  0.000000000000000E+000  0.000000000000000E+000  0.000000000000000E+000        
  0.000000000000000E+000  0.000000000000000E+000  0.000000000000000E+000        
   7.91500000000000       3.613200000000000E-002  0.000000000000000E+000        
  0.000000000000000E+000  0.000000000000000E+000  0.000000000000000E+000        
  0.000000000000000E+000  0.000000000000000E+000  0.000000000000000E+000        
   2.36800000000000       0.142493000000000       0.000000000000000E+000        
  0.000000000000000E+000  0.000000000000000E+000  0.000000000000000E+000        
  0.000000000000000E+000  0.000000000000000E+000  0.000000000000000E+000        
  0.813200000000000       0.342150000000000        1.00000000000000             
  0.000000000000000E+000  0.000000000000000E+000  0.000000000000000E+000        
  0.000000000000000E+000  0.000000000000000E+000  0.000000000000000E+000        
  0.289000000000000       0.463864000000000       0.000000000000000E+000        
   1.00000000000000       0.000000000000000E+000  0.000000000000000E+000        
  0.000000000000000E+000  0.000000000000000E+000  0.000000000000000E+000        
  0.100700000000000       0.250028000000000       0.000000000000000E+000        
  0.000000000000000E+000   1.00000000000000       0.000000000000000E+000        
  0.000000000000000E+000  0.000000000000000E+000  0.000000000000000E+000        
   8.18200000000000       0.000000000000000E+000  0.000000000000000E+000        
  0.000000000000000E+000  0.000000000000000E+000   1.00000000000000             
  0.000000000000000E+000  0.000000000000000E+000  0.000000000000000E+000        
   24.1860000000000       0.000000000000000E+000  0.000000000000000E+000        
  0.000000000000000E+000  0.000000000000000E+000  0.000000000000000E+000        
   1.00000000000000       0.000000000000000E+000  0.000000000000000E+000        
   71.4940000000000       0.000000000000000E+000  0.000000000000000E+000        
  0.000000000000000E+000  0.000000000000000E+000  0.000000000000000E+000        
  0.000000000000000E+000   1.00000000000000       0.000000000000000E+000        
  3.218000000000000E-002  0.000000000000000E+000  0.000000000000000E+000        
  0.000000000000000E+000  0.000000000000000E+000  0.000000000000000E+000        
  0.000000000000000E+000  0.000000000000000E+000   1.00000000000000             
    6    6                                                                      
   1.84800000000000        1.00000000000000       0.000000000000000E+000        
  0.000000000000000E+000  0.000000000000000E+000  0.000000000000000E+000        
  0.000000000000000E+000                                                        
  0.649000000000000       0.000000000000000E+000   1.00000000000000             
  0.000000000000000E+000  0.000000000000000E+000  0.000000000000000E+000        
  0.000000000000000E+000                                                        
  0.228000000000000       0.000000000000000E+000  0.000000000000000E+000        
   1.00000000000000       0.000000000000000E+000  0.000000000000000E+000        
  0.000000000000000E+000                                                        
   8.65600000000000       0.000000000000000E+000  0.000000000000000E+000        
  0.000000000000000E+000   1.00000000000000       0.000000000000000E+000        
  0.000000000000000E+000                                                        
   33.2130000000000       0.000000000000000E+000  0.000000000000000E+000        
  0.000000000000000E+000  0.000000000000000E+000   1.00000000000000             
  0.000000000000000E+000                                                        
  7.660000000000000E-002  0.000000000000000E+000  0.000000000000000E+000        
  0.000000000000000E+000  0.000000000000000E+000  0.000000000000000E+000        
   1.00000000000000                                                             
    4    4                                                                      
   1.41900000000000        1.00000000000000       0.000000000000000E+000        
  0.000000000000000E+000  0.000000000000000E+000                                
  0.485000000000000       0.000000000000000E+000   1.00000000000000             
  0.000000000000000E+000  0.000000000000000E+000                                
   24.6940000000000       0.000000000000000E+000  0.000000000000000E+000        
   1.00000000000000       0.000000000000000E+000                                
  0.187000000000000       0.000000000000000E+000  0.000000000000000E+000        
  0.000000000000000E+000   1.00000000000000                                     
    2    2                                                                      
   1.01100000000000        1.00000000000000       0.000000000000000E+000        
  0.424000000000000       0.000000000000000E+000   1.00000000000000             
          8.00000000    1    5    1    1    1    1    1                         
O #2   0.000000000000000   0.000000000000000  -1.282081827016138                
   16    9                                                                      
   61420.0000000000       9.000000000000001E-005 -2.000000000000000E-005        
  0.000000000000000E+000  0.000000000000000E+000  0.000000000000000E+000        
  0.000000000000000E+000  0.000000000000000E+000  0.000000000000000E+000        
  0.000000000000000E+000                                                        
   9199.00000000000       6.980000000000001E-004 -1.590000000000000E-004        
  0.000000000000000E+000  0.000000000000000E+000  0.000000000000000E+000        
  0.000000000000000E+000  0.000000000000000E+000  0.000000000000000E+000        
  0.000000000000000E+000                                                        
   2091.00000000000       3.664000000000000E-003 -8.290000000000000E-004        
  0.000000000000000E+000  0.000000000000000E+000  0.000000000000000E+000        
  0.000000000000000E+000  0.000000000000000E+000  0.000000000000000E+000        
  0.000000000000000E+000                                                        
   590.900000000000       1.521800000000000E-002 -3.508000000000000E-003        
  0.000000000000000E+000  0.000000000000000E+000  0.000000000000000E+000        
  0.000000000000000E+000  0.000000000000000E+000  0.000000000000000E+000        
  0.000000000000000E+000                                                        
   192.300000000000       5.242300000000000E-002 -1.215600000000000E-002        
  0.000000000000000E+000  0.000000000000000E+000  0.000000000000000E+000        
  0.000000000000000E+000  0.000000000000000E+000  0.000000000000000E+000        
  0.000000000000000E+000                                                        
   69.3200000000000       0.145921000000000      -3.626100000000000E-002        
  0.000000000000000E+000  0.000000000000000E+000  0.000000000000000E+000        
  0.000000000000000E+000  0.000000000000000E+000  0.000000000000000E+000        
  0.000000000000000E+000                                                        
   26.9700000000000       0.305258000000000      -8.299200000000000E-002        
  0.000000000000000E+000  0.000000000000000E+000  0.000000000000000E+000        
  0.000000000000000E+000  0.000000000000000E+000  0.000000000000000E+000        
  0.000000000000000E+000                                                        
   11.1000000000000       0.398508000000000      -0.152090000000000             
  0.000000000000000E+000  0.000000000000000E+000  0.000000000000000E+000        
  0.000000000000000E+000  0.000000000000000E+000  0.000000000000000E+000        
  0.000000000000000E+000                                                        
   4.68200000000000       0.216980000000000      -0.115331000000000             
  0.000000000000000E+000  0.000000000000000E+000  0.000000000000000E+000        
  0.000000000000000E+000  0.000000000000000E+000  0.000000000000000E+000        
  0.000000000000000E+000                                                        
   1.42800000000000       1.759400000000000E-002  0.288979000000000             
   1.00000000000000       0.000000000000000E+000  0.000000000000000E+000        
  0.000000000000000E+000  0.000000000000000E+000  0.000000000000000E+000        
  0.000000000000000E+000                                                        
  0.554700000000000      -2.502000000000000E-003  0.586128000000000             
  0.000000000000000E+000   1.00000000000000       0.000000000000000E+000        
  0.000000000000000E+000  0.000000000000000E+000  0.000000000000000E+000        
  0.000000000000000E+000                                                        
  0.206700000000000       9.540000000000000E-004  0.277624000000000             
  0.000000000000000E+000  0.000000000000000E+000   1.00000000000000             
  0.000000000000000E+000  0.000000000000000E+000  0.000000000000000E+000        
  0.000000000000000E+000                                                        
   12.9740000000000       0.000000000000000E+000  0.000000000000000E+000        
  0.000000000000000E+000  0.000000000000000E+000  0.000000000000000E+000        
   1.00000000000000       0.000000000000000E+000  0.000000000000000E+000        
  0.000000000000000E+000                                                        
   34.9000000000000       0.000000000000000E+000  0.000000000000000E+000        
  0.000000000000000E+000  0.000000000000000E+000  0.000000000000000E+000        
  0.000000000000000E+000   1.00000000000000       0.000000000000000E+000        
  0.000000000000000E+000                                                        
   93.8810000000000       0.000000000000000E+000  0.000000000000000E+000        
  0.000000000000000E+000  0.000000000000000E+000  0.000000000000000E+000        
  0.000000000000000E+000  0.000000000000000E+000   1.00000000000000             
  0.000000000000000E+000                                                        
  6.959000000000000E-002  0.000000000000000E+000  0.000000000000000E+000        
  0.000000000000000E+000  0.000000000000000E+000  0.000000000000000E+000        
  0.000000000000000E+000  0.000000000000000E+000  0.000000000000000E+000        
   1.00000000000000                                                             
   10    8                                                                      
   63.4200000000000       6.044000000000000E-003  0.000000000000000E+000        
  0.000000000000000E+000  0.000000000000000E+000  0.000000000000000E+000        
  0.000000000000000E+000  0.000000000000000E+000  0.000000000000000E+000        
   14.6600000000000       4.179900000000000E-002  0.000000000000000E+000        
  0.000000000000000E+000  0.000000000000000E+000  0.000000000000000E+000        
  0.000000000000000E+000  0.000000000000000E+000  0.000000000000000E+000        
   4.45900000000000       0.161143000000000       0.000000000000000E+000        
  0.000000000000000E+000  0.000000000000000E+000  0.000000000000000E+000        
  0.000000000000000E+000  0.000000000000000E+000  0.000000000000000E+000        
   1.53100000000000       0.356731000000000        1.00000000000000             
  0.000000000000000E+000  0.000000000000000E+000  0.000000000000000E+000        
  0.000000000000000E+000  0.000000000000000E+000  0.000000000000000E+000        
  0.530200000000000       0.448309000000000       0.000000000000000E+000        
   1.00000000000000       0.000000000000000E+000  0.000000000000000E+000        
  0.000000000000000E+000  0.000000000000000E+000  0.000000000000000E+000        
  0.175000000000000       0.244940000000000       0.000000000000000E+000        
  0.000000000000000E+000   1.00000000000000       0.000000000000000E+000        
  0.000000000000000E+000  0.000000000000000E+000  0.000000000000000E+000        
   14.4750000000000       0.000000000000000E+000  0.000000000000000E+000        
  0.000000000000000E+000  0.000000000000000E+000   1.00000000000000             
  0.000000000000000E+000  0.000000000000000E+000  0.000000000000000E+000        
   42.7300000000000       0.000000000000000E+000  0.000000000000000E+000        
  0.000000000000000E+000  0.000000000000000E+000  0.000000000000000E+000        
   1.00000000000000       0.000000000000000E+000  0.000000000000000E+000        
   126.140000000000       0.000000000000000E+000  0.000000000000000E+000        
  0.000000000000000E+000  0.000000000000000E+000  0.000000000000000E+000        
  0.000000000000000E+000   1.00000000000000       0.000000000000000E+000        
  5.348000000000000E-002  0.000000000000000E+000  0.000000000000000E+000        
  0.000000000000000E+000  0.000000000000000E+000  0.000000000000000E+000        
  0.000000000000000E+000  0.000000000000000E+000   1.00000000000000             
    6    6                                                                      
   3.77500000000000        1.00000000000000       0.000000000000000E+000        
  0.000000000000000E+000  0.000000000000000E+000  0.000000000000000E+000        
  0.000000000000000E+000                                                        
   1.30000000000000       0.000000000000000E+000   1.00000000000000             
  0.000000000000000E+000  0.000000000000000E+000  0.000000000000000E+000        
  0.000000000000000E+000                                                        
  0.444000000000000       0.000000000000000E+000  0.000000000000000E+000        
   1.00000000000000       0.000000000000000E+000  0.000000000000000E+000        
  0.000000000000000E+000                                                        
   14.9270000000000       0.000000000000000E+000  0.000000000000000E+000        
  0.000000000000000E+000   1.00000000000000       0.000000000000000E+000        
  0.000000000000000E+000                                                        
   57.5440000000000       0.000000000000000E+000  0.000000000000000E+000        
  0.000000000000000E+000  0.000000000000000E+000   1.00000000000000             
  0.000000000000000E+000                                                        
  0.154000000000000       0.000000000000000E+000  0.000000000000000E+000        
  0.000000000000000E+000  0.000000000000000E+000  0.000000000000000E+000        
   1.00000000000000                                                             
    4    4                                                                      
   2.66600000000000        1.00000000000000       0.000000000000000E+000        
  0.000000000000000E+000  0.000000000000000E+000                                
  0.859000000000000       0.000000000000000E+000   1.00000000000000             
  0.000000000000000E+000  0.000000000000000E+000                                
   26.4830000000000       0.000000000000000E+000  0.000000000000000E+000        
   1.00000000000000       0.000000000000000E+000                                
  0.324000000000000       0.000000000000000E+000  0.000000000000000E+000        
  0.000000000000000E+000   1.00000000000000                                     
    2    2                                                                      
   1.84600000000000        1.00000000000000       0.000000000000000E+000        
  0.714000000000000       0.000000000000000E+000   1.00000000000000             
FINISH                                                                          
 
********************************************************************************
 ONE- AND TWO-ELECTRON INTEGRALS OVER SYMMETRY-ADAPTED AOS ARE CALCULATED.

  SPHERICAL HARMONICS ARE USED.
  
  INTEGRALS LESS THAN  0.10E-13 ARE NEGLECTED.

  NUCLEAR REPULSION ENERGY :   16.0482466928 A.U.
  @MOLECU-I, ONE ELECTRON INTEGRALS (CPU/WALL):        0.06/       0.08 SECONDS.
  @TWOEL-I,    4439032 INTEGRALS OF SYMMETRY TYPE  I I I I
  @TWOEL-I,   19151585 INTEGRALS OF SYMMETRY TYPE  I J I J
  @TWOEL-I,   10083574 INTEGRALS OF SYMMETRY TYPE  I I J J
  @TWOEL-I,   14156000 INTEGRALS OF SYMMETRY TYPE  I J K L
  @TWOEL-I, TOTAL NUMBER OF 2-E INTEGRALS   47830191.
  @MOLECU-I, TWO ELECTRON INTEGRALS (CPU/WALL):      168.67/      25.54 SECONDS.
 @CHECKOUT-I, Total execution time (CPU/WALL):      168.75/      25.66 seconds.

Running with 14 threads/proc

--executable xvmol finished with status     0 in       25.72 seconds (walltime).
 --invoking executable--
/nfs/workspaces/public/cfour_mpi/bin/xvmol2ja
 @GETMEM-I,  Allocated    3814 MB of main memory.
 @CHECKOUT-I, Total execution time (CPU/WALL):        0.22/       0.05 seconds.
--executable xvmol2ja finished with status     0 in        0.08 seconds (walltime).
 --invoking executable--
/nfs/workspaces/public/cfour_mpi/bin/xvprop
 @GETMEM-I,  Allocated    3814 MB of main memory.
   Property integrals will be calculated.
    --------------------------------------------------------------
                                   Property evaluated at 
    Property type                X             Y             Z
    --------------------------------------------------------------
    Dipole moment               ----          ----          ----  
    Quadrupole moment           ----          ----          ----  
    Octopole moment             ----          ----          ----  
    Relativisitic corr.         ----          ----          ----  
    Second moment            0.0000000     0.0000000     0.0000000
    Electron density         0.0000000     0.0000000     1.7088991
    Electron density         0.0000000     0.0000000    -1.2820818
    Field gradient           0.0000000     0.0000000     1.7088991
    Field gradient           0.0000000     0.0000000    -1.2820818
    Potential                0.0000000     0.0000000     1.7088991
    Potential                0.0000000     0.0000000    -1.2820818
    --------------------------------------------------------------
 @CHECKOUT-I, Total execution time (CPU/WALL):        1.31/       1.33 seconds.
--executable xvprop finished with status     0 in        1.38 seconds (walltime).
 --invoking executable--
/nfs/workspaces/public/cfour_mpi/bin/xvscf
  There are  218 functions in the AO basis.

  There are 4 irreducible representations.

       Irrep        # of functions
         1                 86
         2                 52
         3                 52
         4                 28


  Parameters for SCF calculation: 
        SCF reference function:  RHF  
  Maximum number of iterations:  150
     Full symmetry point group: CXv 
     Computational point group: C2v 
        Initial density matrix: MOREAD                 
     SCF convergence tolerance: 10**(-10)
  DIIS convergence acceleration:  ON
          Latest start for DIIS:   8
                     DIIS order:   6

  Memory information:    2523578 words required.
  Fock matrices are constructed from AO integral file.
 @GETMEM-I,  Allocated      19 MB of main memory.
  Initialization and symmetry analysis required      0.002 seconds.

  Adding electric field perturbation to one-electron Hamiltonian.
  Field direction     : Z
  Field strength      :  0.0002000 a.u.

  @INITGES-I, Occupancies from core Hamiltonian:

          Alpha population by irrep:   5    1    1    0
           Beta population by irrep:   5    1    1    0


 total no. of electrons in initial guess :  0.000000000000000E+000
  --------------------------------------------------------------------
  Iteration         Total Energy            Largest Density Difference
  --------------------------------------------------------------------
       0            16.048247344796501              0.0000000000D+00
   current occupation vector 
     5  1  1  0
     5  1  1  0
       1           -93.569970316908041              0.1754673921D+02
   current occupation vector 
     5  1  1  0
     5  1  1  0
       2           -98.038055664640069              0.1754672118D+02
   current occupation vector 
     5  1  1  0
     5  1  1  0
       3          -100.521336320819671              0.6614161091D+01
   current occupation vector 
     5  1  1  0
     5  1  1  0
       4           -95.456759017806007              0.6609085261D+01
   current occupation vector 
     5  1  1  0
     5  1  1  0
       5          -100.351449027845803              0.6942423728D+01
   current occupation vector 
     5  1  1  0
     5  1  1  0
       6           -95.203597335833791              0.6942955517D+01
   current occupation vector 
     5  1  1  0
     5  1  1  0
       7          -100.339574447570868              0.6961505482D+01
   current occupation vector 
     5  1  1  0
     5  1  1  0
       8           -95.195285578731045              0.6961545946D+01
   current occupation vector 
     5  1  1  0
     5  1  1  0
       9          -107.474554970920764              0.5799862685D+01
   current occupation vector 
     5  1  1  0
     5  1  1  0
      10          -110.458987313388775              0.1312170680D+01
   current occupation vector 
     5  1  1  0
     5  1  1  0
      11          -112.389764706785797              0.1092312115D+01
   current occupation vector 
     5  1  1  0
     5  1  1  0
      12          -112.527549861540962              0.4831488092D+00
   current occupation vector 
     5  1  1  0
     5  1  1  0
      13          -112.540213130583510              0.1265586791D+00
   current occupation vector 
     5  1  1  0
     5  1  1  0
      14          -112.544172550409286              0.7546572314D-01
   current occupation vector 
     5  1  1  0
     5  1  1  0
      15          -112.544450740286294              0.2068653248D-01
   current occupation vector 
     5  1  1  0
     5  1  1  0
      16          -112.544666989443016              0.2675757198D-01
   current occupation vector 
     5  1  1  0
     5  1  1  0
      17          -112.544745241493331              0.1875960112D-01
   current occupation vector 
     5  1  1  0
     5  1  1  0
      18          -112.544760364587461              0.1071173503D-01
   current occupation vector 
     5  1  1  0
     5  1  1  0
      19          -112.544760495635728              0.9359691467D-03
   current occupation vector 
     5  1  1  0
     5  1  1  0
      20          -112.544760496571968              0.4450107605D-04
   current occupation vector 
     5  1  1  0
     5  1  1  0
      21          -112.544760496642681              0.1106346388D-04
   current occupation vector 
     5  1  1  0
     5  1  1  0
      22          -112.544760496643221              0.1794045212D-05
   current occupation vector 
     5  1  1  0
     5  1  1  0
      23          -112.544760496643818              0.4557215372D-06
   current occupation vector 
     5  1  1  0
     5  1  1  0
      24          -112.544760496643136              0.1833728467D-06
   current occupation vector 
     5  1  1  0
     5  1  1  0
      25          -112.544760496641345              0.5161398886D-07
   current occupation vector 
     5  1  1  0
     5  1  1  0
      26          -112.544760496643562              0.1080039880D-07
   current occupation vector 
     5  1  1  0
     5  1  1  0
      27          -112.544760496642709              0.4653752494D-08
   current occupation vector 
     5  1  1  0
     5  1  1  0
      28          -112.544760496642311              0.7758569343D-09
   current occupation vector 
     5  1  1  0
     5  1  1  0

  SCF has converged.

 Density matrix saved to file den.dat
 total electron number:   14.0000000000002     
     E(SCF)=      -112.544760496643050              0.6409317521D-10

  Eigenvector printing suppressed.

 @PUTMOS-I, Writing converged MOs to NEWMOS. 
 @PUTMOS-I, Symmetry   1 Full Blocks 21 Partial Blocksize   2
 @PUTMOS-I, Symmetry   2 Full Blocks 13 Partial Blocksize   0
 @PUTMOS-I, Symmetry   3 Full Blocks 13 Partial Blocksize   0
 @PUTMOS-I, Symmetry   4 Full Blocks  7 Partial Blocksize   0
 @PUTFOCK-I, Writing converged Fock matrix to NEWFOCK. 
 @PUTFOCK-I, Symmetry   1 Full Blocks 21 Partial Blocksize   2
 @PUTFOCK-I, Symmetry   2 Full Blocks 13 Partial Blocksize   0
 @PUTFOCK-I, Symmetry   3 Full Blocks 13 Partial Blocksize   0
 @PUTFOCK-I, Symmetry   4 Full Blocks  7 Partial Blocksize   0


 
  ORBITAL EIGENVALUES (ALPHA)  (1H = 27.2113834 eV)

       MO #        E(hartree)               E(eV)           FULLSYM    COMPSYM
       ----   --------------------   --------------------   -------   ---------
    1     1         -20.6467574596        -561.8268331990     SG+        A1 (1)
    2     2         -11.5188585612        -313.4440766380     SG+        A1 (1)
    3     3          -1.2830565681         -34.9137441984     SG+        A1 (1)
    4     4          -0.8036916863         -21.8695626124     SG+        A1 (1)
    5     5          -0.5340676027         -14.5327182973     SG+        A1 (1)
    6    87          -0.5006200106         -13.6225630450      PI        B1 (2)
    7   139          -0.5006200106         -13.6225630450      PI        B2 (3)
  +++++++++++++++++++++++++++++++++++++++++++++++++++++++++++++++++++++++++++++
    8   140          -0.0034625594          -0.0942210322      PI        B2 (3)
    9    88          -0.0034625594          -0.0942210322      PI        B1 (2)
   10     6           0.0613360025           1.6690374811     SG+        A1 (1)
   11     7           0.0683999768           1.8612579932     SG+        A1 (1)
   12   141           0.0826423091           2.2488115585      PI        B2 (3)
   13    89           0.0826423091           2.2488115585      PI        B1 (2)
   14     8           0.1566586658           4.2628990185     SG+        A1 (1)
   15    90           0.1787564605           4.8642105810      PI        B1 (2)
   16   142           0.1787564605           4.8642105810      PI        B2 (3)
   17     9           0.2016503794           5.4871857864     SG+        A1 (1)
   18    10           0.2225720977           6.0564946854      DE        A1 (1)
   19   191           0.2225720977           6.0564946854      DE        A2 (4)
   20    91           0.2864891631           7.7957664584      PI        B1 (2)
   21   143           0.2864891631           7.7957664584      PI        B2 (3)
   22    11           0.3008835447           8.1874574945     SG+        A1 (1)
   23    12           0.3163877994           8.6093497112     SG+        A1 (1)
   24    92           0.4048303755          11.0159945585      PI        B1 (2)
   25   144           0.4048303755          11.0159945585      PI        B2 (3)
   26    13           0.4229162809          11.5081370651     SG+        A1 (1)
   27    14           0.5131922556          13.9646712259     SG+        A1 (1)
   28   192           0.5497381652          14.9591359842      DE        A2 (4)
   29    15           0.5497381652          14.9591359842      DE        A1 (1)
   30    93           0.6228450731          16.9484760830      PI        B1 (2)
   31   145           0.6228450731          16.9484760830      PI        B2 (3)
   32    16           0.7060295513          19.2120408112     SG+        A1 (1)
   33    94           0.7323940973          19.9294565820      PH        B1 (2)
   34   146           0.7323940973          19.9294565820      PH        B2 (3)
   35   193           0.7397550669          20.1297587476      DE        A2 (4)
   36    17           0.7397550669          20.1297587476      DE        A1 (1)
   37   147           0.7774700371          21.1560352605      PI        B2 (3)
   38    95           0.7774700371          21.1560352605      PI        B1 (2)
   39    18           0.8203026560          22.3215700763     SG+        A1 (1)
   40   194           0.8604299318          23.4134887640      DE        A2 (4)
   41    19           0.8604299318          23.4134887640      DE        A1 (1)
   42    20           0.8831053945          24.0305194713     SG+        A1 (1)
   43   148           0.8857143560          24.1015129241      PI        B2 (3)
   44    96           0.8857143560          24.1015129241      PI        B1 (2)
   45   149           1.0392862253          28.2804159380      PI        B2 (3)
   46    97           1.0392862253          28.2804159380      PI        B1 (2)
   47    21           1.1327497438          30.8236875760     SG+        A1 (1)
   48    22           1.3631768401          37.0939276385     SG+        A1 (1)
   49   150           1.4211421530          38.6712439903      PH        B2 (3)
   50    98           1.4211421530          38.6712439903      PH        B1 (2)
   51    99           1.4924314584          40.6111246121      PI        B1 (2)
   52   151           1.4924314584          40.6111246121      PI        B2 (3)
   53    23           1.5840433860          43.1040118991      DE        A1 (1)
   54   195           1.5840433860          43.1040118991      DE        A2 (4)
   55    24           1.5924866689          43.3337653058     SG+        A1 (1)
   56   100           1.6381880492          44.5773630868      PI        B1 (2)
   57   152           1.6381880492          44.5773630868      PI        B2 (3)
   58   196           1.6790370205          45.6889201069      DE        A2 (4)
   59    25           1.6790370205          45.6889201070      DE        A1 (1)
   60    26           1.9186800341          52.2099380298     SG+        A1 (1)
   61    27           1.9547555881          53.1916037616     SG+        A1 (1)
   62    28           2.0688927839          56.2974347560      PI        A1 (1)
   63   197           2.0688927839          56.2974347560      PI        A2 (4)
   64   153           2.0737535798          56.4297037359      PI        B2 (3)
   65   101           2.0737535798          56.4297037359      PI        B1 (2)
   66    29           2.1271710146          57.8832660346      DE        A1 (1)
   67   198           2.1271710146          57.8832660346      DE        A2 (4)
   68   102           2.2042841438          59.9816209600      PH        B1 (2)
   69   154           2.2042841438          59.9816209600      PH        B2 (3)
   70   155           2.2130703327          60.2207053146      PH        B2 (3)
   71   103           2.2130703327          60.2207053146      PH        B1 (2)
   72    30           2.2222934182          60.4716782307     SG+        A1 (1)
   73   104           2.2254402567          60.5573080588      PI        B1 (2)
   74   156           2.2254402567          60.5573080588      PI        B2 (3)
   75   199           2.2855576180          62.1931846273      DE        A2 (4)
   76    31           2.2855576180          62.1931846274      DE        A1 (1)
   77    32           2.4023821843          65.3721426902     SG+        A1 (1)
   78   157           2.5107922961          68.3221318060      PI        B2 (3)
   79   105           2.5107922961          68.3221318060      PI        B1 (2)
   80   106           2.5943633223          70.5962150414      PI        B1 (2)
   81   158           2.5943633223          70.5962150414      PI        B2 (3)
   82    33           2.6324591424          71.6328550076     SG+        A1 (1)
   83    34           2.6452069917          71.9797416247      DE        A1 (1)
   84   200           2.6452069917          71.9797416247      DE        A2 (4)
   85    35           2.9380061444          79.9472116275     SG+        A1 (1)
   86   107           3.3962668105          92.4171183103      PI        B1 (2)
   87   159           3.3962668105          92.4171183103      PI        B2 (3)
   88   201           3.7084299148         100.9115082238      PI        A2 (4)
   89    36           3.7084299148         100.9115082238      PI        A1 (1)
   90    37           3.8955020902         106.0020009112     SG+        A1 (1)
   91   108           3.9183261706         106.6230757145      PH        B1 (2)
   92   160           3.9183261706         106.6230757145      PH        B2 (3)
   93    38           4.1243315323         112.2287665944     SG+        A1 (1)
   94   109           4.1382975971         112.6088025391      PH        B1 (2)
   95   161           4.1382975971         112.6088025391      PH        B2 (3)
   96   110           4.1566403514         113.1079342570      PI        B1 (2)
   97   162           4.1566403514         113.1079342570      PI        B2 (3)
   98   202           4.1840295754         113.8532329334      DE        A2 (4)
   99    39           4.1840295754         113.8532329335      DE        A1 (1)
  100   203           4.2921061864         116.7941470327      DE        A2 (4)
  101    40           4.2921061864         116.7941470327      DE        A1 (1)
  102    41           4.4069404126         119.9189451881     SG+        A1 (1)
  103   111           4.5375885997         123.4740630985      PI        B1 (2)
  104   163           4.5375885997         123.4740630985      PI        B2 (3)
  105    42           4.6815154824         127.3905126833      DE        A1 (1)
  106   204           4.6815154824         127.3905126834      DE        A2 (4)
  107    43           4.7748666469         129.9307270134     SG+        A1 (1)
  108   164           5.1582789034         140.3639049248      PI        B2 (3)
  109   112           5.1582789034         140.3639049248      PI        B1 (2)
  110    44           5.2256637608         142.1975401133     SG+        A1 (1)
  111   165           5.3440854797         145.4199589100      PI        B2 (3)
  112   113           5.3440854797         145.4199589100      PI        B1 (2)
  113    45           5.8281433063         158.5918420174      PI        A1 (1)
  114   205           5.8281433063         158.5918420174      PI        A2 (4)
  115   166           5.9001444430         160.5510925541      PH        B2 (3)
  116   114           5.9001444430         160.5510925541      PH        B1 (2)
  117    46           6.0412979272         164.3920741316     SG+        A1 (1)
  118    47           6.1021221270         166.0471847522      DE        A1 (1)
  119   206           6.1021221270         166.0471847522      DE        A2 (4)
  120   167           6.1301338871         166.8094234944      PI        B2 (3)
  121   115           6.1301338871         166.8094234944      PI        B1 (2)
  122    48           6.1856565491         168.3202719375     SG+        A1 (1)
  123    49           6.3158635394         171.8633842717      DE        A1 (1)
  124   207           6.3158635394         171.8633842717      DE        A2 (4)
  125   116           6.3547707166         172.9221023884      PH        B1 (2)
  126   168           6.3547707166         172.9221023884      PH        B2 (3)
  127    50           6.4888454552         176.5704615055      DE        A1 (1)
  128   208           6.4888454552         176.5704615055      DE        A2 (4)
  129   117           6.7897105519         184.7574170018      PI        B1 (2)
  130   169           6.7897105519         184.7574170018      PI        B2 (3)
  131    51           7.0953396634         193.0740079352     SG+        A1 (1)
  132   118           7.2576950744         197.4919232688      PI        B1 (2)
  133   170           7.2576950744         197.4919232688      PI        B2 (3)
  134    52           7.8213606087         212.8300422334     SG+        A1 (1)
  135    53           9.5594850615         260.1268131158     SG+        A1 (1)
  136   119           9.7338504382         264.8715362325      PI        B1 (2)
  137   171           9.7338504382         264.8715362325      PI        B2 (3)
  138   209          10.6545813137         289.9258970941      PI        A2 (4)
  139    54          10.6545813137         289.9258970941      PI        A1 (1)
  140    55          10.6836526127         290.7169673573     SG+        A1 (1)
  141   120          10.7372490555         292.1754007118      PH        B1 (2)
  142   172          10.7372490555         292.1754007118      PH        B2 (3)
  143   210          10.9631639949         298.3228587427      DE        A2 (4)
  144    56          10.9631639949         298.3228587427      DE        A1 (1)
  145   121          10.9761287373         298.6756473194      PI        B1 (2)
  146   173          10.9761287373         298.6756473194      PI        B2 (3)
  147    57          11.1611714430         303.7109153294     SG+        A1 (1)
  148   174          11.8917997462         323.5923222092      PH        B2 (3)
  149   122          11.8917997462         323.5923222092      PH        B1 (2)
  150    58          11.9921550929         326.3231300245      DE        A1 (1)
  151   211          11.9921550929         326.3231300248      DE        A2 (4)
  152   123          12.3556370350         336.2139765095      PI        B1 (2)
  153   175          12.3556370350         336.2139765095      PI        B2 (3)
  154    59          12.5912390133         342.6250322708     SG+        A1 (1)
  155    60          12.7285188997         346.3606078934      DE        A1 (1)
  156   212          12.7285188997         346.3606078934      DE        A2 (4)
  157   124          13.1044680312         356.5907038495      PI        B1 (2)
  158   176          13.1044680312         356.5907038495      PI        B2 (3)
  159    61          13.5178055131         367.8381885447     SG+        A1 (1)
  160    62          17.3467212909         472.0282837785     SG+        A1 (1)
  161   177          18.7230920165         509.4812352956      PI        B2 (3)
  162   125          18.7230920165         509.4812352957      PI        B1 (2)
  163    63          19.6791742543         535.4975556297     SG+        A1 (1)
  164   213          26.2593776906         714.5539941842      DE        A2 (4)
  165    64          26.2593776906         714.5539941842      DE        A1 (1)
  166   178          26.5604929265         722.7477563163      PI        B2 (3)
  167   126          26.5604929265         722.7477563163      PI        B1 (2)
  168    65          27.0286867879         735.4879589831     SG+        A1 (1)
  169   127          33.4312046451         909.7093271217      PI        B1 (2)
  170   179          33.4312046451         909.7093271218      PI        B2 (3)
  171    66          34.3177521049         933.8335099517     SG+        A1 (1)
  172    67          35.5889587614         968.4248016644     SG+        A1 (1)
  173    68          47.0735819875        1280.9372874726      DE        A1 (1)
  174   214          47.0735819875        1280.9372874727      DE        A2 (4)
  175   180          47.2620087683        1286.0646408478      PI        B2 (3)
  176   128          47.2620087683        1286.0646408478      PI        B1 (2)
  177    69          47.5008155463        1292.5629036424     SG+        A1 (1)
  178    70          63.7675291621        1735.2026845013     SG+        A1 (1)
  179   181          66.3068349143        1804.3007068936      PI        B2 (3)
  180   129          66.3068349143        1804.3007068936      PI        B1 (2)
  181    71          67.0084651333        1823.3930357871     SG+        A1 (1)
  182   182          98.5103576485        2680.6031108443      PH        B2 (3)
  183   130          98.5103576485        2680.6031108443      PH        B1 (2)
  184   215          98.5240095783        2680.9745987407      DE        A2 (4)
  185    72          98.5240095783        2680.9745987407      DE        A1 (1)
  186   131          98.5371123092        2681.3311421736      PI        B1 (2)
  187   183          98.5371123092        2681.3311421736      PI        B2 (3)
  188    73          98.5474942038        2681.6136478887     SG+        A1 (1)
  189   184         103.3104634776        2811.2206309207      PH        B2 (3)
  190   132         103.3104634776        2811.2206309207      PH        B1 (2)
  191    74         103.3107548377        2811.2285592329      DE        A1 (1)
  192   216         103.3107548379        2811.2285592372      DE        A2 (4)
  193   133         103.3378279162        2811.9652551509      PI        B1 (2)
  194   185         103.3378279162        2811.9652551510      PI        B2 (3)
  195    75         103.3453511083        2812.1699716158     SG+        A1 (1)
  196    76         114.9620450811        3128.2762851498      DE        A1 (1)
  197   217         114.9620450811        3128.2762851499      DE        A2 (4)
  198   186         115.1082381112        3132.2543997419      PI        B2 (3)
  199   134         115.1082381112        3132.2543997420      PI        B1 (2)
  200    77         115.3296026003        3138.2780337263     SG+        A1 (1)
  201   135         116.7341983568        3176.4990273797      PI        B1 (2)
  202   187         116.7341983568        3176.4990273798      PI        B2 (3)
  203    78         117.4510478129        3196.0054927676     SG+        A1 (1)
  204    79         121.8647551437        3316.1085751636     SG+        A1 (1)
  205    80         198.5551806893        5402.9611477921      DE        A1 (1)
  206   218         198.5551806893        5402.9611477921      DE        A2 (4)
  207   188         198.6579637880        5405.7580180993      PI        B2 (3)
  208   136         198.6579637880        5405.7580180993      PI        B1 (2)
  209    81         198.7805480123        5409.0937044245     SG+        A1 (1)
  210    82         216.2920165019        5885.6049873920     SG+        A1 (1)
  211   189         224.7881430209        6116.7963435167      PI        B2 (3)
  212   137         224.7881430209        6116.7963435168      PI        B1 (2)
  213    83         225.3405171765        6131.8272084445     SG+        A1 (1)
  214   138         395.2622822931       10755.6335070358      PI        B1 (2)
  215   190         395.2622822931       10755.6335070359      PI        B2 (3)
  216    84         395.8273885384       10771.0108297402     SG+        A1 (1)
  217    85         508.5963676106       13839.6107548996     SG+        A1 (1)
  218    86         895.1071248979       24357.1031596695     SG+        A1 (1)


  VSCF finished.

 @CHECKOUT-I, Total execution time (CPU/WALL):       47.79/       8.23 seconds.
--executable xvscf finished with status     0 in        8.29 seconds (walltime).
 --invoking executable--
/nfs/workspaces/public/cfour_mpi/bin/xvtran
 @GETMEM-I,  Allocated    3814 MB of main memory.
  Full RHF integral transformation
  Transformation of IIII integrals :
  1 pass through the AO integral file was required.
     4439032 AO integrals were read.
     8616368 MO integrals were written to HF2.
  Transformation of IIJJ integrals :
  1 pass through the AO integral file was required.
    10083574 AO integrals were read.
    14374934 MO integrals were written to HF2.
  Transformation of IJIJ integrals :
  1 pass through the AO integral file was required.
    19151585 AO integrals were read.
    26715475 MO integrals were written to HF2.
  Transformation of IJKL integrals :
  1 pass through the AO integral file was required.
    14156000 AO integrals were read.
    18116927 MO integrals were written to HF2.
  Summary of active molecular orbitals: 
------------------------------------------------------------------------
 
  Index      Eigenvalue    Symmetry    Index      Eigenvalue    Symmetry
------------------------------------------------------------------------
     1       -20.6467575        1       110         4.1382976        2
     2       -11.5188586        1       111         4.1566404        2
     3        -1.2830566        1       112         4.5375886        2
     4        -0.8036917        1       113         5.1582789        2
     5        -0.5340676        1       114         5.3440855        2
     6        -0.5006200        2       115         5.9001444        2
     7        -0.5006200        3       116         6.1301339        2
     8         0.0613360        1       117         6.3547707        2
     9         0.0684000        1       118         6.7897106        2
    10         0.1566587        1       119         7.2576951        2
    11         0.2016504        1       120         9.7338504        2
    12         0.2225721        1       121        10.7372491        2
    13         0.3008835        1       122        10.9761287        2
    14         0.3163878        1       123        11.8917997        2
    15         0.4229163        1       124        12.3556370        2
    16         0.5131923        1       125        13.1044680        2
    17         0.5497382        1       126        18.7230920        2
    18         0.7060296        1       127        26.5604929        2
    19         0.7397551        1       128        33.4312046        2
    20         0.8203027        1       129        47.2620088        2
    21         0.8604299        1       130        66.3068349        2
    22         0.8831054        1       131        98.5103576        2
    23         1.1327497        1       132        98.5371123        2
    24         1.3631768        1       133       103.3104635        2
    25         1.5840434        1       134       103.3378279        2
    26         1.5924867        1       135       115.1082381        2
    27         1.6790370        1       136       116.7341984        2
    28         1.9186800        1       137       198.6579638        2
    29         1.9547556        1       138       224.7881430        2
    30         2.0688928        1       139       395.2622823        2
    31         2.1271710        1       140        -0.0034626        3
    32         2.2222934        1       141         0.0826423        3
    33         2.2855576        1       142         0.1787565        3
    34         2.4023822        1       143         0.2864892        3
    35         2.6324591        1       144         0.4048304        3
    36         2.6452070        1       145         0.6228451        3
    37         2.9380061        1       146         0.7323941        3
    38         3.7084299        1       147         0.7774700        3
    39         3.8955021        1       148         0.8857144        3
    40         4.1243315        1       149         1.0392862        3
    41         4.1840296        1       150         1.4211422        3
    42         4.2921062        1       151         1.4924315        3
    43         4.4069404        1       152         1.6381880        3
    44         4.6815155        1       153         2.0737536        3
    45         4.7748666        1       154         2.2042841        3
    46         5.2256638        1       155         2.2130703        3
    47         5.8281433        1       156         2.2254403        3
    48         6.0412979        1       157         2.5107923        3
    49         6.1021221        1       158         2.5943633        3
    50         6.1856565        1       159         3.3962668        3
    51         6.3158635        1       160         3.9183262        3
    52         6.4888455        1       161         4.1382976        3
    53         7.0953397        1       162         4.1566404        3
    54         7.8213606        1       163         4.5375886        3
    55         9.5594851        1       164         5.1582789        3
    56        10.6545813        1       165         5.3440855        3
    57        10.6836526        1       166         5.9001444        3
    58        10.9631640        1       167         6.1301339        3
    59        11.1611714        1       168         6.3547707        3
    60        11.9921551        1       169         6.7897106        3
    61        12.5912390        1       170         7.2576951        3
    62        12.7285189        1       171         9.7338504        3
    63        13.5178055        1       172        10.7372491        3
    64        17.3467213        1       173        10.9761287        3
    65        19.6791743        1       174        11.8917997        3
    66        26.2593777        1       175        12.3556370        3
    67        27.0286868        1       176        13.1044680        3
    68        34.3177521        1       177        18.7230920        3
    69        35.5889588        1       178        26.5604929        3
    70        47.0735820        1       179        33.4312046        3
    71        47.5008155        1       180        47.2620088        3
    72        63.7675292        1       181        66.3068349        3
    73        67.0084651        1       182        98.5103576        3
    74        98.5240096        1       183        98.5371123        3
    75        98.5474942        1       184       103.3104635        3
    76       103.3107548        1       185       103.3378279        3
    77       103.3453511        1       186       115.1082381        3
    78       114.9620451        1       187       116.7341984        3
    79       115.3296026        1       188       198.6579638        3
    80       117.4510478        1       189       224.7881430        3
    81       121.8647551        1       190       395.2622823        3
    82       198.5551807        1       191         0.2225721        4
    83       198.7805480        1       192         0.5497382        4
    84       216.2920165        1       193         0.7397551        4
    85       225.3405172        1       194         0.8604299        4
    86       395.8273885        1       195         1.5840434        4
    87       508.5963676        1       196         1.6790370        4
    88       895.1071249        1       197         2.0688928        4
    89        -0.0034626        2       198         2.1271710        4
    90         0.0826423        2       199         2.2855576        4
    91         0.1787565        2       200         2.6452070        4
    92         0.2864892        2       201         3.7084299        4
    93         0.4048304        2       202         4.1840296        4
    94         0.6228451        2       203         4.2921062        4
    95         0.7323941        2       204         4.6815155        4
    96         0.7774700        2       205         5.8281433        4
    97         0.8857144        2       206         6.1021221        4
    98         1.0392862        2       207         6.3158635        4
    99         1.4211422        2       208         6.4888455        4
   100         1.4924315        2       209        10.6545813        4
   101         1.6381880        2       210        10.9631640        4
   102         2.0737536        2       211        11.9921551        4
   103         2.2042841        2       212        12.7285189        4
   104         2.2130703        2       213        26.2593777        4
   105         2.2254403        2       214        47.0735820        4
   106         2.5107923        2       215        98.5240096        4
   107         2.5943633        2       216       103.3107548        4
   108         3.3962668        2       217       114.9620451        4
   109         3.9183262        2       218       198.5551807        4
------------------------------------------------------------------------
  -20.6467574595639       -11.5188585611566       -1.28305656809804     
 -0.803691686338707      -0.534067602651255      -0.500620010558715     
 -0.500620010558708       6.133600253194772E-002  6.839997679898357E-002
  0.156658665819579       0.201650379391441       0.222572097726214     
  0.300883544732377       0.316387799351485       0.422916280880118     
  0.513192255631883       0.549738165249577       0.706029551264988     
  0.739755066903460       0.820302655995664       0.860429931835450     
  0.883105394460226        1.13274974384492        1.36317684011847     
   1.58404338601473        1.59248666886234        1.67903702047578     
   1.91868003410015        1.95475558811834        2.06889278389410     
   2.12717101456197        2.22229341822713        2.28555761804303     
   2.40238218429471        2.63245914236024        2.64520699174474     
   2.93800614442455        3.70842991480675        3.89550209017197     
   4.12433153231194        4.18402957541122        4.29210618644015     
   4.40694041259570        4.68151548235302        4.77486664692856     
   5.22566376075284        5.82814330628421        6.04129792723294     
   6.10212212702818        6.18565654907002        6.31586353936291     
   6.48884545522527        7.09533966344541        7.82136060871563     
   9.55948506152897        10.6545813137189        10.6836526127250     
   10.9631639949151        11.1611714430301        11.9921550928765     
[...]
 Convergence information after    13 iterations: 
 Largest element of residual vector : -0.19159200E-05.
 Largest element of DIIS residual   : -0.15033338E-05.
 Convergence information after    14 iterations: 
 Largest element of residual vector : -0.98703029E-06.
 Largest element of DIIS residual   : -0.86050760E-06.
 Convergence information after    15 iterations: 
 Largest element of residual vector : -0.42134982E-06.
 Largest element of DIIS residual   : -0.28710406E-06.
 Convergence information after    16 iterations: 
 Largest element of residual vector : -0.27429903E-06.
 Largest element of DIIS residual   : -0.14020901E-06.
 Convergence information after    17 iterations: 
 Largest element of residual vector : -0.12980573E-06.
 Largest element of DIIS residual   : -0.82745161E-07.
 Perturbed amplitude equations converged in    17 iterations.
  Dominant contributions to perturbed wavefunction:
    7    7  140   45  -0.2350289832 ABAB
    7    7   45  140  -0.2350289832 ABAB
    7    7  140   22  -0.2166301399 ABAB
    7    7   22  140  -0.2166301399 ABAB
    7    7  140   39  -0.2048487263 ABAB
    7    7   39  140  -0.2048487263 ABAB
    7    7  140   28   0.1910601178 ABAB
    7    7   28  140   0.1910601178 ABAB
    7    0   35    0   0.1747843953 AA  
    7    7  140   29  -0.1602916271 ABAB
    7    7   29  140  -0.1602916271 ABAB
    7    7  140   57  -0.1601831230 ABAB
    7    7   57  140  -0.1601831230 ABAB
    7    6   45   89  -0.1467726235 ABAB
    6    7   89   45  -0.1467726235 ABAB
    7    0   39    0   0.1439222751 AA  
    7    7  140   32  -0.1430619735 ABAB
    7    7   32  140  -0.1430619735 ABAB
    7    0   45    0   0.1430197680 AA  
    7    7  140   54   0.1412312389 ABAB
  norm of converged amps    1.67420719265126     
 Starting iterative solution of the perturbed Lambda equations.
 The DIIS procedure is used to accelerate convergence.
 Convergence criterion is 10**(-7).
 Maximum number of iterations is 100.
 Convergence information after     1 iterations: 
 Largest element of residual vector :  0.78023166E-01.
 Largest element of DIIS residual   :  0.78023166E-01.
 Convergence information after     2 iterations: 
 Largest element of residual vector :  0.16302562E-01.
 Largest element of DIIS residual   :  0.12395560E-01.
 Convergence information after     3 iterations: 
 Largest element of residual vector : -0.65281064E-02.
 Largest element of DIIS residual   : -0.62417442E-02.
 Convergence information after     4 iterations: 
 Largest element of residual vector : -0.37937861E-02.
 Largest element of DIIS residual   : -0.34372420E-02.
 Convergence information after     5 iterations: 
 Largest element of residual vector : -0.32650133E-02.
 Largest element of DIIS residual   : -0.25921507E-02.
 Convergence information after     6 iterations: 
 Largest element of residual vector : -0.16885323E-02.
 Largest element of DIIS residual   : -0.75044284E-03.
 Convergence information after     7 iterations: 
 Largest element of residual vector : -0.78482091E-03.
 Largest element of DIIS residual   : -0.38215096E-03.
 Convergence information after     8 iterations: 
 Largest element of residual vector : -0.27222905E-03.
 Largest element of DIIS residual   : -0.17467485E-03.
 Convergence information after     9 iterations: 
 Largest element of residual vector : -0.11703626E-03.
 Largest element of DIIS residual   : -0.59682512E-04.
 Convergence information after    10 iterations: 
 Largest element of residual vector : -0.53220644E-04.
 Largest element of DIIS residual   : -0.24452381E-04.
 Convergence information after    11 iterations: 
 Largest element of residual vector : -0.11589571E-04.
 Largest element of DIIS residual   : -0.56517077E-05.
 Convergence information after    12 iterations: 
 Largest element of residual vector : -0.34685617E-05.
 Largest element of DIIS residual   : -0.21718147E-05.
 Convergence information after    13 iterations: 
 Largest element of residual vector : -0.16947737E-05.
 Largest element of DIIS residual   : -0.14719357E-05.
 Convergence information after    14 iterations: 
 Largest element of residual vector : -0.70103419E-06.
 Largest element of DIIS residual   : -0.55625155E-06.
 Convergence information after    15 iterations: 
 Largest element of residual vector : -0.41151819E-06.
 Largest element of DIIS residual   : -0.19682679E-06.
 Convergence information after    16 iterations: 
 Largest element of residual vector : -0.16897213E-06.
 Largest element of DIIS residual   : -0.94866376E-07.
 Perturbed Lambda equations converged in    16 iterations.
  Dominant contributions to perturbed wavefunction:
    7    7  140   45  -0.1941063736 ABAB
    7    7   45  140  -0.1941063736 ABAB
    7    7  140   22  -0.1783742872 ABAB
    7    7   22  140  -0.1783742872 ABAB
    7    7  140   39  -0.1673529519 ABAB
    7    7   39  140  -0.1673529519 ABAB
    7    7  140   28   0.1600718947 ABAB
    7    7   28  140   0.1600718947 ABAB
    7    7  140   57  -0.1312238219 ABAB
    7    7   57  140  -0.1312238219 ABAB
    7    7  140   29  -0.1290719906 ABAB
    7    7   29  140  -0.1290719906 ABAB
    7    6   45   89  -0.1199395958 ABAB
    6    7   89   45  -0.1199395958 ABAB
    7    7  140   32  -0.1183598483 ABAB
    7    7   32  140  -0.1183598483 ABAB
    7    7  140   54   0.1167568185 ABAB
    7    7   54  140   0.1167568185 ABAB
    7    6   22   89  -0.1093673778 ABAB
    6    7   89   22  -0.1093673778 ABAB
        The DBOC first-order density matrix is being calculated 
             (Symmetry block 3, perturbation   2)
 term   2.95037822047117     
 final tnorm  0.797569221226981     
  norm contr. I: |<0|L dT/dx|0>|^2   0.000000000000000E+000
  norm contr. II: <0|[nabla(1+L)e-T][nabla e^T]|0>   2.95037822047117     
  total norm contribution   2.95037822047117     
 oo  9.175597052525934E-003
 vv  -22.0752486401821     
 vo  6.634546860762291E-002
  Correlated perturbed 1-el contribution to DBOC  -21.9997275745219       cm**-1
  SUM_I |dc_I/dx|^2 contribution to DBOC   11.1073172321128       cm**-1
 
 
  The total diagonal Born-Oppenheimer correction (DBOC) is:      0.0041412036 a.u.
  The total diagonal Born-Oppenheimer correction (DBOC) is:        908.889144 cm-1
 
 Total CC energy including DBOC  -113.086629342508     
 First-order density matrix is being calculated  (Symmetry block 3, perturbation   2)
 Calculation of the contributions of <pq||rs> to dI(i,j)/dx required   1.8 seconds.
 Calculation of the contributions of <pq||rs> to dI(a,b)/dx required  14.9 seconds.
 Calculation of the contributions of <pq||rs> to dI(i,a)/dx required   9.0 seconds.
 First-order Z-vector equations are solved for 1 perturbation.
 Convergence reached after  19 iterations.
        U*G(pq,rs) contribution is being calculated
             (Symmetry block 3, perturbation   2)

 CCSD contribution to force constants 

        0.0000000000        0.0000000000        0.0000000000
        0.0000000000        0.0000000000        0.0000000000
        0.0000000000        0.0000000000        0.0000000000
        0.0000000000        0.0000000000        0.0000000000
        0.0000000000        0.0000000000        0.0000000000
        0.0000000000        0.0000000000        0.0000000000
        0.0000000000        0.0000000000        0.0000000000
        0.0000000000        0.0000000000        0.0000000000
        0.0000000000        0.0000000000        0.0000000000
        0.0000000000        0.0000000000        0.0000000000
        0.0000000000        0.0000000000        0.0000000000
        0.0000000000       -4.2274774986        4.2274774986

 CCSD contribution to dipole derivatives 

        0.0000000000        0.0000000000        0.0000000000
        0.0000000000        0.0000000000        0.0000000000
        0.0000000000        0.0000000000        0.0000000000
        0.0000000000        0.0000000000       -0.0573249806
        0.0000000000        0.0000000000        0.0000000000
        0.0000000000        0.0000000000        0.0000000000
 @CHECKOUT-I, Total execution time (CPU/WALL):     1080.06/     248.91 seconds.
--executable xsdcc finished with status     0 in      249.02 seconds (walltime).
 --invoking executable--
/nfs/workspaces/public/cfour_mpi/bin/xanti
 @GETMEM-I,  Allocated    3814 MB of main memory.
 CCSD MO derivative gammas will be sorted to Mulliken order.
 @CHECKOUT-I, Total execution time (CPU/WALL):        8.39/       8.09 seconds.
--executable xanti finished with status     0 in        8.12 seconds (walltime).
 --invoking executable--
/nfs/workspaces/public/cfour_mpi/bin/xbcktrn
 @GETMEM-I,  Allocated    3814 MB of main memory.
 CCSD MO derivative gammas will be transformed to the AO basis.
 @CHECKOUT-I, Total execution time (CPU/WALL):       18.23/       3.59 seconds.
--executable xbcktrn finished with status     0 in        3.61 seconds (walltime).
 --invoking executable--
/nfs/workspaces/public/cfour_mpi/bin/xvdint
 @GETMEM-I,  Allocated    3814 MB of main memory.
 One- and two-electron integral derivatives are calculated
 for RHF-CC/MBPT hessians and dipole derivatives.
 Spherical gaussians are used.
  magnet F F
                    8722  records have been written to the Sort file.
  Total length of Sort file :             178609116  words.
 Evaluation of 2el integral derivatives

                      Two-electron integral gradient
                      ------------------------------

                         C #1 z     0.0000000000
                         O #2 z     0.0000000000


 C #1       0.0000000000            0.0679441738            0.0000000000
 O #2       0.0000000000           -0.0679441738            0.0000000000


 Evaluation of 2e integral derivatives required  280.23 seconds.
  contribution to Hessian
        0.0000000000        0.0000000000        0.0000000000
        0.0000000000        0.0679441738       -0.0679441738
 @CHECKOUT-I, Total execution time (CPU/WALL):      280.22/      65.49 seconds.
--executable xvdint finished with status     0 in       65.55 seconds (walltime).
 --invoking executable--
/nfs/workspaces/public/cfour_mpi/bin/xanti
 @GETMEM-I,  Allocated    3814 MB of main memory.
 CCSD MO gammas will be sorted to Mulliken order.
 @CHECKOUT-I, Total execution time (CPU/WALL):       10.36/       8.98 seconds.
--executable xanti finished with status     0 in        9.00 seconds (walltime).
 --invoking executable--
/nfs/workspaces/public/cfour_mpi/bin/xbcktrn
 @GETMEM-I,  Allocated    3814 MB of main memory.
 CCSD MO gammas will be transformed to the AO basis.
 @CHECKOUT-I, Total execution time (CPU/WALL):       23.73/       4.74 seconds.
--executable xbcktrn finished with status     0 in        4.76 seconds (walltime).
 --invoking executable--
/nfs/workspaces/public/cfour_mpi/bin/xvdint
 @GETMEM-I,  Allocated    3814 MB of main memory.
 One- and two-electron integral derivatives are calculated
 for RHF-CC/MBPT hessians and dipole derivatives.
 Spherical gaussians are used.
  magnet F F

                     Kinetic energy integral gradient
                     --------------------------------

                         C #1 z    -0.5479080852
                         O #2 z     0.5479080852


 C #1       0.0000000000            0.0000000000           -0.5479080852
 O #2       0.0000000000            0.0000000000            0.5479080852



                   Nuclear attraction integral gradient
                   ------------------------------------

                         C #1 z    13.9136022603
                         O #2 z   -13.9136022603


 C #1       0.0000000000            0.0000000000           13.9136022603
 O #2       0.0000000000            0.0000000000          -13.9136022603



                      Reorthonormalization gradient
                      -----------------------------

                         C #1 z     0.0000000000
                         O #2 z     0.0000000000


 C #1       0.0000000000            0.0000000000            0.0000000000
 O #2       0.0000000000            0.0000000000            0.0000000000



                     Kinetic energy integral Hessian
                     -------------------------------


           Symmetry 1

           C #1 z      O #2 z

 C #1 z    0.575317
 O #2 z   -0.575317    0.575317


           Symmetry 2

           C #1 x      O #2 x

 C #1 x   -0.423384
 O #2 x    0.423384   -0.423384


           Symmetry 3

           C #1 y      O #2 y

 C #1 y   -0.423384
 O #2 y    0.423384   -0.423384




           C #1 x      C #1 y      C #1 z      O #2 x      O #2 y      O #2 z

 C #1 x   -0.423384
 C #1 y    0.000000   -0.423384
 C #1 z    0.000000    0.000000    0.575317

 O #2 x    0.423384    0.000000    0.000000   -0.423384
 O #2 y    0.000000    0.423384    0.000000    0.000000   -0.423384
 O #2 z    0.000000    0.000000   -0.575317    0.000000    0.000000    0.575317




                   Nuclear attraction integral Hessian
                   -----------------------------------


           Symmetry 1

           C #1 z      O #2 z

 C #1 z   -8.474239
 O #2 z    8.474239   -8.474239


           Symmetry 2

           C #1 x      O #2 x

 C #1 x    7.531740
 O #2 x   -7.531740    7.531740


           Symmetry 3

           C #1 y      O #2 y

 C #1 y    7.531740
 O #2 y   -7.531740    7.531740




           C #1 x      C #1 y      C #1 z      O #2 x      O #2 y      O #2 z

 C #1 x    7.531740
 C #1 y    0.000000    7.531740
 C #1 z    0.000000    0.000000   -8.474239

 O #2 x   -7.531740    0.000000    0.000000    7.531740
 O #2 y    0.000000   -7.531740    0.000000    0.000000    7.531740
 O #2 z    0.000000    0.000000    8.474239    0.000000    0.000000   -8.474239




                Highest order reorthonormalization Hessian
                ------------------------------------------


           Symmetry 1

           C #1 z      O #2 z

 C #1 z    0.000000
 O #2 z    0.000000    0.000000


           Symmetry 2

           C #1 x      O #2 x

 C #1 x    0.000000
 O #2 x    0.000000    0.000000


           Symmetry 3

           C #1 y      O #2 y

 C #1 y    0.000000
 O #2 y    0.000000    0.000000




           C #1 x      C #1 y      C #1 z      O #2 x      O #2 y      O #2 z




                Electronic contributions to dipole moment
                -----------------------------------------

                               au             Debye

                    z      0.47617377      1.21031321

  Conversion factor used: 1 a.u. =   2.54174691 Debye 



   Electronic contributions to static part of dipole moment derivatives
   --------------------------------------------------------------------


                     Total dipole moment derivatives
                     -------------------------------


           Symmetry 1
                              Ez

               C #1 z    -5.65273556
               O #2 z    -8.34726444

           Symmetry 2
                              Ex

               C #1 x    -5.67178098
               O #2 x    -8.32821902

           Symmetry 3
                              Ey

               C #1 y    -5.67178098
               O #2 y    -8.32821902



                       Ex          Ey          Ez

      C #1    x   -5.671781    0.000000    0.000000
      C #1    y    0.000000   -5.671781    0.000000
      C #1    z    0.000000    0.000000   -5.652736

      O #2    x   -8.328219    0.000000    0.000000
      O #2    y    0.000000   -8.328219    0.000000
      O #2    z    0.000000    0.000000   -8.347264

 Evaluation of 1e integral derivatives required    1.63 seconds.
                    8815  records have been written to the Sort file.
  Total length of Sort file :             180513570  words.
 Evaluation of 2el integral derivatives

                      Two-electron integral gradient
                      ------------------------------

                         C #1 z    -7.4069088895
                         O #2 z     7.4069088895


 C #1       0.0000000000            0.0000000000           -7.4069088895
 O #2       0.0000000000            0.0000000000            7.4069088895


 Evaluation of 2e integral derivatives required  652.91 seconds.

                            Molecular gradient
                            ------------------

                         C #1 z     0.5932389957
                         O #2 z    -0.5932389957


 C #1       0.0000000000            0.0000000000            0.5932389957
 O #2       0.0000000000            0.0000000000           -0.5932389957


  Molecular gradient norm 0.839E+00

                            Molecular hessian
                            -----------------


           Symmetry 1

           C #1 z      O #2 z

 C #1 z   16.561622
 O #2 z  -16.561622   16.561622


           Symmetry 2

           C #1 x      O #2 x

 C #1 x    4.413664
 O #2 x   -4.413664    4.413664


           Symmetry 3

           C #1 y      O #2 y

 C #1 y    4.413664
 O #2 y   -4.413664    4.413664




           C #1 x      C #1 y      C #1 z      O #2 x      O #2 y      O #2 z

 C #1 x    4.413664
 C #1 y    0.000000    4.413664
 C #1 z    0.000000    0.000000   16.561622

 O #2 x   -4.413664    0.000000    0.000000    4.413664
 O #2 y    0.000000   -4.413664    0.000000    0.000000    4.413664
 O #2 z    0.000000    0.000000  -16.561622    0.000000    0.000000   16.561622




                           Total dipole moment
                           -------------------

                               au             Debye

                    z      0.47291384      1.20202729

  Conversion factor used: 1 a.u. =   2.54174691 Debye 



                     Total dipole moment derivatives
                     -------------------------------


           Symmetry 1
                              Ez

               C #1 z     0.59084821
               O #2 z    -0.59084821

           Symmetry 2
                              Ex

               C #1 x     0.16468291
               O #2 x    -0.16468291

           Symmetry 3
                              Ey

               C #1 y     0.16468291
               O #2 y    -0.16468291



                       Ex          Ey          Ez

      C #1    x    0.164683    0.000000    0.000000
      C #1    y    0.000000    0.164683    0.000000
      C #1    z    0.000000    0.000000    0.590848

      O #2    x   -0.164683    0.000000    0.000000
      O #2    y    0.000000   -0.164683    0.000000
      O #2    z    0.000000    0.000000   -0.590848

 @CHECKOUT-I, Total execution time (CPU/WALL):      654.53/     125.59 seconds.
--executable xvdint finished with status     0 in      125.66 seconds (walltime).
 --invoking executable--
/nfs/workspaces/public/cfour_mpi/bin/xjoda
  @GTFLGS-I, Hessian will be transformed to curvilinear coordinates.
  @GTFLGS-I, Hessian will be transformed to curvilinear coordinates.
  igrd and ihes are                      0                     1
  gradient from JOBARC 
   0.000000000000000   0.000000000000000   0.593238995748756
   0.000000000000000   0.000000000000000  -0.593238995748756
 
  @PROJFCM-I, Projecting force constant matrix onto totally symmetric subspace.
  Largest difference between matrix elements of symmetrized
  and unsymmetrized FCM :    -0.1240785252E-11.
  read isotopes from ZMAT file 
 
  Summary of diagonal Born-Oppenheimer correction at the correlated level
  The total diagonal Born-Oppenheimer correction (DBOC) is:      0.0041412036 a.u.
  The total diagonal Born-Oppenheimer correction (DBOC) is:        908.889144 cm-1
  The total diagonal Born-Oppenheimer correction (DBOC) is:            10.873 kJ/mole
  hellooooooo 
  readis is  F
 
 @CHECKOUT-I, Total execution time (CPU/WALL):        0.01/       2.52 seconds.
--executable xjoda finished with status     0 in        2.54 seconds (walltime).
  The final electronic energy is      -113.086629342507706 a.u. 
  This computation required                         2562.28 seconds (walltime).
