 --invoking executable--
/nfs/workspaces/public/cfour_mpi/bin/xjoda


   *************************************************************************
         <<<     CCCCCC     CCCCCC   |||     CCCCCC     CCCCCC   >>>
       <<<      CCC        CCC       |||    CCC        CCC         >>>
      <<<      CCC        CCC        |||   CCC        CCC            >>>
    <<<        CCC        CCC        |||   CCC        CCC              >>>
      <<<      CCC        CCC        |||   CCC        CCC            >>>
       <<<      CCC        CCC       |||    CCC        CCC         >>>
         <<<     CCCCCC     CCCCCC   |||     CCCCCC     CCCCCC   >>>
   *************************************************************************

     ****************************************************************
     * CFOUR Coupled-Cluster techniques for Computational Chemistry *
     ****************************************************************
 

   Department of Chemistry                Institut fuer Physikalische Chemie
   University of Florida                  Universitaet Mainz
   Gainesville, FL 32611, USA             D-55099 Mainz, Germany

   Department of Chemistry                Fakultaet fuer Chemie und Biowiss.
   Johns Hopkins University               Karlsruher Institut fuer Technologie
   Baltimore, MD 21218, USA               D-76131 Karlsruhe, Germany

   Department of Chemistry                Department of Physical Chemistry
   Southern Methodist University          Eotvos Lorand University
   Dallas, TX 75275, USA                  H-1053 Budapest, Hungary

 
                       Version 2.1
 
                     vincent.theory.phys.ucl.ac.uk                     
                     Wed 26 Feb 01:01:21 GMT 2025                      
                     integer*8 version is running
 
********************************************************************************
*                          Input from ZMAT file                                *
********************************************************************************
Carbon Monoxide DBOC calculation                                                
C                                                                               
O 1 r                                                                           
                                                                                
r=1.6137931034482758                                                            
                                                                                
                                                                                
*CFOUR(CALC=CCSD,BASIS=AUG-PCVQZ,SCF_CONV=10                                    
CC_CONV=14,DBOC=ON,MEMORY=500000000                                             
ZFIELD=-200)                                                                    
                                                                                
%isotopes                                                                       
12                                                                              
16                                                                              
********************************************************************************
  @GTFLGS-I, Hessian will be transformed to curvilinear coordinates.
    -------------------------------------------------------------------
                    CFOUR Control Parameters 
    -------------------------------------------------------------------
        External           Internal           Value            Units
          Name               Name
    -------------------------------------------------------------------
       ABCDTYPE             IABCDT         STANDARD    [  0]    ***   
       ANHARMONIC           IANHAR         OFF         [  0]    ***   
       ANH_ALGORIT          IANALG         STANDARD    [  0]    ***   
       ANH_DERIVAT          IANDER         SECOND      [  1]    ***   
       ANH_MODE             ANHMOD         VIBRATION   [  0]    ***   
       ANH_STEPSIZ          ICUBST             50000          x 10-6  
       ANH_SYMMETR          IANHSM         ABELIAN     [  0]    ***   
       AO_LADDERS           IAOLAD         SINGLEPASS  [  1]    ***   
       AV_SCF               IAVSCF         OFF         [  0]    ***   
       BASIS                IBASIS         AUG-PCVQZ   [ 52]    ***   
       BOTHVECTORS          BOTHVC         OFF         [  0]    ***   
       BOX_POTENT           IPIAB          OFF         [  0]    ***   
       BREIT                IBREIT         OFF         [  0]    ***   
       BRUCK_CONV           IBRTOL          10D-  4             ***   
       BRUECKNER            IBRKNR         OFF         [  0]    ***   
       BUFFERSIZE           IBUFFS              4096            ***   
       CACHE_RECS           ICHREC             10               ***   
       CALCLEVEL            ICLLVL         CCSD        [ 10]    ***   
       CCORBOPT             ICCORB         OFF         [  0]  x 0.01  
       CC_CONV              ICCCNV          10D- 14             ***   
       CC_EXPORDER          ICCEOR              5               ***   
       CC_EXTRAPOL          ICCEXT         DIIS        [  1]    ***   
       CC_GUESS             ICCGES         MP2         [  0]    ***   
       CC_MAXCYC            ICCCYC            100              cycles 
       CC_PROGRAM           ICCPRO         VCC         [  0]    ***   
       CHARGE               ICHRGE              0               ***   
       CHOLESKY             ICHOLE         OFF         [  0]    ***   
       CIS_CONV             ICISTL              5               ***   
       COMM_SIZE            IPSIZE            ***               ***   
       CONSTANT             ICONST         OLD         [  1]    ***   
       CONTINUUM            ICONTU         NONE        [  0]    ***   
       CONTRACTION          ICNTYP         GENERAL     [  1]    ***   
       COORDINATES          ICOORD         INTERNAL    [  0]    ***   
       CPHF_CONVER          ICPHFT          10D- 16             ***   
       CPHF_MAXCYC          ICPHFC             64              cycles 
       CUBIC                ICUBIC         OFF         [  0]    ***   
       CURVILINEAR          ICURVY         ON          [  1]    ***   
       DBOC                 IDBOC          ON          [  1]    ***   
       DCT                  IDCT           OFF         [  0]    ***   
       DERIV_LEV            IDRLVL         SECOND      [  2]    ***   
       DEVMEM_SIZE          IDVMEM          50000000           MByte  
       DIAG_MRCC            IEOMST          10D-  0             ***   
       DIFF_TYPE            IDIFTY         RELAXED     [  0]    ***   
       DIRECT               IDIRCT         OFF         [  0]    ***   
       DROPMO               IDRPMO      NONE         
       ECP                  IECP           OFF         [  0]    ***   
       EIGENVECTOR          IVEC                1               ***   
       EL_ANHARM            IELANH         OFF         [  0]    ***   
       EOMFOLLOW            IEOMSR         ENERGY      [  0]    ***   
       EOMIP                IEOMIP         OFF         [  0]    ***   
       EOMLEVEL             HBARFM         SAME        [  0]    ***   
       EOM_MRCC             IMRCCE         NEW         [  1]    ***   
       EOM_NONIT            EOMNON         OFF         [  0]    ***   
       EOM_NSING            IEOMSI          10D-  0             ***   
       EOM_NSTATES          IMRCCD         DAVIDSON    [  0]    ***   
       EOM_NTRIP            IEOMTR          10D-  0             ***   
       EOM_ORDER            IEXORD         ENERGY      [  0]    ***   
       EOM_PROPSTA          IEOMST              0               ***   
       ESTATE_CONV          IEXTOL          10D-  5             ***   
       ESTATE_DIAG          IEXDIG         ITERATIVE   [  0]    ***   
       ESTATE_LOCK          IESLOC         ON          [  1]    ***   
       ESTATE_MAXC          IEXMXC             40               ***   
       ESTATE_PROP          IEXPRP         OFF         [  0]    ***   
       EVAL_HESS            IRECAL              0            # of cyc.
       EXCITATION           IEXCIT              0               ***   
       EXCITE               IEXCIT         NONE        [  0]    ***   
       EXTERN_POT           IEXPOT         OFF         [  0]    ***   
       FCGRADNEW            IFCGNW         OFF         [  0]    ***   
       FC_FIELD             IFINFC              0             x 10-6  
       FD_CALTYPE           IFDCAL         GRADONLY    [  0]    ***   
       FD_PROJECT           IFDPRJ         OFF         [  1]    ***   
       FD_STEPSIZE          IDISFD              0            10-4 bohr
       FD_USEGROUP          IFDGRP         FULL        [  0]    ***   
       FILE_RECSIZ          IFLREC              4096           words  
       FINITE_PERT          IFIPER              0             x 10-6  
       FIXGEOM              IFIXGM         OFF         [  0]    ***   
       FOCK                 IFOCK          AO          [  1]    ***   
       FREQ_ALGORI          IVIALG         STANDARD    [  0]    ***   
       FROZEN_CORE          IFROCO         OFF         [  0]    ***   
       GAMMA_ABCD           IGABCD         STORE       [  0]    ***   
       GAMMA_ABCI           IGABCI         STORE       [  0]    ***   
       GENBAS_1             IGNBS1              0               ***   
       GENBAS_2             IGNBS2              0               ***   
       GENBAS_3             IGNBS3              0               ***   
       GENBAS_4             IGNBS4              0               ***   
       GEO_CONV             ICONTL              5              H/bohr 
       GEO_MAXCYC           IOPTCY             50               ***   
       GEO_MAXSTEP          IMXSTP            300            millibohr
       GEO_METHOD           INR            SINGLE_POINT[  5]    ***   
       GIAO                 IGIAO          OFF         [  1]    ***   
       GIMIC                IGIMIC         OFF         [  0]    ***   
       GRID                 IGRID          OFF         [  0]    ***   
       GRID_ALGO            IGALGO         SERIAL      [  0]    ***   
       GUESS                IGUESS         MOREAD      [  0]    ***   
       HBAR                 IHBAR          OFF         [  0]    ***   
       HESS_TYPE            IHESTP         SCF         [  0]    ***   
       HF2_FILE             IHF2Fl         USE         [  1]    ***   
       HFSTABILITY          ISTABL         OFF         [  0]    ***   
       INCORE               INCORE         OFF         [  0]    ***   
       INPUT_MRCC           IMRCC          ON          [  1]    ***   
       INTEGRALS            INTTYP         VMOL        [  1]    ***   
       JODA_PRINT           IJPRNT              0               ***   
       KEYWORD_OUT          IDMPKW         NO          [  0]    ***   
       LINDEP_TOL           ILINDP              8               ***   
       LINEQ_CONV           IZTACN          10D-  7           cycles  
       LINEQ_EXPOR          ILMAXD              5               ***   
       LINEQ_MAXCY          ILMAXC            100               ***   
       LINEQ_TYPE           ILTYPE         DIIS        [  1]    ***   
       LOCK_ORBOCC          ILOCOC         OFF         [  0]    ***   
       MEMORY_SIZE          IMEMSZ         500000000           words  
       MEM_UNIT             IMEMU          INTEGERWORDS[  0]    ***   
       MRCC                 IMRCCC         OFF         [  0]    ***   
       MULTIPLICTY          IMULTP              1               ***   
       NACOUPLING           IVCOUP         OFF         [  0]    ***   
       NEGEVAL              IDIE           ABORT       [  0]    ***   
       NEWNORM              INEWNO         OFF         [  0]    ***   
       NON-HF               INONHF         OFF         [  0]    ***   
       NTOP_TAMP            ITOPT2             15               ***   
       NUC_MODEL            INUCMO         POINT       [  0]    ***   
       OCCUPATION           IOCCU   ESTIMATED BY SCF 
       OPEN-SHELL           IOPEN          SPIN-ORBITAL[  0]    ***   
       OPTVIB               IOPTVB         OFF         [  0]    ***   
       ORBITALS             IORBTP         STANDARD    [  0]    ***   
       PARALLEL             IPARAL         ON          [  1]    ***   
       PARA_INT             IPINTS         ON          [  1]    ***   
       PARA_PRINT           IPPRIN              0               ***   
       PERT_ORB             IPTORB         STANDARD    [  0]    ***   
       POINTS               IGRDFD              0               ***   
       PRINT                IPRNT               0               ***   
       PROPS                IPROPS         OFF         [  0]    ***   
       PROP_INTEGR          IINTYP         INTERNAL    [  0]    ***   
       PSI                  IPSI           OFF         [  0]    ***   
       QC_ALG               IQCALG         FLM         [  0]    ***   
       QC_LINALG            IQCLIN         TRIDIAG     [  2]    ***   
       QC_MAXCYC            IQCMAX          10D-100           cycles  
       QC_MAXSCFCY          IQCMSC          10D- 15           cycles  
       QC_RTRUST            IQCRTR          10D-  0           x 10-3  
       QC_SKIPSCF           IQCSKI         OFF         [  0]    ***   
       QC_START             IQCSTA          10D-  1             ***   
       QRHFGUESS            IQGUES         OFF         [  0]    ***   
       QUARTIC              IQUART         OFF         [  0]    ***   
       RAMAN_INT            IRAMIN         OFF         [  0]    ***   
       RAMAN_ORB            IRAMRE         UNRELAXED   [  0]    ***   
       RDO                  IRDOFM         ON          [  1]    ***   
       REDUCE_REPR          REDREP         Ir          [  0]    ***   
       REFERENCE            IREFNC         RHF         [  0]    ***   
       RELATIVIST           IRELAT         OFF         [  0]    ***   
       RELAX_DENS           IRDENS         ON          [  1]    ***   
       RESET_FLAGS          IRESET         OFF         [  0]    ***   
       RESTART_CC           ICCRES         OFF         [  0]    ***   
       ROT_EVEC             ROTVEC              0               ***   
       SAVE_INTS            ISVINT         OFF         [  0]    ***   
       SCALE_ON             ISTCRT              0               ***   
       SCF_CONV             ISCFCV          10D- 10             ***   
       SCF_DAMPING          IDAMP               0             x 10-3  
       SCF_EXPORDE          IRPPOR              6               ***   
       SCF_EXPSTAR          IRPPLS              8               ***   
       SCF_EXTRAPO          IRPP           ON          [  1]    ***   
       SCF_MAXCYC           ISCFCY            150              cycles 
       SCF_NOSTOP           ISCFST         OFF         [  0]    ***   
       SCF_PRINT            ISCFPR              0               ***   
       SCF_PROG             ISCFPR         SCF         [  0]    ***   
       SD_FIELD             IFINSD              0             x 10-6  
       SOPERT               IPERSO         OFF         [  0]    ***   
       SPHERICAL            IDFGHI         ON          [  1]    ***   
       SPINORBIT            ISOCAL         OFF         [  0]    ***   
       SPINROTATIO          ISRCON         OFF         [  0]    ***   
       SPIN_FLIP            ISPFLP         OFF         [  0]    ***   
       SPIN_ORBIT           ISPORB         OFF         [  0]    ***   
       SPIN_SCAL            ISCSMP         OFF         [  0]    ***   
       STEEPSCALE           ISTPSC              1000          x 10-3  
       SUBGROUP             ISUBGP         DEFAULT     [  0]    ***   
       SUBGRPAXIS           ISBXYZ         X           [  0]    ***   
       SYMMETRY             ISYM           ON          [  0]    ***   
       SYM_CHECK            ISYMCK         OVERRIDE    [  1]    ***   
       T3_EXTRAPOL          IT3EXT         OFF         [  0]    ***   
       T4_EXTRAPOL          IT4EXP         OFF         [  0]    ***   
       TAMP_SUM             IEVERY              5               ***   
       TESTSUITE            ITESTS         OFF         [  0]    ***   
       THERMOCH             ITHERM         OFF         [  0]    ***   
       TOL_CHOLESK          ITOLCH          10D-  4             ***   
       TRANGRAD             IRESRM         OFF         [  0]    ***   
       TRANS_INV            ITRAIN         IGNORE      [  1]    ***   
       TREAT_PERT           ITREAT         SIMULTANEOUS[  0]    ***   
       TRIP_ALGORI          ITRALG         NORMAL      [  0]    ***   
       UIJ_THRESHO          IUIJTH              1               ***   
       UNITS                IUNITS         ANGSTROM    [  0]    ***   
       UNOS                 IUNOS          OFF         [  0]    ***   
       UPDATE_HESS          IHUPDT         ON          [  1]    ***   
       VIBPHASE             ISETPH         STANDARD    [  0]    ***   
       VIBRATION            IVIB           ANALYTIC    [  1]    ***   
       VIB_ALGORIT          IGEALG         STANDARD    [  0]    ***   
       VNATORB              IVNORB         OFF         [  0]    ***   
       VTRAN                IVTRAN         FULL/PARTIAL[  0]    ***   
       XFIELD               IXEFLD              0             x 10-6  
       XFORM_TOL            IXFTOL          10D- 11             ***   
       YFIELD               IYEFLD              0             x 10-6  
       ZFIELD               IZEFLD            ***             x 10-6  
       ZSCALE_EXP           IZEXPS         OFF         [  0]    ***   
    -------------------------------------------------------------------
   2 entries found in Z-matrix 
   Job Title : Carbon Monoxide DBOC calculation                                                
   There are  1 unique internal coordinates.
   Of these,  0 will be optimized.
   User supplied Z-matrix: 
--------------------------------------------------------------------------------
       SYMBOL    BOND      LENGTH    ANGLE     ANGLE     DIHED     ANGLE
                  TO      (ANGST)    WRT      (DEG)      WRT      (DEG)
--------------------------------------------------------------------------------
        C    
        O          1         r    
                  *Initial values for internal coordinates* 
                      Name             Value
                        r               1.6137931034
--------------------------------------------------------------------------------
  read isotopes from ZMAT file 
   Rotational constants (in cm-1): 
          0.9440974395             0.9440974395
   Rotational constants (in MHz): 
      28303.3331624825         28303.3331624825
********************************************************************************
   The full molecular point group is CXv .
   The largest Abelian subgroup of the full molecular point group is C2v .
   The computational point group is C2v .
********************************************************************************
--------------------------------------------------------------------------------
   Analysis of internal coordinates specified by Z-matrix 
--------------------------------------------------------------------------------
   *The nuclear repulsion energy is   15.739626564102563 a.u.
   *There is   1 degree of freedom within the tot. symm. molecular subspace.
   *Z-matrix requests optimization of   0 coordinates.
   *The optimization is constrained.
   *The following   1 parameters can have non-zero 
    derivatives within the totally symmetric subspace:
             r    [ 1]
   *The following   0 parameters are to be optimized:

   *The following coordinates must be varied in an  unconstrained optimization.
             r    [ 1]
--------------------------------------------------------------------------------


 ----------------------------------------------------------------
         Coordinates used in calculation (QCOMP) 
 ----------------------------------------------------------------
 Z-matrix   Atomic            Coordinates (in bohr)
  Symbol    Number           X              Y              Z
 ----------------------------------------------------------------
     C         6        -0.00000000     0.00000000     1.74240694
     O         8         0.00000000     0.00000000    -1.30722069
 ----------------------------------------------------------------
 
   Interatomic distance matrix (Angstroms) 
 
                 C             O    
                [ 1]        [ 2]
  C    [ 1]     0.00000
  O    [ 2]     1.61379     0.00000
 rotcon2
   Rotational constants (in cm-1): 
          0.9440974395             0.0000000000
   Rotational constants (in MHz): 
      28303.3331624825             0.0000000000
  ECPDATA file not present.   Using default ECPDATA. 
  @GTFLGS-I, Hessian will be transformed to curvilinear coordinates.
  There are  218 basis functions.
 @CHECKOUT-I, Total execution time (CPU/WALL):        0.14/       0.35 seconds.
--executable xjoda finished with status     0 in        0.38 seconds (walltime).
 --invoking executable--
/nfs/workspaces/public/cfour_mpi/bin/xvmol
 SERIAL VERSION OF MOLECULE STARTED
********************************************************************************
                    INPUT FROM MOL FILE
********************************************************************************
INTGRL        1    0    1    0    0    0    0    0    0                         
         *** CFOUR Program System (Release V0.1) ***                            
Carbon Monoxide DBOC calculation                                                
    2    2 X  Y       0.10E-08              0    0                              
   9999.00      3.00                                                            
          6.00000000    1    5    1    1    1    1    1                         
C #1  -0.000000000000000   0.000000000000000   1.742406940087373                
   16    9                                                                      
   33980.0000000000       9.100000000000000E-005 -1.900000000000000E-005        
  0.000000000000000E+000  0.000000000000000E+000  0.000000000000000E+000        
  0.000000000000000E+000  0.000000000000000E+000  0.000000000000000E+000        
  0.000000000000000E+000                                                        
   5089.00000000000       7.040000000000000E-004 -1.510000000000000E-004        
  0.000000000000000E+000  0.000000000000000E+000  0.000000000000000E+000        
  0.000000000000000E+000  0.000000000000000E+000  0.000000000000000E+000        
  0.000000000000000E+000                                                        
   1157.00000000000       3.693000000000000E-003 -7.850000000000000E-004        
  0.000000000000000E+000  0.000000000000000E+000  0.000000000000000E+000        
  0.000000000000000E+000  0.000000000000000E+000  0.000000000000000E+000        
  0.000000000000000E+000                                                        
   326.600000000000       1.536000000000000E-002 -3.324000000000000E-003        
  0.000000000000000E+000  0.000000000000000E+000  0.000000000000000E+000        
  0.000000000000000E+000  0.000000000000000E+000  0.000000000000000E+000        
  0.000000000000000E+000                                                        
   106.100000000000       5.292900000000000E-002 -1.151200000000000E-002        
  0.000000000000000E+000  0.000000000000000E+000  0.000000000000000E+000        
  0.000000000000000E+000  0.000000000000000E+000  0.000000000000000E+000        
  0.000000000000000E+000                                                        
   38.1100000000000       0.147043000000000      -3.416000000000000E-002        
  0.000000000000000E+000  0.000000000000000E+000  0.000000000000000E+000        
  0.000000000000000E+000  0.000000000000000E+000  0.000000000000000E+000        
  0.000000000000000E+000                                                        
   14.7500000000000       0.305631000000000      -7.717300000000001E-002        
  0.000000000000000E+000  0.000000000000000E+000  0.000000000000000E+000        
  0.000000000000000E+000  0.000000000000000E+000  0.000000000000000E+000        
  0.000000000000000E+000                                                        
   6.03500000000000       0.399345000000000      -0.141493000000000             
  0.000000000000000E+000  0.000000000000000E+000  0.000000000000000E+000        
  0.000000000000000E+000  0.000000000000000E+000  0.000000000000000E+000        
  0.000000000000000E+000                                                        
   2.53000000000000       0.217051000000000      -0.118019000000000             
  0.000000000000000E+000  0.000000000000000E+000  0.000000000000000E+000        
  0.000000000000000E+000  0.000000000000000E+000  0.000000000000000E+000        
  0.000000000000000E+000                                                        
  0.735500000000000       1.589400000000000E-002  0.273806000000000             
   1.00000000000000       0.000000000000000E+000  0.000000000000000E+000        
  0.000000000000000E+000  0.000000000000000E+000  0.000000000000000E+000        
  0.000000000000000E+000                                                        
  0.290500000000000      -3.084000000000000E-003  0.586510000000000             
  0.000000000000000E+000   1.00000000000000       0.000000000000000E+000        
  0.000000000000000E+000  0.000000000000000E+000  0.000000000000000E+000        
  0.000000000000000E+000                                                        
  0.111100000000000       9.779999999999999E-004  0.285430000000000             
  0.000000000000000E+000  0.000000000000000E+000   1.00000000000000             
  0.000000000000000E+000  0.000000000000000E+000  0.000000000000000E+000        
  0.000000000000000E+000                                                        
   7.21600000000000       0.000000000000000E+000  0.000000000000000E+000        
  0.000000000000000E+000  0.000000000000000E+000  0.000000000000000E+000        
   1.00000000000000       0.000000000000000E+000  0.000000000000000E+000        
  0.000000000000000E+000                                                        
   19.5700000000000       0.000000000000000E+000  0.000000000000000E+000        
  0.000000000000000E+000  0.000000000000000E+000  0.000000000000000E+000        
  0.000000000000000E+000   1.00000000000000       0.000000000000000E+000        
  0.000000000000000E+000                                                        
   53.0730000000000       0.000000000000000E+000  0.000000000000000E+000        
  0.000000000000000E+000  0.000000000000000E+000  0.000000000000000E+000        
  0.000000000000000E+000  0.000000000000000E+000   1.00000000000000             
  0.000000000000000E+000                                                        
  4.145000000000000E-002  0.000000000000000E+000  0.000000000000000E+000        
  0.000000000000000E+000  0.000000000000000E+000  0.000000000000000E+000        
  0.000000000000000E+000  0.000000000000000E+000  0.000000000000000E+000        
   1.00000000000000                                                             
   10    8                                                                      
   34.5100000000000       5.378000000000000E-003  0.000000000000000E+000        
  0.000000000000000E+000  0.000000000000000E+000  0.000000000000000E+000        
  0.000000000000000E+000  0.000000000000000E+000  0.000000000000000E+000        
   7.91500000000000       3.613200000000000E-002  0.000000000000000E+000        
  0.000000000000000E+000  0.000000000000000E+000  0.000000000000000E+000        
  0.000000000000000E+000  0.000000000000000E+000  0.000000000000000E+000        
   2.36800000000000       0.142493000000000       0.000000000000000E+000        
  0.000000000000000E+000  0.000000000000000E+000  0.000000000000000E+000        
  0.000000000000000E+000  0.000000000000000E+000  0.000000000000000E+000        
  0.813200000000000       0.342150000000000        1.00000000000000             
  0.000000000000000E+000  0.000000000000000E+000  0.000000000000000E+000        
  0.000000000000000E+000  0.000000000000000E+000  0.000000000000000E+000        
  0.289000000000000       0.463864000000000       0.000000000000000E+000        
   1.00000000000000       0.000000000000000E+000  0.000000000000000E+000        
  0.000000000000000E+000  0.000000000000000E+000  0.000000000000000E+000        
  0.100700000000000       0.250028000000000       0.000000000000000E+000        
  0.000000000000000E+000   1.00000000000000       0.000000000000000E+000        
  0.000000000000000E+000  0.000000000000000E+000  0.000000000000000E+000        
   8.18200000000000       0.000000000000000E+000  0.000000000000000E+000        
  0.000000000000000E+000  0.000000000000000E+000   1.00000000000000             
  0.000000000000000E+000  0.000000000000000E+000  0.000000000000000E+000        
   24.1860000000000       0.000000000000000E+000  0.000000000000000E+000        
  0.000000000000000E+000  0.000000000000000E+000  0.000000000000000E+000        
   1.00000000000000       0.000000000000000E+000  0.000000000000000E+000        
   71.4940000000000       0.000000000000000E+000  0.000000000000000E+000        
  0.000000000000000E+000  0.000000000000000E+000  0.000000000000000E+000        
  0.000000000000000E+000   1.00000000000000       0.000000000000000E+000        
  3.218000000000000E-002  0.000000000000000E+000  0.000000000000000E+000        
  0.000000000000000E+000  0.000000000000000E+000  0.000000000000000E+000        
  0.000000000000000E+000  0.000000000000000E+000   1.00000000000000             
    6    6                                                                      
   1.84800000000000        1.00000000000000       0.000000000000000E+000        
  0.000000000000000E+000  0.000000000000000E+000  0.000000000000000E+000        
  0.000000000000000E+000                                                        
  0.649000000000000       0.000000000000000E+000   1.00000000000000             
  0.000000000000000E+000  0.000000000000000E+000  0.000000000000000E+000        
  0.000000000000000E+000                                                        
  0.228000000000000       0.000000000000000E+000  0.000000000000000E+000        
   1.00000000000000       0.000000000000000E+000  0.000000000000000E+000        
  0.000000000000000E+000                                                        
   8.65600000000000       0.000000000000000E+000  0.000000000000000E+000        
  0.000000000000000E+000   1.00000000000000       0.000000000000000E+000        
  0.000000000000000E+000                                                        
   33.2130000000000       0.000000000000000E+000  0.000000000000000E+000        
  0.000000000000000E+000  0.000000000000000E+000   1.00000000000000             
  0.000000000000000E+000                                                        
  7.660000000000000E-002  0.000000000000000E+000  0.000000000000000E+000        
  0.000000000000000E+000  0.000000000000000E+000  0.000000000000000E+000        
   1.00000000000000                                                             
    4    4                                                                      
   1.41900000000000        1.00000000000000       0.000000000000000E+000        
  0.000000000000000E+000  0.000000000000000E+000                                
  0.485000000000000       0.000000000000000E+000   1.00000000000000             
  0.000000000000000E+000  0.000000000000000E+000                                
   24.6940000000000       0.000000000000000E+000  0.000000000000000E+000        
   1.00000000000000       0.000000000000000E+000                                
  0.187000000000000       0.000000000000000E+000  0.000000000000000E+000        
  0.000000000000000E+000   1.00000000000000                                     
    2    2                                                                      
   1.01100000000000        1.00000000000000       0.000000000000000E+000        
  0.424000000000000       0.000000000000000E+000   1.00000000000000             
          8.00000000    1    5    1    1    1    1    1                         
O #2   0.000000000000000   0.000000000000000  -1.307220686369395                
   16    9                                                                      
   61420.0000000000       9.000000000000001E-005 -2.000000000000000E-005        
  0.000000000000000E+000  0.000000000000000E+000  0.000000000000000E+000        
  0.000000000000000E+000  0.000000000000000E+000  0.000000000000000E+000        
  0.000000000000000E+000                                                        
   9199.00000000000       6.980000000000001E-004 -1.590000000000000E-004        
  0.000000000000000E+000  0.000000000000000E+000  0.000000000000000E+000        
  0.000000000000000E+000  0.000000000000000E+000  0.000000000000000E+000        
  0.000000000000000E+000                                                        
   2091.00000000000       3.664000000000000E-003 -8.290000000000000E-004        
  0.000000000000000E+000  0.000000000000000E+000  0.000000000000000E+000        
  0.000000000000000E+000  0.000000000000000E+000  0.000000000000000E+000        
  0.000000000000000E+000                                                        
   590.900000000000       1.521800000000000E-002 -3.508000000000000E-003        
  0.000000000000000E+000  0.000000000000000E+000  0.000000000000000E+000        
  0.000000000000000E+000  0.000000000000000E+000  0.000000000000000E+000        
  0.000000000000000E+000                                                        
   192.300000000000       5.242300000000000E-002 -1.215600000000000E-002        
  0.000000000000000E+000  0.000000000000000E+000  0.000000000000000E+000        
  0.000000000000000E+000  0.000000000000000E+000  0.000000000000000E+000        
  0.000000000000000E+000                                                        
   69.3200000000000       0.145921000000000      -3.626100000000000E-002        
  0.000000000000000E+000  0.000000000000000E+000  0.000000000000000E+000        
  0.000000000000000E+000  0.000000000000000E+000  0.000000000000000E+000        
  0.000000000000000E+000                                                        
   26.9700000000000       0.305258000000000      -8.299200000000000E-002        
  0.000000000000000E+000  0.000000000000000E+000  0.000000000000000E+000        
  0.000000000000000E+000  0.000000000000000E+000  0.000000000000000E+000        
  0.000000000000000E+000                                                        
   11.1000000000000       0.398508000000000      -0.152090000000000             
  0.000000000000000E+000  0.000000000000000E+000  0.000000000000000E+000        
  0.000000000000000E+000  0.000000000000000E+000  0.000000000000000E+000        
  0.000000000000000E+000                                                        
   4.68200000000000       0.216980000000000      -0.115331000000000             
  0.000000000000000E+000  0.000000000000000E+000  0.000000000000000E+000        
  0.000000000000000E+000  0.000000000000000E+000  0.000000000000000E+000        
  0.000000000000000E+000                                                        
   1.42800000000000       1.759400000000000E-002  0.288979000000000             
   1.00000000000000       0.000000000000000E+000  0.000000000000000E+000        
  0.000000000000000E+000  0.000000000000000E+000  0.000000000000000E+000        
  0.000000000000000E+000                                                        
  0.554700000000000      -2.502000000000000E-003  0.586128000000000             
  0.000000000000000E+000   1.00000000000000       0.000000000000000E+000        
  0.000000000000000E+000  0.000000000000000E+000  0.000000000000000E+000        
  0.000000000000000E+000                                                        
  0.206700000000000       9.540000000000000E-004  0.277624000000000             
  0.000000000000000E+000  0.000000000000000E+000   1.00000000000000             
  0.000000000000000E+000  0.000000000000000E+000  0.000000000000000E+000        
  0.000000000000000E+000                                                        
   12.9740000000000       0.000000000000000E+000  0.000000000000000E+000        
  0.000000000000000E+000  0.000000000000000E+000  0.000000000000000E+000        
   1.00000000000000       0.000000000000000E+000  0.000000000000000E+000        
  0.000000000000000E+000                                                        
   34.9000000000000       0.000000000000000E+000  0.000000000000000E+000        
  0.000000000000000E+000  0.000000000000000E+000  0.000000000000000E+000        
  0.000000000000000E+000   1.00000000000000       0.000000000000000E+000        
  0.000000000000000E+000                                                        
   93.8810000000000       0.000000000000000E+000  0.000000000000000E+000        
  0.000000000000000E+000  0.000000000000000E+000  0.000000000000000E+000        
  0.000000000000000E+000  0.000000000000000E+000   1.00000000000000             
  0.000000000000000E+000                                                        
  6.959000000000000E-002  0.000000000000000E+000  0.000000000000000E+000        
  0.000000000000000E+000  0.000000000000000E+000  0.000000000000000E+000        
  0.000000000000000E+000  0.000000000000000E+000  0.000000000000000E+000        
   1.00000000000000                                                             
   10    8                                                                      
   63.4200000000000       6.044000000000000E-003  0.000000000000000E+000        
  0.000000000000000E+000  0.000000000000000E+000  0.000000000000000E+000        
  0.000000000000000E+000  0.000000000000000E+000  0.000000000000000E+000        
   14.6600000000000       4.179900000000000E-002  0.000000000000000E+000        
  0.000000000000000E+000  0.000000000000000E+000  0.000000000000000E+000        
  0.000000000000000E+000  0.000000000000000E+000  0.000000000000000E+000        
   4.45900000000000       0.161143000000000       0.000000000000000E+000        
  0.000000000000000E+000  0.000000000000000E+000  0.000000000000000E+000        
  0.000000000000000E+000  0.000000000000000E+000  0.000000000000000E+000        
   1.53100000000000       0.356731000000000        1.00000000000000             
  0.000000000000000E+000  0.000000000000000E+000  0.000000000000000E+000        
  0.000000000000000E+000  0.000000000000000E+000  0.000000000000000E+000        
  0.530200000000000       0.448309000000000       0.000000000000000E+000        
   1.00000000000000       0.000000000000000E+000  0.000000000000000E+000        
  0.000000000000000E+000  0.000000000000000E+000  0.000000000000000E+000        
  0.175000000000000       0.244940000000000       0.000000000000000E+000        
  0.000000000000000E+000   1.00000000000000       0.000000000000000E+000        
  0.000000000000000E+000  0.000000000000000E+000  0.000000000000000E+000        
   14.4750000000000       0.000000000000000E+000  0.000000000000000E+000        
  0.000000000000000E+000  0.000000000000000E+000   1.00000000000000             
  0.000000000000000E+000  0.000000000000000E+000  0.000000000000000E+000        
   42.7300000000000       0.000000000000000E+000  0.000000000000000E+000        
  0.000000000000000E+000  0.000000000000000E+000  0.000000000000000E+000        
   1.00000000000000       0.000000000000000E+000  0.000000000000000E+000        
   126.140000000000       0.000000000000000E+000  0.000000000000000E+000        
  0.000000000000000E+000  0.000000000000000E+000  0.000000000000000E+000        
  0.000000000000000E+000   1.00000000000000       0.000000000000000E+000        
  5.348000000000000E-002  0.000000000000000E+000  0.000000000000000E+000        
  0.000000000000000E+000  0.000000000000000E+000  0.000000000000000E+000        
  0.000000000000000E+000  0.000000000000000E+000   1.00000000000000             
    6    6                                                                      
   3.77500000000000        1.00000000000000       0.000000000000000E+000        
  0.000000000000000E+000  0.000000000000000E+000  0.000000000000000E+000        
  0.000000000000000E+000                                                        
   1.30000000000000       0.000000000000000E+000   1.00000000000000             
  0.000000000000000E+000  0.000000000000000E+000  0.000000000000000E+000        
  0.000000000000000E+000                                                        
  0.444000000000000       0.000000000000000E+000  0.000000000000000E+000        
   1.00000000000000       0.000000000000000E+000  0.000000000000000E+000        
  0.000000000000000E+000                                                        
   14.9270000000000       0.000000000000000E+000  0.000000000000000E+000        
  0.000000000000000E+000   1.00000000000000       0.000000000000000E+000        
  0.000000000000000E+000                                                        
   57.5440000000000       0.000000000000000E+000  0.000000000000000E+000        
  0.000000000000000E+000  0.000000000000000E+000   1.00000000000000             
  0.000000000000000E+000                                                        
  0.154000000000000       0.000000000000000E+000  0.000000000000000E+000        
  0.000000000000000E+000  0.000000000000000E+000  0.000000000000000E+000        
   1.00000000000000                                                             
    4    4                                                                      
   2.66600000000000        1.00000000000000       0.000000000000000E+000        
  0.000000000000000E+000  0.000000000000000E+000                                
  0.859000000000000       0.000000000000000E+000   1.00000000000000             
  0.000000000000000E+000  0.000000000000000E+000                                
   26.4830000000000       0.000000000000000E+000  0.000000000000000E+000        
   1.00000000000000       0.000000000000000E+000                                
  0.324000000000000       0.000000000000000E+000  0.000000000000000E+000        
  0.000000000000000E+000   1.00000000000000                                     
    2    2                                                                      
   1.84600000000000        1.00000000000000       0.000000000000000E+000        
  0.714000000000000       0.000000000000000E+000   1.00000000000000             
FINISH                                                                          
 
********************************************************************************
 ONE- AND TWO-ELECTRON INTEGRALS OVER SYMMETRY-ADAPTED AOS ARE CALCULATED.

  SPHERICAL HARMONICS ARE USED.
  
  INTEGRALS LESS THAN  0.10E-13 ARE NEGLECTED.

  NUCLEAR REPULSION ENERGY :   15.7396265641 A.U.
  @MOLECU-I, ONE ELECTRON INTEGRALS (CPU/WALL):        0.09/       0.22 SECONDS.
  @TWOEL-I,    4426403 INTEGRALS OF SYMMETRY TYPE  I I I I
  @TWOEL-I,   19100171 INTEGRALS OF SYMMETRY TYPE  I J I J
  @TWOEL-I,   10056819 INTEGRALS OF SYMMETRY TYPE  I I J J
  @TWOEL-I,   14115122 INTEGRALS OF SYMMETRY TYPE  I J K L
  @TWOEL-I, TOTAL NUMBER OF 2-E INTEGRALS   47698515.
  @MOLECU-I, TWO ELECTRON INTEGRALS (CPU/WALL):      217.52/      71.03 SECONDS.
 @CHECKOUT-I, Total execution time (CPU/WALL):      217.62/      71.26 seconds.

Running with 14 threads/proc

--executable xvmol finished with status     0 in       71.33 seconds (walltime).
 --invoking executable--
/nfs/workspaces/public/cfour_mpi/bin/xvmol2ja
 @GETMEM-I,  Allocated    3814 MB of main memory.
 @CHECKOUT-I, Total execution time (CPU/WALL):        0.22/       0.11 seconds.
--executable xvmol2ja finished with status     0 in        0.16 seconds (walltime).
 --invoking executable--
/nfs/workspaces/public/cfour_mpi/bin/xvprop
 @GETMEM-I,  Allocated    3814 MB of main memory.
   Property integrals will be calculated.
    --------------------------------------------------------------
                                   Property evaluated at 
    Property type                X             Y             Z
    --------------------------------------------------------------
    Dipole moment               ----          ----          ----  
    Quadrupole moment           ----          ----          ----  
    Octopole moment             ----          ----          ----  
    Relativisitic corr.         ----          ----          ----  
    Second moment            0.0000000     0.0000000     0.0000000
    Electron density         0.0000000     0.0000000     1.7424069
    Electron density         0.0000000     0.0000000    -1.3072207
    Field gradient           0.0000000     0.0000000     1.7424069
    Field gradient           0.0000000     0.0000000    -1.3072207
    Potential                0.0000000     0.0000000     1.7424069
    Potential                0.0000000     0.0000000    -1.3072207
    --------------------------------------------------------------
 @CHECKOUT-I, Total execution time (CPU/WALL):        1.75/       4.31 seconds.
--executable xvprop finished with status     0 in        4.37 seconds (walltime).
 --invoking executable--
/nfs/workspaces/public/cfour_mpi/bin/xvscf
  There are  218 functions in the AO basis.

  There are 4 irreducible representations.

       Irrep        # of functions
         1                 86
         2                 52
         3                 52
         4                 28


  Parameters for SCF calculation: 
        SCF reference function:  RHF  
  Maximum number of iterations:  150
     Full symmetry point group: CXv 
     Computational point group: C2v 
        Initial density matrix: MOREAD                 
     SCF convergence tolerance: 10**(-10)
  DIIS convergence acceleration:  ON
          Latest start for DIIS:   8
                     DIIS order:   6

  Memory information:    2523578 words required.
  Fock matrices are constructed from AO integral file.
 @GETMEM-I,  Allocated      19 MB of main memory.
  Initialization and symmetry analysis required      0.001 seconds.

  Adding electric field perturbation to one-electron Hamiltonian.
  Field direction     : Z
  Field strength      : -0.0002000 a.u.

  @INITGES-I, Occupancies from core Hamiltonian:

          Alpha population by irrep:   5    1    1    0
           Beta population by irrep:   5    1    1    0


 total no. of electrons in initial guess :  0.000000000000000E+000
  --------------------------------------------------------------------
  Iteration         Total Energy            Largest Density Difference
  --------------------------------------------------------------------
       0            15.739625899332481              0.0000000000D+00
   current occupation vector 
     5  1  1  0
     5  1  1  0
       1           -93.610255678172308              0.1755144636D+02
   current occupation vector 
     5  1  1  0
     5  1  1  0
       2           -97.972036032501833              0.1755143218D+02
   current occupation vector 
     5  1  1  0
     5  1  1  0
       3          -100.321728617001128              0.6728144537D+01
   current occupation vector 
     5  1  1  0
     5  1  1  0
       4           -95.183618339272115              0.6724145868D+01
   current occupation vector 
     5  1  1  0
     5  1  1  0
       5          -100.228110301973373              0.6980472887D+01
   current occupation vector 
     5  1  1  0
     5  1  1  0
       6           -94.990381553252320              0.6980872536D+01
   current occupation vector 
     5  1  1  0
     5  1  1  0
       7          -100.219360231274877              0.6994293863D+01
   current occupation vector 
     5  1  1  0
     5  1  1  0
       8           -94.984394900202389              0.6994318997D+01
   current occupation vector 
     5  1  1  0
     5  1  1  0
       9          -107.423463198627616              0.5879333833D+01
   current occupation vector 
     5  1  1  0
     5  1  1  0
      10          -110.573509599961497              0.1328527912D+01
   current occupation vector 
     5  1  1  0
     5  1  1  0
      11          -112.378648970892101              0.1045007226D+01
   current occupation vector 
     5  1  1  0
     5  1  1  0
      12          -112.503032182237718              0.4923878421D+00
   current occupation vector 
     5  1  1  0
     5  1  1  0
      13          -112.519911361759398              0.1266518987D+00
   current occupation vector 
     5  1  1  0
     5  1  1  0
      14          -112.525055862341475              0.8290514154D-01
   current occupation vector 
     5  1  1  0
     5  1  1  0
      15          -112.525436073392257              0.2401299963D-01
   current occupation vector 
     5  1  1  0
     5  1  1  0
      16          -112.525767166316285              0.3424845415D-01
   current occupation vector 
     5  1  1  0
     5  1  1  0
      17          -112.525894665469252              0.2434894435D-01
   current occupation vector 
     5  1  1  0
     5  1  1  0
      18          -112.525921063312182              0.1448832599D-01
   current occupation vector 
     5  1  1  0
     5  1  1  0
      19          -112.525921297146738              0.1253963218D-02
   current occupation vector 
     5  1  1  0
     5  1  1  0
      20          -112.525921298888846              0.7886078239D-04
   current occupation vector 
     5  1  1  0
     5  1  1  0
      21          -112.525921298995996              0.1532608165D-04
   current occupation vector 
     5  1  1  0
     5  1  1  0
      22          -112.525921298995144              0.2155344895D-05
   current occupation vector 
     5  1  1  0
     5  1  1  0
      23          -112.525921298996820              0.3418616543D-06
   current occupation vector 
     5  1  1  0
     5  1  1  0
      24          -112.525921298996224              0.1703272225D-06
   current occupation vector 
     5  1  1  0
     5  1  1  0
      25          -112.525921298997503              0.5145734727D-08
   current occupation vector 
     5  1  1  0
     5  1  1  0
      26          -112.525921298996053              0.3745303623D-08
   current occupation vector 
     5  1  1  0
     5  1  1  0
      27          -112.525921298996138              0.5404772851D-08
   current occupation vector 
     5  1  1  0
     5  1  1  0
      28          -112.525921298995627              0.1849784992D-08
   current occupation vector 
     5  1  1  0
     5  1  1  0
      29          -112.525921298995826              0.1824991269D-09
   current occupation vector 
     5  1  1  0
     5  1  1  0
      30          -112.525921298997503              0.1582851628D-09
   current occupation vector 
     5  1  1  0
     5  1  1  0
      31          -112.525921298995797              0.5462370556D-09
   current occupation vector 
     5  1  1  0
     5  1  1  0
      32          -112.525921298995883              0.5349505283D-09
   current occupation vector 
     5  1  1  0
     5  1  1  0

  SCF has converged.

 Density matrix saved to file den.dat
 total electron number:   13.9999999999998     
     E(SCF)=      -112.525921298996082              0.1323519072D-10

  Eigenvector printing suppressed.

 @PUTMOS-I, Writing converged MOs to NEWMOS. 
 @PUTMOS-I, Symmetry   1 Full Blocks 21 Partial Blocksize   2
 @PUTMOS-I, Symmetry   2 Full Blocks 13 Partial Blocksize   0
 @PUTMOS-I, Symmetry   3 Full Blocks 13 Partial Blocksize   0
 @PUTMOS-I, Symmetry   4 Full Blocks  7 Partial Blocksize   0
 @PUTFOCK-I, Writing converged Fock matrix to NEWFOCK. 
 @PUTFOCK-I, Symmetry   1 Full Blocks 21 Partial Blocksize   2
 @PUTFOCK-I, Symmetry   2 Full Blocks 13 Partial Blocksize   0
 @PUTFOCK-I, Symmetry   3 Full Blocks 13 Partial Blocksize   0
 @PUTFOCK-I, Symmetry   4 Full Blocks  7 Partial Blocksize   0


 
  ORBITAL EIGENVALUES (ALPHA)  (1H = 27.2113834 eV)

       MO #        E(hartree)               E(eV)           FULLSYM    COMPSYM
       ----   --------------------   --------------------   -------   ---------
    1     1         -20.6439200081        -561.7496222186     SG+        A1 (1)
    2     2         -11.5248511867        -313.6071442690     SG+        A1 (1)
    3     3          -1.2723114181         -34.6213538013     SG+        A1 (1)
    4     4          -0.8062807338         -21.9400141750     SG+        A1 (1)
    5     5          -0.5275867001         -14.3563639726     SG+        A1 (1)
    6    87          -0.4950687866         -13.4715065627      PI        B1 (2)
    7   139          -0.4950687866         -13.4715065627      PI        B2 (3)
  +++++++++++++++++++++++++++++++++++++++++++++++++++++++++++++++++++++++++++++
    8    88          -0.0093623420          -0.2547622785      PI        B1 (2)
    9   140          -0.0093623420          -0.2547622785      PI        B2 (3)
   10     6           0.0585394448           1.5929392769     SG+        A1 (1)
   11     7           0.0691662996           1.8821106971     SG+        A1 (1)
   12   141           0.0811843962           2.2091397317      PI        B2 (3)
   13    89           0.0811843962           2.2091397317      PI        B1 (2)
   14     8           0.1573193271           4.2808765247     SG+        A1 (1)
   15   142           0.1805904423           4.9141157645      PI        B2 (3)
   16    90           0.1805904423           4.9141157645      PI        B1 (2)
   17     9           0.1940092968           5.2792613589     SG+        A1 (1)
   18   191           0.2213262607           6.0225937375      DE        A2 (4)
   19    10           0.2213262607           6.0225937375      DE        A1 (1)
   20   143           0.2839107764           7.7256049888      PI        B2 (3)
   21    91           0.2839107764           7.7256049888      PI        B1 (2)
   22    11           0.3008037169           8.1852852692     SG+        A1 (1)
   23    12           0.3085943782           8.3972799396     SG+        A1 (1)
   24   144           0.4054562459          11.0330253600      PI        B2 (3)
   25    92           0.4054562459          11.0330253600      PI        B1 (2)
   26    13           0.4174670899          11.3598570409     SG+        A1 (1)
   27    14           0.5139924318          13.9864451276     SG+        A1 (1)
   28    15           0.5502677317          14.9735462204      DE        A1 (1)
   29   192           0.5502677317          14.9735462204      DE        A2 (4)
   30   145           0.6234263525          16.9642934991      PI        B2 (3)
   31    93           0.6234263525          16.9642934991      PI        B1 (2)
   32    16           0.7036337643          19.1468481325     SG+        A1 (1)
   33   146           0.7303581178          19.8740547620      PH        B2 (3)
   34    94           0.7303581178          19.8740547620      PH        B1 (2)
   35   193           0.7371795561          20.0596755370      DE        A2 (4)
   36    17           0.7371795561          20.0596755370      DE        A1 (1)
   37   147           0.7746678448          21.0797837323      PI        B2 (3)
   38    95           0.7746678448          21.0797837323      PI        B1 (2)
   39    18           0.8170993869          22.2344046926     SG+        A1 (1)
   40    19           0.8573672733          23.3301495888      DE        A1 (1)
   41   194           0.8573672733          23.3301495888      DE        A2 (4)
   42   148           0.8812456636          23.9799136225      PI        B2 (3)
   43    96           0.8812456636          23.9799136225      PI        B1 (2)
   44    20           0.8881919676          24.1689321630     SG+        A1 (1)
   45   149           1.0420595718          28.3558825328      PI        B2 (3)
   46    97           1.0420595718          28.3558825328      PI        B1 (2)
   47    21           1.1351774938          30.8897500115     SG+        A1 (1)
   48    22           1.3557100758          36.8907466527     SG+        A1 (1)
   49   150           1.4205139013          38.6541483940      PH        B2 (3)
   50    98           1.4205139013          38.6541483940      PH        B1 (2)
   51   151           1.4822481602          40.3340229809      PI        B2 (3)
   52    99           1.4822481602          40.3340229809      PI        B1 (2)
   53    23           1.5861203875          43.1605299833      DE        A1 (1)
   54   195           1.5861203875          43.1605299833      DE        A2 (4)
   55    24           1.5875976310          43.2007278211     SG+        A1 (1)
   56   152           1.6390872477          44.6018315237      PI        B2 (3)
   57   100           1.6390872477          44.6018315237      PI        B1 (2)
   58    25           1.6737427579          45.5448558992      DE        A1 (1)
   59   196           1.6737427579          45.5448558992      DE        A2 (4)
   60    26           1.9199495753          52.2444840008     SG+        A1 (1)
   61    27           1.9403885835          52.8006576916     SG+        A1 (1)
   62   153           2.0641016071          56.1670602083      PI        B2 (3)
   63   101           2.0641016071          56.1670602084      PI        B1 (2)
   64   197           2.0656849019          56.2101438494      PI        A2 (4)
   65    28           2.0656849019          56.2101438494      PI        A1 (1)
   66   198           2.1234044381          57.7807722796      DE        A2 (4)
   67    29           2.1234044381          57.7807722796      DE        A1 (1)
   68   154           2.1968994015          59.7806719063      PH        B2 (3)
   69   102           2.1968994015          59.7806719063      PH        B1 (2)
   70   155           2.2072488475          60.0622946474      PH        B2 (3)
   71   103           2.2072488475          60.0622946474      PH        B1 (2)
   72    30           2.2181278753          60.3583280455     SG+        A1 (1)
   73   104           2.2188757846          60.3786796916      PI        B1 (2)
   74   156           2.2188757846          60.3786796916      PI        B2 (3)
   75    31           2.2804520198          62.0542542348      DE        A1 (1)
   76   199           2.2804520198          62.0542542348      DE        A2 (4)
   77    32           2.3882159445          64.9866597069     SG+        A1 (1)
   78   157           2.5022992952          68.0910255044      PI        B2 (3)
   79   105           2.5022992952          68.0910255044      PI        B1 (2)
   80   158           2.5995103909          70.7362738981      PI        B2 (3)
   81   106           2.5995103909          70.7362738981      PI        B1 (2)
   82    33           2.6237734245          71.3965046081      DE        A1 (1)
   83   200           2.6237734245          71.3965046081      DE        A2 (4)
   84    34           2.6431330717          71.9233073913     SG+        A1 (1)
   85    35           2.8942465555          78.7564526747     SG+        A1 (1)
   86   159           3.3654353435          91.5781514409      PI        B2 (3)
   87   107           3.3654353435          91.5781514409      PI        B1 (2)
   88   201           3.7109780447         100.9808463625      PI        A2 (4)
   89    36           3.7109780447         100.9808463625      PI        A1 (1)
   90    37           3.8843641900         105.6989232393     SG+        A1 (1)
   91   160           3.9042184599         106.2391853910      PH        B2 (3)
   92   108           3.9042184599         106.2391853910      PH        B1 (2)
   93    38           4.1032335945         111.6546625196     SG+        A1 (1)
   94   161           4.1411187195         112.6855691824      PH        B2 (3)
   95   109           4.1411187195         112.6855691824      PH        B1 (2)
   96   162           4.1543854536         113.0465753681      PI        B2 (3)
   97   110           4.1543854536         113.0465753681      PI        B1 (2)
   98   202           4.1731465369         113.5570903992      DE        A2 (4)
   99    39           4.1731465369         113.5570903992      DE        A1 (1)
  100   203           4.2975568545         116.9424672517      DE        A2 (4)
  101    40           4.2975568545         116.9424672517      DE        A1 (1)
  102    41           4.3843896495         119.3053077263     SG+        A1 (1)
  103   163           4.5175562664         122.9289555973      PI        B2 (3)
  104   111           4.5175562664         122.9289555973      PI        B1 (2)
  105   204           4.6528811017         126.6113315725      DE        A2 (4)
  106    42           4.6528811017         126.6113315725      DE        A1 (1)
  107    43           4.8043952521         130.7342412104     SG+        A1 (1)
  108   112           5.1292443091         139.5738334460      PI        B1 (2)
  109   164           5.1292443091         139.5738334461      PI        B2 (3)
  110    44           5.1782113625         140.9062947104     SG+        A1 (1)
  111   113           5.3480309626         145.5273209595      PI        B1 (2)
  112   165           5.3480309626         145.5273209596      PI        B2 (3)
  113    45           5.8229190352         158.4496823741      PI        A1 (1)
  114   205           5.8229190352         158.4496823741      PI        A2 (4)
  115   114           5.8939312233         160.3820222496      PH        B1 (2)
  116   166           5.8939312233         160.3820222496      PH        B2 (3)
  117    46           6.0205917571         163.8286305968     SG+        A1 (1)
  118   206           6.0848124841         165.5761654218      DE        A2 (4)
  119    47           6.0848124841         165.5761654218      DE        A1 (1)
  120   115           6.1200325210         166.5345513493      PI        B1 (2)
  121   167           6.1200325210         166.5345513493      PI        B2 (3)
  122    48           6.1740954946         168.0056796510     SG+        A1 (1)
  123   207           6.2923316259         171.2230483534      DE        A2 (4)
  124    49           6.2923316259         171.2230483534      DE        A1 (1)
  125   116           6.3486881208         172.7565865426      PH        B1 (2)
  126   168           6.3486881208         172.7565865426      PH        B2 (3)
  127    50           6.4820280504         176.3849504886      DE        A1 (1)
  128   208           6.4820280504         176.3849504886      DE        A2 (4)
  129   117           6.7640868683         184.0601611230      PI        B1 (2)
  130   169           6.7640868683         184.0601611230      PI        B2 (3)
  131    51           7.0822382052         192.7174991306     SG+        A1 (1)
  132   118           7.1893103012         195.6310789868      PI        B1 (2)
  133   170           7.1893103012         195.6310789868      PI        B2 (3)
  134    52           7.7222621114         210.1334350281     SG+        A1 (1)
  135    53           9.5072901165         258.7065164546     SG+        A1 (1)
  136   119           9.6967519421         263.8620348308      PI        B1 (2)
  137   171           9.6967519421         263.8620348309      PI        B2 (3)
  138   209          10.6599205174         290.0711842132      PI        A2 (4)
  139    54          10.6599205174         290.0711842132      PI        A1 (1)
  140    55          10.6793953916         290.6011224810     SG+        A1 (1)
  141   120          10.7336832978         292.0783715101      PH        B1 (2)
  142   172          10.7336832978         292.0783715101      PH        B2 (3)
  143    56          10.9544793927         298.0865387020      DE        A1 (1)
  144   210          10.9544793927         298.0865387020      DE        A2 (4)
  145   121          10.9782204063         298.7325645267      PI        B1 (2)
  146   173          10.9782204063         298.7325645267      PI        B2 (3)
  147    57          11.1525242105         303.4756121700     SG+        A1 (1)
  148   174          11.8964391922         323.7185679550      PH        B2 (3)
  149   122          11.8964391922         323.7185679550      PH        B1 (2)
  150   211          11.9857454325         326.1487142973      DE        A2 (4)
  151    58          11.9857454325         326.1487142974      DE        A1 (1)
  152   175          12.3114579987         335.0118038143      PI        B2 (3)
  153   123          12.3114579987         335.0118038143      PI        B1 (2)
  154    59          12.5574278041         341.7049824941     SG+        A1 (1)
  155   212          12.7258838879         346.2889055766      DE        A2 (4)
  156    60          12.7258838879         346.2889055766      DE        A1 (1)
  157   176          13.1071655487         356.6641070338      PI        B2 (3)
  158   124          13.1071655487         356.6641070338      PI        B1 (2)
  159    61          13.4573197319         366.1922867608     SG+        A1 (1)
  160    62          17.3131775738         471.1155128318     SG+        A1 (1)
  161   125          18.7046720961         508.9800037775      PI        B1 (2)
  162   177          18.7046720961         508.9800037779      PI        B2 (3)
  163    63          19.5921705680         533.1300649635     SG+        A1 (1)
  164   213          26.2506743210         714.3171634563      DE        A2 (4)
  165    64          26.2506743210         714.3171634563      DE        A1 (1)
  166   126          26.5298066508         721.9127403016      PI        B1 (2)
  167   178          26.5298066508         721.9127403016      PI        B2 (3)
  168    65          26.9868708674         734.3500899386     SG+        A1 (1)
  169   127          33.4034548829         908.9542177029      PI        B1 (2)
  170   179          33.4034548829         908.9542177032      PI        B2 (3)
  171    66          34.2966260481         933.2586407206     SG+        A1 (1)
  172    67          35.5515638931         967.4072355647     SG+        A1 (1)
  173   214          47.0742988159        1280.9567933647      DE        A2 (4)
  174    68          47.0742988159        1280.9567933648      DE        A1 (1)
  175   180          47.2632419795        1286.0981982307      PI        B2 (3)
  176   128          47.2632419795        1286.0981982307      PI        B1 (2)
  177    69          47.4669604275        1291.6416590249     SG+        A1 (1)
  178    70          63.7370264792        1734.3726643022     SG+        A1 (1)
  179   129          66.2918017795        1803.8916344997      PI        B1 (2)
  180   181          66.2918017795        1803.8916345000      PI        B2 (3)
  181    71          66.9473104627        1821.7289325986     SG+        A1 (1)
  182   182          98.5039535644        2680.4288468565      PH        B2 (3)
  183   130          98.5039535644        2680.4288468565      PH        B1 (2)
  184   215          98.5178253439        2680.8063171658      DE        A2 (4)
  185    72          98.5178253439        2680.8063171658      DE        A1 (1)
  186   183          98.5308440361        2681.1605737929      PI        B2 (3)
  187   131          98.5308440361        2681.1605737929      PI        B1 (2)
  188    73          98.5401234008        2681.4130781435     SG+        A1 (1)
  189    74         103.3125257087        2811.2767470822      DE        A1 (1)
  190   216         103.3125257088        2811.2767470833      DE        A2 (4)
  191   132         103.3146580978        2811.3347723383      PH        B1 (2)
  192   184         103.3146580978        2811.3347723383      PH        B2 (3)
  193   133         103.3353762794        2811.8985427231      PI        B1 (2)
  194   185         103.3353762794        2811.8985427231      PI        B2 (3)
  195    75         103.3444241102        2812.1447467148     SG+        A1 (1)
  196   217         114.9547416824        3128.0775495689      DE        A2 (4)
  197    76         114.9547416824        3128.0775495689      DE        A1 (1)
  198   186         115.0906295496        3131.7752464210      PI        B2 (3)
  199   134         115.0906295496        3131.7752464210      PI        B1 (2)
  200    77         115.2981188659        3137.4213177591     SG+        A1 (1)
  201   135         116.7112252379        3175.8738970321      PI        B1 (2)
  202   187         116.7112252379        3175.8738970326      PI        B2 (3)
  203    78         117.4377159816        3195.6427151968     SG+        A1 (1)
  204    79         121.8323048133        3315.2255567805     SG+        A1 (1)
  205   218         198.5568555604        5403.0067233515      DE        A2 (4)
  206    80         198.5568555604        5403.0067233516      DE        A1 (1)
  207   188         198.6598966220        5405.8106131855      PI        B2 (3)
  208   136         198.6598966220        5405.8106131856      PI        B1 (2)
  209    81         198.7646490001        5408.6610703090     SG+        A1 (1)
  210    82         216.2619431347        5884.7866494675     SG+        A1 (1)
  211   137         224.7752769582        6116.4462401496      PI        B1 (2)
  212   189         224.7752769582        6116.4462401498      PI        B2 (3)
  213    83         225.2926910899        6130.5257944657     SG+        A1 (1)
  214   138         395.2462633543       10755.1976095505      PI        B1 (2)
  215   190         395.2462633543       10755.1976095513      PI        B2 (3)
  216    84         395.8105097129       10770.5515335461     SG+        A1 (1)
  217    85         508.5725014776       13838.9613244036     SG+        A1 (1)
  218    86         895.0751209473       24356.2322878978     SG+        A1 (1)


  VSCF finished.

 @CHECKOUT-I, Total execution time (CPU/WALL):       38.33/      31.57 seconds.
--executable xvscf finished with status     0 in       31.68 seconds (walltime).
 --invoking executable--
/nfs/workspaces/public/cfour_mpi/bin/xvtran
 @GETMEM-I,  Allocated    3814 MB of main memory.
  Full RHF integral transformation
  Transformation of IIII integrals :
  1 pass through the AO integral file was required.
     4426403 AO integrals were read.
     8614545 MO integrals were written to HF2.
  Transformation of IIJJ integrals :
  1 pass through the AO integral file was required.
    10056819 AO integrals were read.
    14363418 MO integrals were written to HF2.
  Transformation of IJIJ integrals :
  1 pass through the AO integral file was required.
    19100171 AO integrals were read.
    26688352 MO integrals were written to HF2.
  Transformation of IJKL integrals :
  1 pass through the AO integral file was required.
    14115122 AO integrals were read.
    18068094 MO integrals were written to HF2.
  Summary of active molecular orbitals: 
------------------------------------------------------------------------
 
  Index      Eigenvalue    Symmetry    Index      Eigenvalue    Symmetry
------------------------------------------------------------------------
     1       -20.6439200        1       110         4.1411187        2
     2       -11.5248512        1       111         4.1543855        2
     3        -1.2723114        1       112         4.5175563        2
     4        -0.8062807        1       113         5.1292443        2
     5        -0.5275867        1       114         5.3480310        2
     6        -0.4950688        2       115         5.8939312        2
     7        -0.4950688        3       116         6.1200325        2
     8         0.0585394        1       117         6.3486881        2
     9         0.0691663        1       118         6.7640869        2
    10         0.1573193        1       119         7.1893103        2
    11         0.1940093        1       120         9.6967519        2
    12         0.2213263        1       121        10.7336833        2
    13         0.3008037        1       122        10.9782204        2
    14         0.3085944        1       123        11.8964392        2
    15         0.4174671        1       124        12.3114580        2
    16         0.5139924        1       125        13.1071655        2
    17         0.5502677        1       126        18.7046721        2
    18         0.7036338        1       127        26.5298067        2
    19         0.7371796        1       128        33.4034549        2
    20         0.8170994        1       129        47.2632420        2
    21         0.8573673        1       130        66.2918018        2
    22         0.8881920        1       131        98.5039536        2
    23         1.1351775        1       132        98.5308440        2
    24         1.3557101        1       133       103.3146581        2
    25         1.5861204        1       134       103.3353763        2
    26         1.5875976        1       135       115.0906295        2
    27         1.6737428        1       136       116.7112252        2
    28         1.9199496        1       137       198.6598966        2
    29         1.9403886        1       138       224.7752770        2
    30         2.0656849        1       139       395.2462634        2
    31         2.1234044        1       140        -0.0093623        3
    32         2.2181279        1       141         0.0811844        3
    33         2.2804520        1       142         0.1805904        3
    34         2.3882159        1       143         0.2839108        3
    35         2.6237734        1       144         0.4054562        3
    36         2.6431331        1       145         0.6234264        3
    37         2.8942466        1       146         0.7303581        3
    38         3.7109780        1       147         0.7746678        3
    39         3.8843642        1       148         0.8812457        3
    40         4.1032336        1       149         1.0420596        3
    41         4.1731465        1       150         1.4205139        3
    42         4.2975569        1       151         1.4822482        3
    43         4.3843896        1       152         1.6390872        3
    44         4.6528811        1       153         2.0641016        3
    45         4.8043953        1       154         2.1968994        3
    46         5.1782114        1       155         2.2072488        3
    47         5.8229190        1       156         2.2188758        3
    48         6.0205918        1       157         2.5022993        3
    49         6.0848125        1       158         2.5995104        3
    50         6.1740955        1       159         3.3654353        3
    51         6.2923316        1       160         3.9042185        3
    52         6.4820281        1       161         4.1411187        3
    53         7.0822382        1       162         4.1543855        3
    54         7.7222621        1       163         4.5175563        3
    55         9.5072901        1       164         5.1292443        3
    56        10.6599205        1       165         5.3480310        3
    57        10.6793954        1       166         5.8939312        3
    58        10.9544794        1       167         6.1200325        3
    59        11.1525242        1       168         6.3486881        3
    60        11.9857454        1       169         6.7640869        3
    61        12.5574278        1       170         7.1893103        3
    62        12.7258839        1       171         9.6967519        3
    63        13.4573197        1       172        10.7336833        3
    64        17.3131776        1       173        10.9782204        3
    65        19.5921706        1       174        11.8964392        3
    66        26.2506743        1       175        12.3114580        3
    67        26.9868709        1       176        13.1071655        3
    68        34.2966260        1       177        18.7046721        3
    69        35.5515639        1       178        26.5298067        3
    70        47.0742988        1       179        33.4034549        3
    71        47.4669604        1       180        47.2632420        3
    72        63.7370265        1       181        66.2918018        3
    73        66.9473105        1       182        98.5039536        3
    74        98.5178253        1       183        98.5308440        3
    75        98.5401234        1       184       103.3146581        3
    76       103.3125257        1       185       103.3353763        3
    77       103.3444241        1       186       115.0906295        3
    78       114.9547417        1       187       116.7112252        3
    79       115.2981189        1       188       198.6598966        3
    80       117.4377160        1       189       224.7752770        3
    81       121.8323048        1       190       395.2462634        3
    82       198.5568556        1       191         0.2213263        4
    83       198.7646490        1       192         0.5502677        4
    84       216.2619431        1       193         0.7371796        4
    85       225.2926911        1       194         0.8573673        4
    86       395.8105097        1       195         1.5861204        4
    87       508.5725015        1       196         1.6737428        4
    88       895.0751209        1       197         2.0656849        4
    89        -0.0093623        2       198         2.1234044        4
    90         0.0811844        2       199         2.2804520        4
    91         0.1805904        2       200         2.6237734        4
    92         0.2839108        2       201         3.7109780        4
    93         0.4054562        2       202         4.1731465        4
    94         0.6234264        2       203         4.2975569        4
    95         0.7303581        2       204         4.6528811        4
    96         0.7746678        2       205         5.8229190        4
    97         0.8812457        2       206         6.0848125        4
    98         1.0420596        2       207         6.2923316        4
    99         1.4205139        2       208         6.4820281        4
   100         1.4822482        2       209        10.6599205        4
   101         1.6390872        2       210        10.9544794        4
   102         2.0641016        2       211        11.9857454        4
   103         2.1968994        2       212        12.7258839        4
   104         2.2072488        2       213        26.2506743        4
   105         2.2188758        2       214        47.0742988        4
   106         2.5022993        2       215        98.5178253        4
   107         2.5995104        2       216       103.3125257        4
   108         3.3654353        2       217       114.9547417        4
   109         3.9042185        2       218       198.5568556        4
------------------------------------------------------------------------
  -20.6439200080726       -11.5248511866905       -1.27231141806993     
 -0.806280733781903      -0.527586700078665      -0.495068786641456     
 -0.495068786641445       5.853944481680470E-002  6.916629961185347E-002
  0.157319327054277       0.194009296819061       0.221326260741923     
  0.300803716917892       0.308594378173378       0.417467089927360     
  0.513992431844618       0.550267731716616       0.703633764259573     
  0.737179556149525       0.817099386892952       0.857367273315275     
  0.888191967592261        1.13517749382323        1.35571007583185     
   1.58612038751722        1.58759763096301        1.67374275793529     
   1.91994957525115        1.94038858353804        2.06568490190795     
   2.12340443814294        2.21812787531865        2.28045201975455     
   2.38821594446744        2.62377342447550        2.64313307170172     
[...]
 Convergence information after    15 iterations: 
 Largest element of residual vector : -0.12231592E-05.
 Largest element of DIIS residual   : -0.66316707E-06.
 Convergence information after    16 iterations: 
 Largest element of residual vector : -0.65877856E-06.
 Largest element of DIIS residual   : -0.22893340E-06.
 Convergence information after    17 iterations: 
 Largest element of residual vector : -0.30259292E-06.
 Largest element of DIIS residual   : -0.14709627E-06.
 Convergence information after    18 iterations: 
 Largest element of residual vector : -0.77863285E-07.
 Largest element of DIIS residual   : -0.29011386E-07.
 Perturbed amplitude equations converged in    18 iterations.
  Dominant contributions to perturbed wavefunction:
    7    7  140   45  -0.2351853386 ABAB
    7    7   45  140  -0.2351853386 ABAB
    7    7  140   22  -0.2193910392 ABAB
    7    7   22  140  -0.2193910392 ABAB
    7    7  140   39  -0.1960623761 ABAB
    7    7   39  140  -0.1960623761 ABAB
    7    0   36    0   0.1859996455 AA  
    7    7  140   28   0.1820541868 ABAB
    7    7   28  140   0.1820541868 ABAB
    7    7  140   57  -0.1592405640 ABAB
    7    7   57  140  -0.1592405640 ABAB
    7    0   45    0   0.1572519034 AA  
    7    7  140   32  -0.1570504402 ABAB
    7    7   32  140  -0.1570504402 ABAB
    7    0   39    0   0.1514823893 AA  
    7    7  140   29  -0.1505008162 ABAB
    7    7   29  140  -0.1505008162 ABAB
    7    0   22    0   0.1477824242 AA  
    7    6   45   89  -0.1466124857 ABAB
    6    7   89   45  -0.1466124857 ABAB
  norm of converged amps    1.64348263829378     
 Starting iterative solution of the perturbed Lambda equations.
 The DIIS procedure is used to accelerate convergence.
 Convergence criterion is 10**(-7).
 Maximum number of iterations is 100.
 Convergence information after     1 iterations: 
 Largest element of residual vector :  0.78391733E-01.
 Largest element of DIIS residual   :  0.78391733E-01.
 Convergence information after     2 iterations: 
 Largest element of residual vector :  0.17174217E-01.
 Largest element of DIIS residual   :  0.13031530E-01.
 Convergence information after     3 iterations: 
 Largest element of residual vector :  0.70511815E-02.
 Largest element of DIIS residual   : -0.62568591E-02.
 Convergence information after     4 iterations: 
 Largest element of residual vector : -0.36944825E-02.
 Largest element of DIIS residual   : -0.33769351E-02.
 Convergence information after     5 iterations: 
 Largest element of residual vector : -0.32833669E-02.
 Largest element of DIIS residual   : -0.26889084E-02.
 Convergence information after     6 iterations: 
 Largest element of residual vector : -0.17632349E-02.
 Largest element of DIIS residual   : -0.78451997E-03.
 Convergence information after     7 iterations: 
 Largest element of residual vector : -0.82849781E-03.
 Largest element of DIIS residual   : -0.41050433E-03.
 Convergence information after     8 iterations: 
 Largest element of residual vector : -0.30042653E-03.
 Largest element of DIIS residual   : -0.18981583E-03.
 Convergence information after     9 iterations: 
 Largest element of residual vector : -0.13068530E-03.
 Largest element of DIIS residual   : -0.74253295E-04.
 Convergence information after    10 iterations: 
 Largest element of residual vector : -0.65705672E-04.
 Largest element of DIIS residual   : -0.31964518E-04.
 Convergence information after    11 iterations: 
 Largest element of residual vector : -0.15682544E-04.
 Largest element of DIIS residual   : -0.65034621E-05.
 Convergence information after    12 iterations: 
 Largest element of residual vector : -0.59094488E-05.
 Largest element of DIIS residual   : -0.36270864E-05.
 Convergence information after    13 iterations: 
 Largest element of residual vector : -0.18344191E-05.
 Largest element of DIIS residual   : -0.16245288E-05.
 Convergence information after    14 iterations: 
 Largest element of residual vector : -0.15328531E-05.
 Largest element of DIIS residual   : -0.95498033E-06.
 Convergence information after    15 iterations: 
 Largest element of residual vector : -0.79305435E-06.
 Largest element of DIIS residual   : -0.42623062E-06.
 Convergence information after    16 iterations: 
 Largest element of residual vector : -0.40650783E-06.
 Largest element of DIIS residual   : -0.14106734E-06.
 Convergence information after    17 iterations: 
 Largest element of residual vector : -0.18935789E-06.
 Largest element of DIIS residual   : -0.91137690E-07.
 Perturbed Lambda equations converged in    17 iterations.
  Dominant contributions to perturbed wavefunction:
    7    7  140   45  -0.1904288945 ABAB
    7    7   45  140  -0.1904288945 ABAB
    7    7  140   22  -0.1768773045 ABAB
    7    7   22  140  -0.1768773045 ABAB
    7    7  140   39  -0.1567912450 ABAB
    7    7   39  140  -0.1567912450 ABAB
    7    7  140   28   0.1495062228 ABAB
    7    7   28  140   0.1495062228 ABAB
    7    7  140   57  -0.1278211138 ABAB
    7    7   57  140  -0.1278211138 ABAB
    7    7  140   32  -0.1272967995 ABAB
    7    7   32  140  -0.1272967995 ABAB
    7    7  140   29  -0.1181669687 ABAB
    7    7   29  140  -0.1181669687 ABAB
    7    6   45   89  -0.1176950920 ABAB
    6    7   89   45  -0.1176950920 ABAB
    7    7  140   54   0.1103261352 ABAB
    7    7   54  140   0.1103261352 ABAB
    7    6   22   89  -0.1085061795 ABAB
    6    7   89   22  -0.1085061795 ABAB
        The DBOC first-order density matrix is being calculated 
             (Symmetry block 3, perturbation   2)
 term   2.82051372277092     
 final tnorm  0.783717396073142     
  norm contr. I: |<0|L dT/dx|0>|^2   0.000000000000000E+000
  norm contr. II: <0|[nabla(1+L)e-T][nabla e^T]|0>   2.82051372277092     
  total norm contribution   2.82051372277092     
 oo  9.726412801885890E-003
 vv  -21.1020776714961     
 vo  5.939636004584471E-002
  Correlated perturbed 1-el contribution to DBOC  -21.0329548986484       cm**-1
  SUM_I |dc_I/dx|^2 contribution to DBOC   10.6184151099587       cm**-1
 
 
  The total diagonal Born-Oppenheimer correction (DBOC) is:      0.0041412891 a.u.
  The total diagonal Born-Oppenheimer correction (DBOC) is:        908.907906 cm-1
 
 Total CC energy including DBOC  -113.070927422052     
 First-order density matrix is being calculated  (Symmetry block 3, perturbation   2)
 Calculation of the contributions of <pq||rs> to dI(i,j)/dx required   1.4 seconds.
 Calculation of the contributions of <pq||rs> to dI(a,b)/dx required  15.5 seconds.
 Calculation of the contributions of <pq||rs> to dI(i,a)/dx required   9.4 seconds.
 First-order Z-vector equations are solved for 1 perturbation.
 Convergence reached after  19 iterations.
        U*G(pq,rs) contribution is being calculated
             (Symmetry block 3, perturbation   2)

 CCSD contribution to force constants 

        0.0000000000        0.0000000000        0.0000000000
        0.0000000000        0.0000000000        0.0000000000
        0.0000000000        0.0000000000        0.0000000000
        0.0000000000        0.0000000000        0.0000000000
        0.0000000000        0.0000000000        0.0000000000
        0.0000000000        0.0000000000        0.0000000000
        0.0000000000        0.0000000000        0.0000000000
        0.0000000000        0.0000000000        0.0000000000
        0.0000000000        0.0000000000        0.0000000000
        0.0000000000        0.0000000000        0.0000000000
        0.0000000000        0.0000000000        0.0000000000
        0.0000000000       -5.1023395908        5.1023395908

 CCSD contribution to dipole derivatives 

        0.0000000000        0.0000000000        0.0000000000
        0.0000000000        0.0000000000        0.0000000000
        0.0000000000        0.0000000000        0.0000000000
        0.0000000000        0.0000000000       -0.0573862155
        0.0000000000        0.0000000000        0.0000000000
        0.0000000000        0.0000000000        0.0000000000
 @CHECKOUT-I, Total execution time (CPU/WALL):     1004.27/     296.60 seconds.
--executable xsdcc finished with status     0 in      296.67 seconds (walltime).
 --invoking executable--
/nfs/workspaces/public/cfour_mpi/bin/xanti
 @GETMEM-I,  Allocated    3814 MB of main memory.
 CCSD MO derivative gammas will be sorted to Mulliken order.
 @CHECKOUT-I, Total execution time (CPU/WALL):        8.56/       9.06 seconds.
--executable xanti finished with status     0 in        9.13 seconds (walltime).
 --invoking executable--
/nfs/workspaces/public/cfour_mpi/bin/xbcktrn
 @GETMEM-I,  Allocated    3814 MB of main memory.
 CCSD MO derivative gammas will be transformed to the AO basis.
 @CHECKOUT-I, Total execution time (CPU/WALL):       17.30/       5.24 seconds.
--executable xbcktrn finished with status     0 in        5.27 seconds (walltime).
 --invoking executable--
/nfs/workspaces/public/cfour_mpi/bin/xvdint
 @GETMEM-I,  Allocated    3814 MB of main memory.
 One- and two-electron integral derivatives are calculated
 for RHF-CC/MBPT hessians and dipole derivatives.
 Spherical gaussians are used.
  magnet F F
                    8722  records have been written to the Sort file.
  Total length of Sort file :             178609116  words.
 Evaluation of 2el integral derivatives

                      Two-electron integral gradient
                      ------------------------------

                         C #1 z     0.0000000000
                         O #2 z     0.0000000000


 C #1       0.0000000000            0.0762213372            0.0000000000
 O #2       0.0000000000           -0.0762213372            0.0000000000


 Evaluation of 2e integral derivatives required  257.21 seconds.
  contribution to Hessian
        0.0000000000        0.0000000000        0.0000000000
        0.0000000000        0.0762213372       -0.0762213372
 @CHECKOUT-I, Total execution time (CPU/WALL):      257.19/      63.74 seconds.
--executable xvdint finished with status     0 in       63.79 seconds (walltime).
 --invoking executable--
/nfs/workspaces/public/cfour_mpi/bin/xanti
 @GETMEM-I,  Allocated    3814 MB of main memory.
 CCSD MO gammas will be sorted to Mulliken order.
 @CHECKOUT-I, Total execution time (CPU/WALL):       10.42/       8.98 seconds.
--executable xanti finished with status     0 in        9.01 seconds (walltime).
 --invoking executable--
/nfs/workspaces/public/cfour_mpi/bin/xbcktrn
 @GETMEM-I,  Allocated    3814 MB of main memory.
 CCSD MO gammas will be transformed to the AO basis.
 @CHECKOUT-I, Total execution time (CPU/WALL):       23.91/       4.52 seconds.
--executable xbcktrn finished with status     0 in        4.55 seconds (walltime).
 --invoking executable--
/nfs/workspaces/public/cfour_mpi/bin/xvdint
 @GETMEM-I,  Allocated    3814 MB of main memory.
 One- and two-electron integral derivatives are calculated
 for RHF-CC/MBPT hessians and dipole derivatives.
 Spherical gaussians are used.
  magnet F F

                     Kinetic energy integral gradient
                     --------------------------------

                         C #1 z    -0.5129246557
                         O #2 z     0.5129246557


 C #1       0.0000000000            0.0000000000           -0.5129246557
 O #2       0.0000000000            0.0000000000            0.5129246557



                   Nuclear attraction integral gradient
                   ------------------------------------

                         C #1 z    13.4559113090
                         O #2 z   -13.4559113090


 C #1       0.0000000000            0.0000000000           13.4559113090
 O #2       0.0000000000            0.0000000000          -13.4559113090



                      Reorthonormalization gradient
                      -----------------------------

                         C #1 z     0.0000000000
                         O #2 z     0.0000000000


 C #1       0.0000000000            0.0000000000            0.0000000000
 O #2       0.0000000000            0.0000000000            0.0000000000



                     Kinetic energy integral Hessian
                     -------------------------------


           Symmetry 1

           C #1 z      O #2 z

 C #1 z    0.540192
 O #2 z   -0.540192    0.540192


           Symmetry 2

           C #1 x      O #2 x

 C #1 x   -0.384527
 O #2 x    0.384527   -0.384527


           Symmetry 3

           C #1 y      O #2 y

 C #1 y   -0.384527
 O #2 y    0.384527   -0.384527




           C #1 x      C #1 y      C #1 z      O #2 x      O #2 y      O #2 z

 C #1 x   -0.384527
 C #1 y    0.000000   -0.384527
 C #1 z    0.000000    0.000000    0.540192

 O #2 x    0.384527    0.000000    0.000000   -0.384527
 O #2 y    0.000000    0.384527    0.000000    0.000000   -0.384527
 O #2 z    0.000000    0.000000   -0.540192    0.000000    0.000000    0.540192




                   Nuclear attraction integral Hessian
                   -----------------------------------


           Symmetry 1

           C #1 z      O #2 z

 C #1 z   -8.150846
 O #2 z    8.150846   -8.150846


           Symmetry 2

           C #1 x      O #2 x

 C #1 x    7.080367
 O #2 x   -7.080367    7.080367


           Symmetry 3

           C #1 y      O #2 y

 C #1 y    7.080367
 O #2 y   -7.080367    7.080367




           C #1 x      C #1 y      C #1 z      O #2 x      O #2 y      O #2 z

 C #1 x    7.080367
 C #1 y    0.000000    7.080367
 C #1 z    0.000000    0.000000   -8.150846

 O #2 x   -7.080367    0.000000    0.000000    7.080367
 O #2 y    0.000000   -7.080367    0.000000    0.000000    7.080367
 O #2 z    0.000000    0.000000    8.150846    0.000000    0.000000   -8.150846




                Highest order reorthonormalization Hessian
                ------------------------------------------


           Symmetry 1

           C #1 z      O #2 z

 C #1 z    0.000000
 O #2 z    0.000000    0.000000


           Symmetry 2

           C #1 x      O #2 x

 C #1 x    0.000000
 O #2 x    0.000000    0.000000


           Symmetry 3

           C #1 y      O #2 y

 C #1 y    0.000000
 O #2 y    0.000000    0.000000




           C #1 x      C #1 y      C #1 z      O #2 x      O #2 y      O #2 z




                Electronic contributions to dipole moment
                -----------------------------------------

                               au             Debye

                    z      0.49217194      1.25097652

  Conversion factor used: 1 a.u. =   2.54174691 Debye 



   Electronic contributions to static part of dipole moment derivatives
   --------------------------------------------------------------------


                     Total dipole moment derivatives
                     -------------------------------


           Symmetry 1
                              Ez

               C #1 z    -5.65925968
               O #2 z    -8.34074032

           Symmetry 2
                              Ex

               C #1 x    -5.67647162
               O #2 x    -8.32352838

           Symmetry 3
                              Ey

               C #1 y    -5.67647162
               O #2 y    -8.32352838



                       Ex          Ey          Ez

      C #1    x   -5.676472    0.000000    0.000000
      C #1    y    0.000000   -5.676472    0.000000
      C #1    z    0.000000    0.000000   -5.659260

      O #2    x   -8.323528    0.000000    0.000000
      O #2    y    0.000000   -8.323528    0.000000
      O #2    z    0.000000    0.000000   -8.340740

 Evaluation of 1e integral derivatives required    1.65 seconds.
                    8815  records have been written to the Sort file.
  Total length of Sort file :             180513570  words.
 Evaluation of 2el integral derivatives

                      Two-electron integral gradient
                      ------------------------------

                         C #1 z    -7.2047633701
                         O #2 z     7.2047633701


 C #1       0.0000000000            0.0000000000           -7.2047633701
 O #2       0.0000000000            0.0000000000            7.2047633701


 Evaluation of 2e integral derivatives required  544.07 seconds.

                            Molecular gradient
                            ------------------

                         C #1 z     0.5770598587
                         O #2 z    -0.5770598587


 C #1       0.0000000000            0.0000000000            0.5770598587
 O #2       0.0000000000            0.0000000000           -0.5770598587


  Molecular gradient norm 0.816E+00

                            Molecular hessian
                            -----------------


           Symmetry 1

           C #1 z      O #2 z

 C #1 z   14.680661
 O #2 z  -14.680661   14.680661


           Symmetry 2

           C #1 x      O #2 x

 C #1 x    5.274686
 O #2 x   -5.274686    5.274686


           Symmetry 3

           C #1 y      O #2 y

 C #1 y    5.274686
 O #2 y   -5.274686    5.274686




           C #1 x      C #1 y      C #1 z      O #2 x      O #2 y      O #2 z

 C #1 x    5.274686
 C #1 y    0.000000    5.274686
 C #1 z    0.000000    0.000000   14.680661

 O #2 x   -5.274686    0.000000    0.000000    5.274686
 O #2 y    0.000000   -5.274686    0.000000    0.000000    5.274686
 O #2 z    0.000000    0.000000  -14.680661    0.000000    0.000000   14.680661




                           Total dipole moment
                           -------------------

                               au             Debye

                    z      0.48884809      1.24252813

  Conversion factor used: 1 a.u. =   2.54174691 Debye 



                     Total dipole moment derivatives
                     -------------------------------


           Symmetry 1
                              Ez

               C #1 z     0.57002566
               O #2 z    -0.57002566

           Symmetry 2
                              Ex

               C #1 x     0.16978272
               O #2 x    -0.16978272

           Symmetry 3
                              Ey

               C #1 y     0.16978272
               O #2 y    -0.16978272



                       Ex          Ey          Ez

      C #1    x    0.169783    0.000000    0.000000
      C #1    y    0.000000    0.169783    0.000000
      C #1    z    0.000000    0.000000    0.570026

      O #2    x   -0.169783    0.000000    0.000000
      O #2    y    0.000000   -0.169783    0.000000
      O #2    z    0.000000    0.000000   -0.570026

 @CHECKOUT-I, Total execution time (CPU/WALL):      545.70/      98.84 seconds.
--executable xvdint finished with status     0 in       98.87 seconds (walltime).
 --invoking executable--
/nfs/workspaces/public/cfour_mpi/bin/xjoda
  @GTFLGS-I, Hessian will be transformed to curvilinear coordinates.
  @GTFLGS-I, Hessian will be transformed to curvilinear coordinates.
  igrd and ihes are                      0                     1
  gradient from JOBARC 
   0.000000000000000   0.000000000000000   0.577059858738386
   0.000000000000000   0.000000000000000  -0.577059858738386
 
  @PROJFCM-I, Projecting force constant matrix onto totally symmetric subspace.
  Largest difference between matrix elements of symmetrized
  and unsymmetrized FCM :     0.9041656313E-12.
  read isotopes from ZMAT file 
 
  Summary of diagonal Born-Oppenheimer correction at the correlated level
  The total diagonal Born-Oppenheimer correction (DBOC) is:      0.0041412891 a.u.
  The total diagonal Born-Oppenheimer correction (DBOC) is:        908.907906 cm-1
  The total diagonal Born-Oppenheimer correction (DBOC) is:            10.873 kJ/mole
  hellooooooo 
  readis is  F
 
 @CHECKOUT-I, Total execution time (CPU/WALL):        0.01/       0.03 seconds.
--executable xjoda finished with status     0 in        0.07 seconds (walltime).
  The final electronic energy is      -113.070927422052307 a.u. 
  This computation required                         7487.94 seconds (walltime).
