 --invoking executable--
/nfs/workspaces/public/cfour_mpi/bin/xjoda


   *************************************************************************
         <<<     CCCCCC     CCCCCC   |||     CCCCCC     CCCCCC   >>>
       <<<      CCC        CCC       |||    CCC        CCC         >>>
      <<<      CCC        CCC        |||   CCC        CCC            >>>
    <<<        CCC        CCC        |||   CCC        CCC              >>>
      <<<      CCC        CCC        |||   CCC        CCC            >>>
       <<<      CCC        CCC       |||    CCC        CCC         >>>
         <<<     CCCCCC     CCCCCC   |||     CCCCCC     CCCCCC   >>>
   *************************************************************************

     ****************************************************************
     * CFOUR Coupled-Cluster techniques for Computational Chemistry *
     ****************************************************************
 

   Department of Chemistry                Institut fuer Physikalische Chemie
   University of Florida                  Universitaet Mainz
   Gainesville, FL 32611, USA             D-55099 Mainz, Germany

   Department of Chemistry                Fakultaet fuer Chemie und Biowiss.
   Johns Hopkins University               Karlsruher Institut fuer Technologie
   Baltimore, MD 21218, USA               D-76131 Karlsruhe, Germany

   Department of Chemistry                Department of Physical Chemistry
   Southern Methodist University          Eotvos Lorand University
   Dallas, TX 75275, USA                  H-1053 Budapest, Hungary

 
                       Version 2.1
 
                     vincent.theory.phys.ucl.ac.uk                     
                     Tue 25 Feb 04:26:52 GMT 2025                      
                     integer*8 version is running
 
********************************************************************************
*                          Input from ZMAT file                                *
********************************************************************************
Carbon Monoxide DBOC calculation                                                
C                                                                               
O 1 r                                                                           
                                                                                
r=1.210344827586207                                                             
                                                                                
                                                                                
*CFOUR(CALC=CCSD,BASIS=AUG-PCVQZ,SCF_CONV=10                                    
CC_CONV=14,DBOC=ON,MEMORY=500000000                                             
ZFIELD=-200)                                                                    
                                                                                
%isotopes                                                                       
12                                                                              
16                                                                              
********************************************************************************
  @GTFLGS-I, Hessian will be transformed to curvilinear coordinates.
    -------------------------------------------------------------------
                    CFOUR Control Parameters 
    -------------------------------------------------------------------
        External           Internal           Value            Units
          Name               Name
    -------------------------------------------------------------------
       ABCDTYPE             IABCDT         STANDARD    [  0]    ***   
       ANHARMONIC           IANHAR         OFF         [  0]    ***   
       ANH_ALGORIT          IANALG         STANDARD    [  0]    ***   
       ANH_DERIVAT          IANDER         SECOND      [  1]    ***   
       ANH_MODE             ANHMOD         VIBRATION   [  0]    ***   
       ANH_STEPSIZ          ICUBST             50000          x 10-6  
       ANH_SYMMETR          IANHSM         ABELIAN     [  0]    ***   
       AO_LADDERS           IAOLAD         SINGLEPASS  [  1]    ***   
       AV_SCF               IAVSCF         OFF         [  0]    ***   
       BASIS                IBASIS         AUG-PCVQZ   [ 52]    ***   
       BOTHVECTORS          BOTHVC         OFF         [  0]    ***   
       BOX_POTENT           IPIAB          OFF         [  0]    ***   
       BREIT                IBREIT         OFF         [  0]    ***   
       BRUCK_CONV           IBRTOL          10D-  4             ***   
       BRUECKNER            IBRKNR         OFF         [  0]    ***   
       BUFFERSIZE           IBUFFS              4096            ***   
       CACHE_RECS           ICHREC             10               ***   
       CALCLEVEL            ICLLVL         CCSD        [ 10]    ***   
       CCORBOPT             ICCORB         OFF         [  0]  x 0.01  
       CC_CONV              ICCCNV          10D- 14             ***   
       CC_EXPORDER          ICCEOR              5               ***   
       CC_EXTRAPOL          ICCEXT         DIIS        [  1]    ***   
       CC_GUESS             ICCGES         MP2         [  0]    ***   
       CC_MAXCYC            ICCCYC            100              cycles 
       CC_PROGRAM           ICCPRO         VCC         [  0]    ***   
       CHARGE               ICHRGE              0               ***   
       CHOLESKY             ICHOLE         OFF         [  0]    ***   
       CIS_CONV             ICISTL              5               ***   
       COMM_SIZE            IPSIZE            ***               ***   
       CONSTANT             ICONST         OLD         [  1]    ***   
       CONTINUUM            ICONTU         NONE        [  0]    ***   
       CONTRACTION          ICNTYP         GENERAL     [  1]    ***   
       COORDINATES          ICOORD         INTERNAL    [  0]    ***   
       CPHF_CONVER          ICPHFT          10D- 16             ***   
       CPHF_MAXCYC          ICPHFC             64              cycles 
       CUBIC                ICUBIC         OFF         [  0]    ***   
       CURVILINEAR          ICURVY         ON          [  1]    ***   
       DBOC                 IDBOC          ON          [  1]    ***   
       DCT                  IDCT           OFF         [  0]    ***   
       DERIV_LEV            IDRLVL         SECOND      [  2]    ***   
       DEVMEM_SIZE          IDVMEM          50000000           MByte  
       DIAG_MRCC            IEOMST          10D-  0             ***   
       DIFF_TYPE            IDIFTY         RELAXED     [  0]    ***   
       DIRECT               IDIRCT         OFF         [  0]    ***   
       DROPMO               IDRPMO      NONE         
       ECP                  IECP           OFF         [  0]    ***   
       EIGENVECTOR          IVEC                1               ***   
       EL_ANHARM            IELANH         OFF         [  0]    ***   
       EOMFOLLOW            IEOMSR         ENERGY      [  0]    ***   
       EOMIP                IEOMIP         OFF         [  0]    ***   
       EOMLEVEL             HBARFM         SAME        [  0]    ***   
       EOM_MRCC             IMRCCE         NEW         [  1]    ***   
       EOM_NONIT            EOMNON         OFF         [  0]    ***   
       EOM_NSING            IEOMSI          10D-  0             ***   
       EOM_NSTATES          IMRCCD         DAVIDSON    [  0]    ***   
       EOM_NTRIP            IEOMTR          10D-  0             ***   
       EOM_ORDER            IEXORD         ENERGY      [  0]    ***   
       EOM_PROPSTA          IEOMST              0               ***   
       ESTATE_CONV          IEXTOL          10D-  5             ***   
       ESTATE_DIAG          IEXDIG         ITERATIVE   [  0]    ***   
       ESTATE_LOCK          IESLOC         ON          [  1]    ***   
       ESTATE_MAXC          IEXMXC             40               ***   
       ESTATE_PROP          IEXPRP         OFF         [  0]    ***   
       EVAL_HESS            IRECAL              0            # of cyc.
       EXCITATION           IEXCIT              0               ***   
       EXCITE               IEXCIT         NONE        [  0]    ***   
       EXTERN_POT           IEXPOT         OFF         [  0]    ***   
       FCGRADNEW            IFCGNW         OFF         [  0]    ***   
       FC_FIELD             IFINFC              0             x 10-6  
       FD_CALTYPE           IFDCAL         GRADONLY    [  0]    ***   
       FD_PROJECT           IFDPRJ         OFF         [  1]    ***   
       FD_STEPSIZE          IDISFD              0            10-4 bohr
       FD_USEGROUP          IFDGRP         FULL        [  0]    ***   
       FILE_RECSIZ          IFLREC              4096           words  
       FINITE_PERT          IFIPER              0             x 10-6  
       FIXGEOM              IFIXGM         OFF         [  0]    ***   
       FOCK                 IFOCK          AO          [  1]    ***   
       FREQ_ALGORI          IVIALG         STANDARD    [  0]    ***   
       FROZEN_CORE          IFROCO         OFF         [  0]    ***   
       GAMMA_ABCD           IGABCD         STORE       [  0]    ***   
       GAMMA_ABCI           IGABCI         STORE       [  0]    ***   
       GENBAS_1             IGNBS1              0               ***   
       GENBAS_2             IGNBS2              0               ***   
       GENBAS_3             IGNBS3              0               ***   
       GENBAS_4             IGNBS4              0               ***   
       GEO_CONV             ICONTL              5              H/bohr 
       GEO_MAXCYC           IOPTCY             50               ***   
       GEO_MAXSTEP          IMXSTP            300            millibohr
       GEO_METHOD           INR            SINGLE_POINT[  5]    ***   
       GIAO                 IGIAO          OFF         [  1]    ***   
       GIMIC                IGIMIC         OFF         [  0]    ***   
       GRID                 IGRID          OFF         [  0]    ***   
       GRID_ALGO            IGALGO         SERIAL      [  0]    ***   
       GUESS                IGUESS         MOREAD      [  0]    ***   
       HBAR                 IHBAR          OFF         [  0]    ***   
       HESS_TYPE            IHESTP         SCF         [  0]    ***   
       HF2_FILE             IHF2Fl         USE         [  1]    ***   
       HFSTABILITY          ISTABL         OFF         [  0]    ***   
       INCORE               INCORE         OFF         [  0]    ***   
       INPUT_MRCC           IMRCC          ON          [  1]    ***   
       INTEGRALS            INTTYP         VMOL        [  1]    ***   
       JODA_PRINT           IJPRNT              0               ***   
       KEYWORD_OUT          IDMPKW         NO          [  0]    ***   
       LINDEP_TOL           ILINDP              8               ***   
       LINEQ_CONV           IZTACN          10D-  7           cycles  
       LINEQ_EXPOR          ILMAXD              5               ***   
       LINEQ_MAXCY          ILMAXC            100               ***   
       LINEQ_TYPE           ILTYPE         DIIS        [  1]    ***   
       LOCK_ORBOCC          ILOCOC         OFF         [  0]    ***   
       MEMORY_SIZE          IMEMSZ         500000000           words  
       MEM_UNIT             IMEMU          INTEGERWORDS[  0]    ***   
       MRCC                 IMRCCC         OFF         [  0]    ***   
       MULTIPLICTY          IMULTP              1               ***   
       NACOUPLING           IVCOUP         OFF         [  0]    ***   
       NEGEVAL              IDIE           ABORT       [  0]    ***   
       NEWNORM              INEWNO         OFF         [  0]    ***   
       NON-HF               INONHF         OFF         [  0]    ***   
       NTOP_TAMP            ITOPT2             15               ***   
       NUC_MODEL            INUCMO         POINT       [  0]    ***   
       OCCUPATION           IOCCU   ESTIMATED BY SCF 
       OPEN-SHELL           IOPEN          SPIN-ORBITAL[  0]    ***   
       OPTVIB               IOPTVB         OFF         [  0]    ***   
       ORBITALS             IORBTP         STANDARD    [  0]    ***   
       PARALLEL             IPARAL         ON          [  1]    ***   
       PARA_INT             IPINTS         ON          [  1]    ***   
       PARA_PRINT           IPPRIN              0               ***   
       PERT_ORB             IPTORB         STANDARD    [  0]    ***   
       POINTS               IGRDFD              0               ***   
       PRINT                IPRNT               0               ***   
       PROPS                IPROPS         OFF         [  0]    ***   
       PROP_INTEGR          IINTYP         INTERNAL    [  0]    ***   
       PSI                  IPSI           OFF         [  0]    ***   
       QC_ALG               IQCALG         FLM         [  0]    ***   
       QC_LINALG            IQCLIN         TRIDIAG     [  2]    ***   
       QC_MAXCYC            IQCMAX          10D-100           cycles  
       QC_MAXSCFCY          IQCMSC          10D- 15           cycles  
       QC_RTRUST            IQCRTR          10D-  0           x 10-3  
       QC_SKIPSCF           IQCSKI         OFF         [  0]    ***   
       QC_START             IQCSTA          10D-  1             ***   
       QRHFGUESS            IQGUES         OFF         [  0]    ***   
       QUARTIC              IQUART         OFF         [  0]    ***   
       RAMAN_INT            IRAMIN         OFF         [  0]    ***   
       RAMAN_ORB            IRAMRE         UNRELAXED   [  0]    ***   
       RDO                  IRDOFM         ON          [  1]    ***   
       REDUCE_REPR          REDREP         Ir          [  0]    ***   
       REFERENCE            IREFNC         RHF         [  0]    ***   
       RELATIVIST           IRELAT         OFF         [  0]    ***   
       RELAX_DENS           IRDENS         ON          [  1]    ***   
       RESET_FLAGS          IRESET         OFF         [  0]    ***   
       RESTART_CC           ICCRES         OFF         [  0]    ***   
       ROT_EVEC             ROTVEC              0               ***   
       SAVE_INTS            ISVINT         OFF         [  0]    ***   
       SCALE_ON             ISTCRT              0               ***   
       SCF_CONV             ISCFCV          10D- 10             ***   
       SCF_DAMPING          IDAMP               0             x 10-3  
       SCF_EXPORDE          IRPPOR              6               ***   
       SCF_EXPSTAR          IRPPLS              8               ***   
       SCF_EXTRAPO          IRPP           ON          [  1]    ***   
       SCF_MAXCYC           ISCFCY            150              cycles 
       SCF_NOSTOP           ISCFST         OFF         [  0]    ***   
       SCF_PRINT            ISCFPR              0               ***   
       SCF_PROG             ISCFPR         SCF         [  0]    ***   
       SD_FIELD             IFINSD              0             x 10-6  
       SOPERT               IPERSO         OFF         [  0]    ***   
       SPHERICAL            IDFGHI         ON          [  1]    ***   
       SPINORBIT            ISOCAL         OFF         [  0]    ***   
       SPINROTATIO          ISRCON         OFF         [  0]    ***   
       SPIN_FLIP            ISPFLP         OFF         [  0]    ***   
       SPIN_ORBIT           ISPORB         OFF         [  0]    ***   
       SPIN_SCAL            ISCSMP         OFF         [  0]    ***   
       STEEPSCALE           ISTPSC              1000          x 10-3  
       SUBGROUP             ISUBGP         DEFAULT     [  0]    ***   
       SUBGRPAXIS           ISBXYZ         X           [  0]    ***   
       SYMMETRY             ISYM           ON          [  0]    ***   
       SYM_CHECK            ISYMCK         OVERRIDE    [  1]    ***   
       T3_EXTRAPOL          IT3EXT         OFF         [  0]    ***   
       T4_EXTRAPOL          IT4EXP         OFF         [  0]    ***   
       TAMP_SUM             IEVERY              5               ***   
       TESTSUITE            ITESTS         OFF         [  0]    ***   
       THERMOCH             ITHERM         OFF         [  0]    ***   
       TOL_CHOLESK          ITOLCH          10D-  4             ***   
       TRANGRAD             IRESRM         OFF         [  0]    ***   
       TRANS_INV            ITRAIN         IGNORE      [  1]    ***   
       TREAT_PERT           ITREAT         SIMULTANEOUS[  0]    ***   
       TRIP_ALGORI          ITRALG         NORMAL      [  0]    ***   
       UIJ_THRESHO          IUIJTH              1               ***   
       UNITS                IUNITS         ANGSTROM    [  0]    ***   
       UNOS                 IUNOS          OFF         [  0]    ***   
       UPDATE_HESS          IHUPDT         ON          [  1]    ***   
       VIBPHASE             ISETPH         STANDARD    [  0]    ***   
       VIBRATION            IVIB           ANALYTIC    [  1]    ***   
       VIB_ALGORIT          IGEALG         STANDARD    [  0]    ***   
       VNATORB              IVNORB         OFF         [  0]    ***   
       VTRAN                IVTRAN         FULL/PARTIAL[  0]    ***   
       XFIELD               IXEFLD              0             x 10-6  
       XFORM_TOL            IXFTOL          10D- 11             ***   
       YFIELD               IYEFLD              0             x 10-6  
       ZFIELD               IZEFLD            ***             x 10-6  
       ZSCALE_EXP           IZEXPS         OFF         [  0]    ***   
    -------------------------------------------------------------------
   2 entries found in Z-matrix 
   Job Title : Carbon Monoxide DBOC calculation                                                
   There are  1 unique internal coordinates.
   Of these,  0 will be optimized.
   User supplied Z-matrix: 
--------------------------------------------------------------------------------
       SYMBOL    BOND      LENGTH    ANGLE     ANGLE     DIHED     ANGLE
                  TO      (ANGST)    WRT      (DEG)      WRT      (DEG)
--------------------------------------------------------------------------------
        C    
        O          1         r    
                  *Initial values for internal coordinates* 
                      Name             Value
                        r               1.2103448276
--------------------------------------------------------------------------------
  read isotopes from ZMAT file 
   Rotational constants (in cm-1): 
          1.6783954480             1.6783954480
   Rotational constants (in MHz): 
      50317.0367333021         50317.0367333021
********************************************************************************
   The full molecular point group is CXv .
   The largest Abelian subgroup of the full molecular point group is C2v .
   The computational point group is C2v .
********************************************************************************
--------------------------------------------------------------------------------
   Analysis of internal coordinates specified by Z-matrix 
--------------------------------------------------------------------------------
   *The nuclear repulsion energy is   20.986168752136749 a.u.
   *There is   1 degree of freedom within the tot. symm. molecular subspace.
   *Z-matrix requests optimization of   0 coordinates.
   *The optimization is constrained.
   *The following   1 parameters can have non-zero 
    derivatives within the totally symmetric subspace:
             r    [ 1]
   *The following   0 parameters are to be optimized:

   *The following coordinates must be varied in an  unconstrained optimization.
             r    [ 1]
--------------------------------------------------------------------------------


 ----------------------------------------------------------------
         Coordinates used in calculation (QCOMP) 
 ----------------------------------------------------------------
 Z-matrix   Atomic            Coordinates (in bohr)
  Symbol    Number           X              Y              Z
 ----------------------------------------------------------------
     C         6        -0.00000000     0.00000000     1.30680521
     O         8         0.00000000     0.00000000    -0.98041551
 ----------------------------------------------------------------
 
   Interatomic distance matrix (Angstroms) 
 
                 C             O    
                [ 1]        [ 2]
  C    [ 1]     0.00000
  O    [ 2]     1.21035     0.00000
 rotcon2
   Rotational constants (in cm-1): 
          1.6783954480             0.0000000000
   Rotational constants (in MHz): 
      50317.0367333021             0.0000000000
  ECPDATA file not present.   Using default ECPDATA. 
  @GTFLGS-I, Hessian will be transformed to curvilinear coordinates.
  There are  218 basis functions.
 @CHECKOUT-I, Total execution time (CPU/WALL):        0.09/       0.15 seconds.
--executable xjoda finished with status     0 in        0.16 seconds (walltime).
 --invoking executable--
/nfs/workspaces/public/cfour_mpi/bin/xvmol
 SERIAL VERSION OF MOLECULE STARTED
********************************************************************************
                    INPUT FROM MOL FILE
********************************************************************************
INTGRL        1    0    1    0    0    0    0    0    0                         
         *** CFOUR Program System (Release V0.1) ***                            
Carbon Monoxide DBOC calculation                                                
    2    2 X  Y       0.10E-08              0    0                              
   9999.00      3.00                                                            
          6.00000000    1    5    1    1    1    1    1                         
C #1  -0.000000000000000   0.000000000000000   1.306805205065530                
   16    9                                                                      
   33980.0000000000       9.100000000000000E-005 -1.900000000000000E-005        
  0.000000000000000E+000  0.000000000000000E+000  0.000000000000000E+000        
  0.000000000000000E+000  0.000000000000000E+000  0.000000000000000E+000        
  0.000000000000000E+000                                                        
   5089.00000000000       7.040000000000000E-004 -1.510000000000000E-004        
  0.000000000000000E+000  0.000000000000000E+000  0.000000000000000E+000        
  0.000000000000000E+000  0.000000000000000E+000  0.000000000000000E+000        
  0.000000000000000E+000                                                        
   1157.00000000000       3.693000000000000E-003 -7.850000000000000E-004        
  0.000000000000000E+000  0.000000000000000E+000  0.000000000000000E+000        
  0.000000000000000E+000  0.000000000000000E+000  0.000000000000000E+000        
  0.000000000000000E+000                                                        
   326.600000000000       1.536000000000000E-002 -3.324000000000000E-003        
  0.000000000000000E+000  0.000000000000000E+000  0.000000000000000E+000        
  0.000000000000000E+000  0.000000000000000E+000  0.000000000000000E+000        
  0.000000000000000E+000                                                        
   106.100000000000       5.292900000000000E-002 -1.151200000000000E-002        
  0.000000000000000E+000  0.000000000000000E+000  0.000000000000000E+000        
  0.000000000000000E+000  0.000000000000000E+000  0.000000000000000E+000        
  0.000000000000000E+000                                                        
   38.1100000000000       0.147043000000000      -3.416000000000000E-002        
  0.000000000000000E+000  0.000000000000000E+000  0.000000000000000E+000        
  0.000000000000000E+000  0.000000000000000E+000  0.000000000000000E+000        
  0.000000000000000E+000                                                        
   14.7500000000000       0.305631000000000      -7.717300000000001E-002        
  0.000000000000000E+000  0.000000000000000E+000  0.000000000000000E+000        
  0.000000000000000E+000  0.000000000000000E+000  0.000000000000000E+000        
  0.000000000000000E+000                                                        
   6.03500000000000       0.399345000000000      -0.141493000000000             
  0.000000000000000E+000  0.000000000000000E+000  0.000000000000000E+000        
  0.000000000000000E+000  0.000000000000000E+000  0.000000000000000E+000        
  0.000000000000000E+000                                                        
   2.53000000000000       0.217051000000000      -0.118019000000000             
  0.000000000000000E+000  0.000000000000000E+000  0.000000000000000E+000        
  0.000000000000000E+000  0.000000000000000E+000  0.000000000000000E+000        
  0.000000000000000E+000                                                        
  0.735500000000000       1.589400000000000E-002  0.273806000000000             
   1.00000000000000       0.000000000000000E+000  0.000000000000000E+000        
  0.000000000000000E+000  0.000000000000000E+000  0.000000000000000E+000        
  0.000000000000000E+000                                                        
  0.290500000000000      -3.084000000000000E-003  0.586510000000000             
  0.000000000000000E+000   1.00000000000000       0.000000000000000E+000        
  0.000000000000000E+000  0.000000000000000E+000  0.000000000000000E+000        
  0.000000000000000E+000                                                        
  0.111100000000000       9.779999999999999E-004  0.285430000000000             
  0.000000000000000E+000  0.000000000000000E+000   1.00000000000000             
  0.000000000000000E+000  0.000000000000000E+000  0.000000000000000E+000        
  0.000000000000000E+000                                                        
   7.21600000000000       0.000000000000000E+000  0.000000000000000E+000        
  0.000000000000000E+000  0.000000000000000E+000  0.000000000000000E+000        
   1.00000000000000       0.000000000000000E+000  0.000000000000000E+000        
  0.000000000000000E+000                                                        
   19.5700000000000       0.000000000000000E+000  0.000000000000000E+000        
  0.000000000000000E+000  0.000000000000000E+000  0.000000000000000E+000        
  0.000000000000000E+000   1.00000000000000       0.000000000000000E+000        
  0.000000000000000E+000                                                        
   53.0730000000000       0.000000000000000E+000  0.000000000000000E+000        
  0.000000000000000E+000  0.000000000000000E+000  0.000000000000000E+000        
  0.000000000000000E+000  0.000000000000000E+000   1.00000000000000             
  0.000000000000000E+000                                                        
  4.145000000000000E-002  0.000000000000000E+000  0.000000000000000E+000        
  0.000000000000000E+000  0.000000000000000E+000  0.000000000000000E+000        
  0.000000000000000E+000  0.000000000000000E+000  0.000000000000000E+000        
   1.00000000000000                                                             
   10    8                                                                      
   34.5100000000000       5.378000000000000E-003  0.000000000000000E+000        
  0.000000000000000E+000  0.000000000000000E+000  0.000000000000000E+000        
  0.000000000000000E+000  0.000000000000000E+000  0.000000000000000E+000        
   7.91500000000000       3.613200000000000E-002  0.000000000000000E+000        
  0.000000000000000E+000  0.000000000000000E+000  0.000000000000000E+000        
  0.000000000000000E+000  0.000000000000000E+000  0.000000000000000E+000        
   2.36800000000000       0.142493000000000       0.000000000000000E+000        
  0.000000000000000E+000  0.000000000000000E+000  0.000000000000000E+000        
  0.000000000000000E+000  0.000000000000000E+000  0.000000000000000E+000        
  0.813200000000000       0.342150000000000        1.00000000000000             
  0.000000000000000E+000  0.000000000000000E+000  0.000000000000000E+000        
  0.000000000000000E+000  0.000000000000000E+000  0.000000000000000E+000        
  0.289000000000000       0.463864000000000       0.000000000000000E+000        
   1.00000000000000       0.000000000000000E+000  0.000000000000000E+000        
  0.000000000000000E+000  0.000000000000000E+000  0.000000000000000E+000        
  0.100700000000000       0.250028000000000       0.000000000000000E+000        
  0.000000000000000E+000   1.00000000000000       0.000000000000000E+000        
  0.000000000000000E+000  0.000000000000000E+000  0.000000000000000E+000        
   8.18200000000000       0.000000000000000E+000  0.000000000000000E+000        
  0.000000000000000E+000  0.000000000000000E+000   1.00000000000000             
  0.000000000000000E+000  0.000000000000000E+000  0.000000000000000E+000        
   24.1860000000000       0.000000000000000E+000  0.000000000000000E+000        
  0.000000000000000E+000  0.000000000000000E+000  0.000000000000000E+000        
   1.00000000000000       0.000000000000000E+000  0.000000000000000E+000        
   71.4940000000000       0.000000000000000E+000  0.000000000000000E+000        
  0.000000000000000E+000  0.000000000000000E+000  0.000000000000000E+000        
  0.000000000000000E+000   1.00000000000000       0.000000000000000E+000        
  3.218000000000000E-002  0.000000000000000E+000  0.000000000000000E+000        
  0.000000000000000E+000  0.000000000000000E+000  0.000000000000000E+000        
  0.000000000000000E+000  0.000000000000000E+000   1.00000000000000             
    6    6                                                                      
   1.84800000000000        1.00000000000000       0.000000000000000E+000        
  0.000000000000000E+000  0.000000000000000E+000  0.000000000000000E+000        
  0.000000000000000E+000                                                        
  0.649000000000000       0.000000000000000E+000   1.00000000000000             
  0.000000000000000E+000  0.000000000000000E+000  0.000000000000000E+000        
  0.000000000000000E+000                                                        
  0.228000000000000       0.000000000000000E+000  0.000000000000000E+000        
   1.00000000000000       0.000000000000000E+000  0.000000000000000E+000        
  0.000000000000000E+000                                                        
   8.65600000000000       0.000000000000000E+000  0.000000000000000E+000        
  0.000000000000000E+000   1.00000000000000       0.000000000000000E+000        
  0.000000000000000E+000                                                        
   33.2130000000000       0.000000000000000E+000  0.000000000000000E+000        
  0.000000000000000E+000  0.000000000000000E+000   1.00000000000000             
  0.000000000000000E+000                                                        
  7.660000000000000E-002  0.000000000000000E+000  0.000000000000000E+000        
  0.000000000000000E+000  0.000000000000000E+000  0.000000000000000E+000        
   1.00000000000000                                                             
    4    4                                                                      
   1.41900000000000        1.00000000000000       0.000000000000000E+000        
  0.000000000000000E+000  0.000000000000000E+000                                
  0.485000000000000       0.000000000000000E+000   1.00000000000000             
  0.000000000000000E+000  0.000000000000000E+000                                
   24.6940000000000       0.000000000000000E+000  0.000000000000000E+000        
   1.00000000000000       0.000000000000000E+000                                
  0.187000000000000       0.000000000000000E+000  0.000000000000000E+000        
  0.000000000000000E+000   1.00000000000000                                     
    2    2                                                                      
   1.01100000000000        1.00000000000000       0.000000000000000E+000        
  0.424000000000000       0.000000000000000E+000   1.00000000000000             
          8.00000000    1    5    1    1    1    1    1                         
O #2   0.000000000000000   0.000000000000000  -0.980415514777046                
   16    9                                                                      
   61420.0000000000       9.000000000000001E-005 -2.000000000000000E-005        
  0.000000000000000E+000  0.000000000000000E+000  0.000000000000000E+000        
  0.000000000000000E+000  0.000000000000000E+000  0.000000000000000E+000        
  0.000000000000000E+000                                                        
   9199.00000000000       6.980000000000001E-004 -1.590000000000000E-004        
  0.000000000000000E+000  0.000000000000000E+000  0.000000000000000E+000        
  0.000000000000000E+000  0.000000000000000E+000  0.000000000000000E+000        
  0.000000000000000E+000                                                        
   2091.00000000000       3.664000000000000E-003 -8.290000000000000E-004        
  0.000000000000000E+000  0.000000000000000E+000  0.000000000000000E+000        
  0.000000000000000E+000  0.000000000000000E+000  0.000000000000000E+000        
  0.000000000000000E+000                                                        
   590.900000000000       1.521800000000000E-002 -3.508000000000000E-003        
  0.000000000000000E+000  0.000000000000000E+000  0.000000000000000E+000        
  0.000000000000000E+000  0.000000000000000E+000  0.000000000000000E+000        
  0.000000000000000E+000                                                        
   192.300000000000       5.242300000000000E-002 -1.215600000000000E-002        
  0.000000000000000E+000  0.000000000000000E+000  0.000000000000000E+000        
  0.000000000000000E+000  0.000000000000000E+000  0.000000000000000E+000        
  0.000000000000000E+000                                                        
   69.3200000000000       0.145921000000000      -3.626100000000000E-002        
  0.000000000000000E+000  0.000000000000000E+000  0.000000000000000E+000        
  0.000000000000000E+000  0.000000000000000E+000  0.000000000000000E+000        
  0.000000000000000E+000                                                        
   26.9700000000000       0.305258000000000      -8.299200000000000E-002        
  0.000000000000000E+000  0.000000000000000E+000  0.000000000000000E+000        
  0.000000000000000E+000  0.000000000000000E+000  0.000000000000000E+000        
  0.000000000000000E+000                                                        
   11.1000000000000       0.398508000000000      -0.152090000000000             
  0.000000000000000E+000  0.000000000000000E+000  0.000000000000000E+000        
  0.000000000000000E+000  0.000000000000000E+000  0.000000000000000E+000        
  0.000000000000000E+000                                                        
   4.68200000000000       0.216980000000000      -0.115331000000000             
  0.000000000000000E+000  0.000000000000000E+000  0.000000000000000E+000        
  0.000000000000000E+000  0.000000000000000E+000  0.000000000000000E+000        
  0.000000000000000E+000                                                        
   1.42800000000000       1.759400000000000E-002  0.288979000000000             
   1.00000000000000       0.000000000000000E+000  0.000000000000000E+000        
  0.000000000000000E+000  0.000000000000000E+000  0.000000000000000E+000        
  0.000000000000000E+000                                                        
  0.554700000000000      -2.502000000000000E-003  0.586128000000000             
  0.000000000000000E+000   1.00000000000000       0.000000000000000E+000        
  0.000000000000000E+000  0.000000000000000E+000  0.000000000000000E+000        
  0.000000000000000E+000                                                        
  0.206700000000000       9.540000000000000E-004  0.277624000000000             
  0.000000000000000E+000  0.000000000000000E+000   1.00000000000000             
  0.000000000000000E+000  0.000000000000000E+000  0.000000000000000E+000        
  0.000000000000000E+000                                                        
   12.9740000000000       0.000000000000000E+000  0.000000000000000E+000        
  0.000000000000000E+000  0.000000000000000E+000  0.000000000000000E+000        
   1.00000000000000       0.000000000000000E+000  0.000000000000000E+000        
  0.000000000000000E+000                                                        
   34.9000000000000       0.000000000000000E+000  0.000000000000000E+000        
  0.000000000000000E+000  0.000000000000000E+000  0.000000000000000E+000        
  0.000000000000000E+000   1.00000000000000       0.000000000000000E+000        
  0.000000000000000E+000                                                        
   93.8810000000000       0.000000000000000E+000  0.000000000000000E+000        
  0.000000000000000E+000  0.000000000000000E+000  0.000000000000000E+000        
  0.000000000000000E+000  0.000000000000000E+000   1.00000000000000             
  0.000000000000000E+000                                                        
  6.959000000000000E-002  0.000000000000000E+000  0.000000000000000E+000        
  0.000000000000000E+000  0.000000000000000E+000  0.000000000000000E+000        
  0.000000000000000E+000  0.000000000000000E+000  0.000000000000000E+000        
   1.00000000000000                                                             
   10    8                                                                      
   63.4200000000000       6.044000000000000E-003  0.000000000000000E+000        
  0.000000000000000E+000  0.000000000000000E+000  0.000000000000000E+000        
  0.000000000000000E+000  0.000000000000000E+000  0.000000000000000E+000        
   14.6600000000000       4.179900000000000E-002  0.000000000000000E+000        
  0.000000000000000E+000  0.000000000000000E+000  0.000000000000000E+000        
  0.000000000000000E+000  0.000000000000000E+000  0.000000000000000E+000        
   4.45900000000000       0.161143000000000       0.000000000000000E+000        
  0.000000000000000E+000  0.000000000000000E+000  0.000000000000000E+000        
  0.000000000000000E+000  0.000000000000000E+000  0.000000000000000E+000        
   1.53100000000000       0.356731000000000        1.00000000000000             
  0.000000000000000E+000  0.000000000000000E+000  0.000000000000000E+000        
  0.000000000000000E+000  0.000000000000000E+000  0.000000000000000E+000        
  0.530200000000000       0.448309000000000       0.000000000000000E+000        
   1.00000000000000       0.000000000000000E+000  0.000000000000000E+000        
  0.000000000000000E+000  0.000000000000000E+000  0.000000000000000E+000        
  0.175000000000000       0.244940000000000       0.000000000000000E+000        
  0.000000000000000E+000   1.00000000000000       0.000000000000000E+000        
  0.000000000000000E+000  0.000000000000000E+000  0.000000000000000E+000        
   14.4750000000000       0.000000000000000E+000  0.000000000000000E+000        
  0.000000000000000E+000  0.000000000000000E+000   1.00000000000000             
  0.000000000000000E+000  0.000000000000000E+000  0.000000000000000E+000        
   42.7300000000000       0.000000000000000E+000  0.000000000000000E+000        
  0.000000000000000E+000  0.000000000000000E+000  0.000000000000000E+000        
   1.00000000000000       0.000000000000000E+000  0.000000000000000E+000        
   126.140000000000       0.000000000000000E+000  0.000000000000000E+000        
  0.000000000000000E+000  0.000000000000000E+000  0.000000000000000E+000        
  0.000000000000000E+000   1.00000000000000       0.000000000000000E+000        
  5.348000000000000E-002  0.000000000000000E+000  0.000000000000000E+000        
  0.000000000000000E+000  0.000000000000000E+000  0.000000000000000E+000        
  0.000000000000000E+000  0.000000000000000E+000   1.00000000000000             
    6    6                                                                      
   3.77500000000000        1.00000000000000       0.000000000000000E+000        
  0.000000000000000E+000  0.000000000000000E+000  0.000000000000000E+000        
  0.000000000000000E+000                                                        
   1.30000000000000       0.000000000000000E+000   1.00000000000000             
  0.000000000000000E+000  0.000000000000000E+000  0.000000000000000E+000        
  0.000000000000000E+000                                                        
  0.444000000000000       0.000000000000000E+000  0.000000000000000E+000        
   1.00000000000000       0.000000000000000E+000  0.000000000000000E+000        
  0.000000000000000E+000                                                        
   14.9270000000000       0.000000000000000E+000  0.000000000000000E+000        
  0.000000000000000E+000   1.00000000000000       0.000000000000000E+000        
  0.000000000000000E+000                                                        
   57.5440000000000       0.000000000000000E+000  0.000000000000000E+000        
  0.000000000000000E+000  0.000000000000000E+000   1.00000000000000             
  0.000000000000000E+000                                                        
  0.154000000000000       0.000000000000000E+000  0.000000000000000E+000        
  0.000000000000000E+000  0.000000000000000E+000  0.000000000000000E+000        
   1.00000000000000                                                             
    4    4                                                                      
   2.66600000000000        1.00000000000000       0.000000000000000E+000        
  0.000000000000000E+000  0.000000000000000E+000                                
  0.859000000000000       0.000000000000000E+000   1.00000000000000             
  0.000000000000000E+000  0.000000000000000E+000                                
   26.4830000000000       0.000000000000000E+000  0.000000000000000E+000        
   1.00000000000000       0.000000000000000E+000                                
  0.324000000000000       0.000000000000000E+000  0.000000000000000E+000        
  0.000000000000000E+000   1.00000000000000                                     
    2    2                                                                      
   1.84600000000000        1.00000000000000       0.000000000000000E+000        
  0.714000000000000       0.000000000000000E+000   1.00000000000000             
FINISH                                                                          
 
********************************************************************************
 ONE- AND TWO-ELECTRON INTEGRALS OVER SYMMETRY-ADAPTED AOS ARE CALCULATED.

  SPHERICAL HARMONICS ARE USED.
  
  INTEGRALS LESS THAN  0.10E-13 ARE NEGLECTED.

  NUCLEAR REPULSION ENERGY :   20.9861687521 A.U.
  @MOLECU-I, ONE ELECTRON INTEGRALS (CPU/WALL):        0.06/       0.08 SECONDS.
  @TWOEL-I,    4560793 INTEGRALS OF SYMMETRY TYPE  I I I I
  @TWOEL-I,   19597775 INTEGRALS OF SYMMETRY TYPE  I J I J
  @TWOEL-I,   10326637 INTEGRALS OF SYMMETRY TYPE  I I J J
  @TWOEL-I,   14500556 INTEGRALS OF SYMMETRY TYPE  I J K L
  @TWOEL-I, TOTAL NUMBER OF 2-E INTEGRALS   48985761.
  @MOLECU-I, TWO ELECTRON INTEGRALS (CPU/WALL):      192.97/      26.84 SECONDS.
 @CHECKOUT-I, Total execution time (CPU/WALL):      193.05/      26.95 seconds.

Running with 14 threads/proc

--executable xvmol finished with status     0 in       26.97 seconds (walltime).
 --invoking executable--
/nfs/workspaces/public/cfour_mpi/bin/xvmol2ja
 @GETMEM-I,  Allocated    3814 MB of main memory.
 @CHECKOUT-I, Total execution time (CPU/WALL):        0.12/       0.05 seconds.
--executable xvmol2ja finished with status     0 in        0.07 seconds (walltime).
 --invoking executable--
/nfs/workspaces/public/cfour_mpi/bin/xvprop
 @GETMEM-I,  Allocated    3814 MB of main memory.
   Property integrals will be calculated.
    --------------------------------------------------------------
                                   Property evaluated at 
    Property type                X             Y             Z
    --------------------------------------------------------------
    Dipole moment               ----          ----          ----  
    Quadrupole moment           ----          ----          ----  
    Octopole moment             ----          ----          ----  
    Relativisitic corr.         ----          ----          ----  
    Second moment            0.0000000     0.0000000     0.0000000
    Electron density         0.0000000     0.0000000     1.3068052
    Electron density         0.0000000     0.0000000    -0.9804155
    Field gradient           0.0000000     0.0000000     1.3068052
    Field gradient           0.0000000     0.0000000    -0.9804155
    Potential                0.0000000     0.0000000     1.3068052
    Potential                0.0000000     0.0000000    -0.9804155
    --------------------------------------------------------------
 @CHECKOUT-I, Total execution time (CPU/WALL):        1.33/       1.38 seconds.
--executable xvprop finished with status     0 in        1.39 seconds (walltime).
 --invoking executable--
/nfs/workspaces/public/cfour_mpi/bin/xvscf
  There are  218 functions in the AO basis.

  There are 4 irreducible representations.

       Irrep        # of functions
         1                 86
         2                 52
         3                 52
         4                 28


  Parameters for SCF calculation: 
        SCF reference function:  RHF  
  Maximum number of iterations:  150
     Full symmetry point group: CXv 
     Computational point group: C2v 
        Initial density matrix: MOREAD                 
     SCF convergence tolerance: 10**(-10)
  DIIS convergence acceleration:  ON
          Latest start for DIIS:   8
                     DIIS order:   6

  Memory information:    2523578 words required.
  Fock matrices are constructed from AO integral file.
 @GETMEM-I,  Allocated      19 MB of main memory.
  Initialization and symmetry analysis required      0.001 seconds.

  Adding electric field perturbation to one-electron Hamiltonian.
  Field direction     : Z
  Field strength      : -0.0002000 a.u.

  @INITGES-I, Occupancies from core Hamiltonian:

          Alpha population by irrep:   5    1    1    0
           Beta population by irrep:   5    1    1    0


 total no. of electrons in initial guess :  0.000000000000000E+000
  --------------------------------------------------------------------
  Iteration         Total Energy            Largest Density Difference
  --------------------------------------------------------------------
       0            20.986168253559189              0.0000000000D+00
   current occupation vector 
     5  1  1  0
     5  1  1  0
       1           -92.347209132390645              0.1826956786D+02
   current occupation vector 
     5  1  1  0
     5  1  1  0
       2           -97.758928809351730              0.1826505656D+02
   current occupation vector 
     5  1  1  0
     5  1  1  0
       3          -103.503395850417505              0.9466207715D+01
   current occupation vector 
     5  1  1  0
     5  1  1  0
       4           -99.976121783903125              0.7318544177D+01
   current occupation vector 
     5  1  1  0
     5  1  1  0
       5          -102.625998967226550              0.6068334308D+01
   current occupation vector 
     5  1  1  0
     5  1  1  0
       6           -99.365654261294338              0.5879752901D+01
   current occupation vector 
     5  1  1  0
     5  1  1  0
       7          -102.606352740248667              0.5902426805D+01
   current occupation vector 
     5  1  1  0
     5  1  1  0
       8           -99.244119280600884              0.5896749316D+01
   current occupation vector 
     5  1  1  0
     5  1  1  0
       9          -110.111316919997762              0.4460295146D+01
   current occupation vector 
     5  1  1  0
     5  1  1  0
      10          -111.928622834046450              0.1046942176D+01
   current occupation vector 
     5  1  1  0
     5  1  1  0
      11          -112.721950075030037              0.6039764845D+00
   current occupation vector 
     5  1  1  0
     5  1  1  0
      12          -112.764488465847109              0.1561324477D+00
   current occupation vector 
     5  1  1  0
     5  1  1  0
      13          -112.765515585492466              0.3943130219D-01
   current occupation vector 
     5  1  1  0
     5  1  1  0
      14          -112.765669485094321              0.1735094125D-01
   current occupation vector 
     5  1  1  0
     5  1  1  0
      15          -112.765690265506748              0.8957953601D-02
   current occupation vector 
     5  1  1  0
     5  1  1  0
      16          -112.765690476199921              0.6539165169D-03
   current occupation vector 
     5  1  1  0
     5  1  1  0
      17          -112.765690484820198              0.1295105208D-03
   current occupation vector 
     5  1  1  0
     5  1  1  0
      18          -112.765690485130619              0.3024261101D-04
   current occupation vector 
     5  1  1  0
     5  1  1  0
      19          -112.765690485144688              0.6176004352D-05
   current occupation vector 
     5  1  1  0
     5  1  1  0
      20          -112.765690485144773              0.1058223468D-05
   current occupation vector 
     5  1  1  0
     5  1  1  0
      21          -112.765690485144461              0.1287175260D-06
   current occupation vector 
     5  1  1  0
     5  1  1  0
      22          -112.765690485144944              0.2726979376D-07
   current occupation vector 
     5  1  1  0
     5  1  1  0
      23          -112.765690485144290              0.1497049773D-07
   current occupation vector 
     5  1  1  0
     5  1  1  0
      24          -112.765690485145001              0.2503285357D-09
   current occupation vector 
     5  1  1  0
     5  1  1  0
      25          -112.765690485145598              0.1382405301D-09
   current occupation vector 
     5  1  1  0
     5  1  1  0

  SCF has converged.

 Density matrix saved to file den.dat
 total electron number:   13.9999999999999     
     E(SCF)=      -112.765690485144432              0.8655698380D-10

  Eigenvector printing suppressed.

 @PUTMOS-I, Writing converged MOs to NEWMOS. 
 @PUTMOS-I, Symmetry   1 Full Blocks 21 Partial Blocksize   2
 @PUTMOS-I, Symmetry   2 Full Blocks 13 Partial Blocksize   0
 @PUTMOS-I, Symmetry   3 Full Blocks 13 Partial Blocksize   0
 @PUTMOS-I, Symmetry   4 Full Blocks  7 Partial Blocksize   0
 @PUTFOCK-I, Writing converged Fock matrix to NEWFOCK. 
 @PUTFOCK-I, Symmetry   1 Full Blocks 21 Partial Blocksize   2
 @PUTFOCK-I, Symmetry   2 Full Blocks 13 Partial Blocksize   0
 @PUTFOCK-I, Symmetry   3 Full Blocks 13 Partial Blocksize   0
 @PUTFOCK-I, Symmetry   4 Full Blocks  7 Partial Blocksize   0


 
  ORBITAL EIGENVALUES (ALPHA)  (1H = 27.2113834 eV)

       MO #        E(hartree)               E(eV)           FULLSYM    COMPSYM
       ----   --------------------   --------------------   -------   ---------
    1     1         -20.6669666269        -562.3767525983     SG+        A1 (1)
    2     2         -11.3966948028        -310.1198317716     SG+        A1 (1)
    3     3          -1.4669150540         -39.9167879496     SG+        A1 (1)
    4     4          -0.7981674097         -21.7192394039     SG+        A1 (1)
    5    87          -0.6067356668         -16.5101168528      PI        B1 (2)
    6   139          -0.6067356668         -16.5101168528      PI        B2 (3)
    7     5          -0.5628399839         -15.3156545934     SG+        A1 (1)
  +++++++++++++++++++++++++++++++++++++++++++++++++++++++++++++++++++++++++++++
    8   140           0.0584160279           1.5895809314      PI        B2 (3)
    9    88           0.0584160279           1.5895809314      PI        B1 (2)
   10     6           0.0618845919           1.6839653560     SG+        A1 (1)
   11     7           0.0720734392           1.9612179870     SG+        A1 (1)
   12   141           0.1204961605           3.2788672220      PI        B2 (3)
   13    89           0.1204961605           3.2788672220      PI        B1 (2)
   14     8           0.1568988322           4.2694342793     SG+        A1 (1)
   15   142           0.1669588192           4.5431804403      PI        B2 (3)
   16    90           0.1669588192           4.5431804403      PI        B1 (2)
   17     9           0.2272363808           6.1834162804      DE        A1 (1)
   18   191           0.2272363808           6.1834162804      DE        A2 (4)
   19    10           0.2284221474           6.2156826292     SG+        A1 (1)
   20    11           0.3002006678           8.1688754674     SG+        A1 (1)
   21   143           0.3120506227           8.4913291334      PI        B2 (3)
   22    91           0.3120506227           8.4913291334      PI        B1 (2)
   23    12           0.3876021279          10.5471901100     SG+        A1 (1)
   24   144           0.3952471460          10.7552216278      PI        B2 (3)
   25    92           0.3952471460          10.7552216278      PI        B1 (2)
   26    13           0.5091395310          13.8543909828     SG+        A1 (1)
   27    14           0.5395707192          14.6824657127      DE        A1 (1)
   28   192           0.5395707192          14.6824657127      DE        A2 (4)
   29    15           0.6138621664          16.7040387650     SG+        A1 (1)
   30   145           0.6253959125          17.0178879519      PI        B2 (3)
   31    93           0.6253959125          17.0178879519      PI        B1 (2)
   32    94           0.7466099724          20.3162902095      PH        B1 (2)
   33   146           0.7466099724          20.3162902095      PH        B2 (3)
   34    16           0.7645363057          20.8040905382      DE        A1 (1)
   35   193           0.7645363057          20.8040905382      DE        A2 (4)
   36    17           0.7769283444          21.1412950543     SG+        A1 (1)
   37   147           0.8130670499          22.1246792256      PI        B2 (3)
   38    95           0.8130670499          22.1246792256      PI        B1 (2)
   39    18           0.8581937328          23.3526386939     SG+        A1 (1)
   40    19           0.8754025143          23.8209134457     SG+        A1 (1)
   41   194           0.8859215322          24.1071504744      DE        A2 (4)
   42    20           0.8859215322          24.1071504744      DE        A1 (1)
   43   148           0.8875283653          24.1508746264      PI        B2 (3)
   44    96           0.8875283653          24.1508746264      PI        B1 (2)
   45   149           1.0590470706          28.8181358754      PI        B2 (3)
   46    97           1.0590470706          28.8181358754      PI        B1 (2)
   47    21           1.1484848335          31.2518611344     SG+        A1 (1)
   48   150           1.4416047534          39.2280596561      PH        B2 (3)
   49    98           1.4416047534          39.2280596561      PH        B1 (2)
   50    22           1.4455034023          39.3341472863     SG+        A1 (1)
   51   195           1.5312773811          41.6681759085      DE        A2 (4)
   52    23           1.5312773811          41.6681759086      DE        A1 (1)
   53   151           1.5651399225          42.5896225071      PI        B2 (3)
   54    99           1.5651399225          42.5896225071      PI        B1 (2)
   55    24           1.6654376226          45.3188616777     SG+        A1 (1)
   56   152           1.7433913417          47.4400902145      PI        B2 (3)
   57   100           1.7433913417          47.4400902145      PI        B1 (2)
   58   196           1.7568969541          47.8075966136      DE        A2 (4)
   59    25           1.7568969541          47.8075966137      DE        A1 (1)
   60    26           1.8006990734          48.9995128737     SG+        A1 (1)
   61   153           2.0075784741          54.6289875630      PI        B2 (3)
   62   101           2.0075784741          54.6289875631      PI        B1 (2)
   63    27           2.0872186888          56.7961079807     SG+        A1 (1)
   64    28           2.0996232199          57.1336524316      PI        A1 (1)
   65   197           2.0996232199          57.1336524316      PI        A2 (4)
   66   198           2.1798778969          59.3174932188      DE        A2 (4)
   67    29           2.1798778969          59.3174932188      DE        A1 (1)
   68   102           2.2444117061          61.0735474414      PH        B1 (2)
   69   154           2.2444117061          61.0735474414      PH        B2 (3)
   70   155           2.3073363731          62.7858146816      PI        B2 (3)
   71   103           2.3073363731          62.7858146816      PI        B1 (2)
   72    30           2.3080559589          62.8053956063     SG+        A1 (1)
   73   156           2.3331311947          63.4877274606      PH        B2 (3)
   74   104           2.3331311947          63.4877274606      PH        B1 (2)
   75   199           2.3506891891          63.9655047780      DE        A2 (4)
   76    31           2.3506891891          63.9655047780      DE        A1 (1)
   77    32           2.4812431115          67.5180576169     SG+        A1 (1)
   78   157           2.5771558485          70.1279758753      PI        B2 (3)
   79   105           2.5771558485          70.1279758753      PI        B1 (2)
   80   158           2.7624606431          75.1703756861      PI        B2 (3)
   81   106           2.7624606431          75.1703756861      PI        B1 (2)
   82    33           2.8280299150          76.9546062839     SG+        A1 (1)
   83    34           2.9391685201          79.9788414782      DE        A1 (1)
   84   200           2.9391685201          79.9788414782      DE        A2 (4)
   85    35           3.4749745521          94.5588648423     SG+        A1 (1)
   86    36           3.7114333691         100.9932363698      PI        A1 (1)
   87   201           3.7114333691         100.9932363698      PI        A2 (4)
   88   159           3.7149253889         101.0882590596      PI        B2 (3)
   89   107           3.7149253889         101.0882590596      PI        B1 (2)
   90    37           3.9181261959         106.6176341272     SG+        A1 (1)
   91   108           4.0878133494         111.2350563195      PH        B1 (2)
   92   160           4.0878133494         111.2350563195      PH        B2 (3)
   93   202           4.1860151285         113.9072625789      DE        A2 (4)
   94    38           4.1860151285         113.9072625789      DE        A1 (1)
   95   109           4.2015600742         114.3302620583      PH        B1 (2)
   96   161           4.2015600742         114.3302620583      PH        B2 (3)
   97   110           4.2017036166         114.3341680457      PI        B1 (2)
   98   162           4.2017036166         114.3341680457      PI        B2 (3)
   99    39           4.2463282921         115.5484671983     SG+        A1 (1)
  100    40           4.3463335138         118.2697476269      DE        A1 (1)
  101   203           4.3463335138         118.2697476270      DE        A2 (4)
  102    41           4.4263830929         120.4480074156     SG+        A1 (1)
  103   163           4.8145863109         131.0115540193      PI        B2 (3)
  104   111           4.8145863109         131.0115540194      PI        B1 (2)
  105   164           5.0008006172         136.0787029013      PI        B2 (3)
  106   112           5.0008006172         136.0787029013      PI        B1 (2)
  107    42           5.0901235600         138.5093037433      DE        A1 (1)
  108   204           5.0901235600         138.5093037433      DE        A2 (4)
  109    43           5.1270370583         139.5137710983     SG+        A1 (1)
  110    44           5.5596417844         151.2855441628     SG+        A1 (1)
  111   165           5.7194460332         155.6340388452      PI        B2 (3)
  112   113           5.7194460332         155.6340388452      PI        B1 (2)
  113    45           5.8882925507         160.2285861680      PI        A1 (1)
  114   205           5.8882925507         160.2285861680      PI        A2 (4)
  115   114           6.0633252458         164.9914679423      PH        B1 (2)
  116   166           6.0633252458         164.9914679423      PH        B2 (3)
  117    46           6.2370239601         169.7180502536     SG+        A1 (1)
  118    47           6.2747801760         170.7454491193      DE        A1 (1)
  119   206           6.2747801760         170.7454491193      DE        A2 (4)
  120   115           6.3030352007         171.5143074295      PI        B1 (2)
  121   167           6.3030352007         171.5143074295      PI        B2 (3)
  122   116           6.4282774646         174.9223226902      PH        B1 (2)
  123   168           6.4282774646         174.9223226902      PH        B2 (3)
  124    48           6.5591315661         178.4830438150      DE        A1 (1)
  125   207           6.5591315661         178.4830438151      DE        A2 (4)
  126    49           6.8308566273         185.8770586369     SG+        A1 (1)
  127   208           7.0576802094         192.0492420920      DE        A2 (4)
  128    50           7.0576802094         192.0492420920      DE        A1 (1)
  129   169           7.3075586310         198.8487796258      PI        B2 (3)
  130   117           7.3075586310         198.8487796258      PI        B1 (2)
  131    51           7.6621790697         208.4984923440     SG+        A1 (1)
  132    52           8.1449220100         221.6345955762     SG+        A1 (1)
  133   118           8.2328905999         224.0283426049      PI        B1 (2)
  134   170           8.2328905999         224.0283426050      PI        B2 (3)
  135   171          10.1130779889         275.1908425095      PI        B2 (3)
  136   119          10.1130779889         275.1908425096      PI        B1 (2)
  137    53          10.4937836532         285.5503703030     SG+        A1 (1)
  138   209          10.6068483756         288.6270178138      PI        A2 (4)
  139    54          10.6068483756         288.6270178138      PI        A1 (1)
  140   120          10.8335812109         294.7967319257      PH        B1 (2)
  141   172          10.8335812109         294.7967319257      PH        B2 (3)
  142    55          11.0135819258         299.6948003910     SG+        A1 (1)
  143    56          11.0722015057         301.2899202548      DE        A1 (1)
  144   210          11.0722015057         301.2899202548      DE        A2 (4)
  145   121          11.3107053604         307.7799400869      PI        B1 (2)
  146   173          11.3107053604         307.7799400869      PI        B2 (3)
  147    57          11.4882852610         312.6121348455     SG+        A1 (1)
  148   122          11.8559790105         322.6175904359      PH        B1 (2)
  149   174          11.8559790105         322.6175904359      PH        B2 (3)
  150    58          12.2106481978         332.2686296723      DE        A1 (1)
  151   211          12.2106481978         332.2686296724      DE        A2 (4)
  152   175          12.5679358987         341.9909222861      PI        B2 (3)
  153   123          12.5679358987         341.9909222861      PI        B1 (2)
  154    59          12.8295011317         349.1084741265      DE        A1 (1)
  155   212          12.8295011317         349.1084741266      DE        A2 (4)
  156    60          13.0750611585         355.7905021615     SG+        A1 (1)
  157   124          13.7554097400         374.3037282605      PI        B1 (2)
  158   176          13.7554097401         374.3037282606      PI        B2 (3)
  159    61          15.0495921351         409.5202216022     SG+        A1 (1)
  160    62          17.9276835464         487.8370704563     SG+        A1 (1)
  161   125          19.2438132658         523.6507808546      PI        B1 (2)
  162   177          19.2438132658         523.6507808547      PI        B2 (3)
  163    63          20.5366907747         558.8317664365     SG+        A1 (1)
  164    64          26.4605001478         720.0268144774      DE        A1 (1)
  165   213          26.4605001478         720.0268144774      DE        A2 (4)
  166   126          26.8958780533         731.8740495881      PI        B1 (2)
  167   178          26.8958780533         731.8740495881      PI        B2 (3)
  168    65          27.8637468270         758.2110978697     SG+        A1 (1)
  169   179          33.7641906862         918.7703379516      PI        B2 (3)
  170   127          33.7641906862         918.7703379521      PI        B1 (2)
  171    66          34.8027449651         947.0308366184     SG+        A1 (1)
  172    67          36.5053722239         993.3616797453     SG+        A1 (1)
  173   214          47.1039159368        1281.7627161987      DE        A2 (4)
  174    68          47.1039159368        1281.7627161987      DE        A1 (1)
  175   128          47.5157103151        1292.9682109067      PI        B1 (2)
  176   180          47.5157103151        1292.9682109067      PI        B2 (3)
  177    69          48.3385241826        1315.3581145239     SG+        A1 (1)
  178    70          64.1154528739        1744.6701700158     SG+        A1 (1)
  179   129          66.7168662375        1815.4582264341      PI        B1 (2)
  180   181          66.7168662375        1815.4582264341      PI        B2 (3)
  181    71          67.7137829133        1842.5857083182     SG+        A1 (1)
  182   130          98.6378954517        2684.0735909053      PH        B1 (2)
  183   182          98.6378954517        2684.0735909053      PH        B2 (3)
  184    72          98.6554245626        2684.5505822621      DE        A1 (1)
  185   215          98.6554245626        2684.5505822621      DE        A2 (4)
  186   183          98.7073227331        2685.9628032791      PI        B2 (3)
  187   131          98.7073227331        2685.9628032791      PI        B1 (2)
  188    73          98.7242778514        2686.4241755017     SG+        A1 (1)
  189   132         103.2825404774        2810.4608074573      PH        B1 (2)
  190   184         103.2825404774        2810.4608074573      PH        B2 (3)
  191    74         103.3219461134        2811.5330893261      DE        A1 (1)
  192   216         103.3219461135        2811.5330893278      DE        A2 (4)
  193   185         103.3543876497        2812.4158684089      PI        B2 (3)
  194   133         103.3543876497        2812.4158684089      PI        B1 (2)
  195    75         103.3926010295        2813.4557073371     SG+        A1 (1)
  196    76         115.1299642668        3132.8455984933      DE        A1 (1)
  197   217         115.1299642668        3132.8455984934      DE        A2 (4)
  198   186         115.3429253920        3138.6405653190      PI        B2 (3)
  199   134         115.3429253920        3138.6405653191      PI        B1 (2)
  200    77         115.8286014209        3151.8564819488     SG+        A1 (1)
  201   187         117.0182366111        3184.2281012171      PI        B2 (3)
  202   135         117.0182366111        3184.2281012176      PI        B1 (2)
  203    78         117.8341140950        3206.4292562394     SG+        A1 (1)
  204    79         122.7099486137        3339.1074587222     SG+        A1 (1)
  205   218         198.5662409966        5403.2621140555      DE        A2 (4)
  206    80         198.5662409966        5403.2621140556      DE        A1 (1)
  207   136         198.7870674767        5409.2711080697      PI        B1 (2)
  208   188         198.7870674767        5409.2711080701      PI        B2 (3)
  209    81         199.2001883109        5420.5126974790     SG+        A1 (1)
  210    82         216.6023826742        5894.0504803022     SG+        A1 (1)
  211   137         225.1438089732        6126.4745061056      PI        B1 (2)
  212   189         225.1438089732        6126.4745061056      PI        B2 (3)
  213    83         225.9578297839        6148.6251384822     SG+        A1 (1)
  214   190         395.4765642002       10761.4644141654      PI        B2 (3)
  215   138         395.4765642002       10761.4644141660      PI        B1 (2)
  216    84         396.1491630662       10779.7667597847     SG+        A1 (1)
  217    85         509.2844105881       13858.3333561556     SG+        A1 (1)
  218    86         895.4303946731       24365.8997774637     SG+        A1 (1)


  VSCF finished.

 @CHECKOUT-I, Total execution time (CPU/WALL):       45.01/       9.08 seconds.
--executable xvscf finished with status     0 in        9.10 seconds (walltime).
 --invoking executable--
/nfs/workspaces/public/cfour_mpi/bin/xvtran
 @GETMEM-I,  Allocated    3814 MB of main memory.
  Full RHF integral transformation
  Transformation of IIII integrals :
  1 pass through the AO integral file was required.
     4560793 AO integrals were read.
     8789215 MO integrals were written to HF2.
  Transformation of IIJJ integrals :
  1 pass through the AO integral file was required.
    10326637 AO integrals were read.
    14599962 MO integrals were written to HF2.
  Transformation of IJIJ integrals :
  1 pass through the AO integral file was required.
    19597775 AO integrals were read.
    27433584 MO integrals were written to HF2.
  Transformation of IJKL integrals :
  1 pass through the AO integral file was required.
    14500556 AO integrals were read.
    18537686 MO integrals were written to HF2.
  Summary of active molecular orbitals: 
------------------------------------------------------------------------
 
  Index      Eigenvalue    Symmetry    Index      Eigenvalue    Symmetry
------------------------------------------------------------------------
     1       -20.6669666        1       110         4.2015601        2
     2       -11.3966948        1       111         4.2017036        2
     3        -1.4669151        1       112         4.8145863        2
     4        -0.7981674        1       113         5.0008006        2
     5        -0.5628400        1       114         5.7194460        2
     6        -0.6067357        2       115         6.0633252        2
     7        -0.6067357        3       116         6.3030352        2
     8         0.0618846        1       117         6.4282775        2
     9         0.0720734        1       118         7.3075586        2
    10         0.1568988        1       119         8.2328906        2
    11         0.2272364        1       120        10.1130780        2
    12         0.2284221        1       121        10.8335812        2
    13         0.3002007        1       122        11.3107054        2
    14         0.3876021        1       123        11.8559790        2
    15         0.5091395        1       124        12.5679359        2
    16         0.5395707        1       125        13.7554097        2
    17         0.6138622        1       126        19.2438133        2
    18         0.7645363        1       127        26.8958781        2
    19         0.7769283        1       128        33.7641907        2
    20         0.8581937        1       129        47.5157103        2
    21         0.8754025        1       130        66.7168662        2
    22         0.8859215        1       131        98.6378955        2
    23         1.1484848        1       132        98.7073227        2
    24         1.4455034        1       133       103.2825405        2
    25         1.5312774        1       134       103.3543876        2
    26         1.6654376        1       135       115.3429254        2
    27         1.7568970        1       136       117.0182366        2
    28         1.8006991        1       137       198.7870675        2
    29         2.0872187        1       138       225.1438090        2
    30         2.0996232        1       139       395.4765642        2
    31         2.1798779        1       140         0.0584160        3
    32         2.3080560        1       141         0.1204962        3
    33         2.3506892        1       142         0.1669588        3
    34         2.4812431        1       143         0.3120506        3
    35         2.8280299        1       144         0.3952471        3
    36         2.9391685        1       145         0.6253959        3
    37         3.4749746        1       146         0.7466100        3
    38         3.7114334        1       147         0.8130670        3
    39         3.9181262        1       148         0.8875284        3
    40         4.1860151        1       149         1.0590471        3
    41         4.2463283        1       150         1.4416048        3
    42         4.3463335        1       151         1.5651399        3
    43         4.4263831        1       152         1.7433913        3
    44         5.0901236        1       153         2.0075785        3
    45         5.1270371        1       154         2.2444117        3
    46         5.5596418        1       155         2.3073364        3
    47         5.8882926        1       156         2.3331312        3
    48         6.2370240        1       157         2.5771558        3
    49         6.2747802        1       158         2.7624606        3
    50         6.5591316        1       159         3.7149254        3
    51         6.8308566        1       160         4.0878133        3
    52         7.0576802        1       161         4.2015601        3
    53         7.6621791        1       162         4.2017036        3
    54         8.1449220        1       163         4.8145863        3
    55        10.4937837        1       164         5.0008006        3
    56        10.6068484        1       165         5.7194460        3
    57        11.0135819        1       166         6.0633252        3
    58        11.0722015        1       167         6.3030352        3
    59        11.4882853        1       168         6.4282775        3
    60        12.2106482        1       169         7.3075586        3
    61        12.8295011        1       170         8.2328906        3
    62        13.0750612        1       171        10.1130780        3
    63        15.0495921        1       172        10.8335812        3
    64        17.9276835        1       173        11.3107054        3
    65        20.5366908        1       174        11.8559790        3
    66        26.4605001        1       175        12.5679359        3
    67        27.8637468        1       176        13.7554097        3
    68        34.8027450        1       177        19.2438133        3
    69        36.5053722        1       178        26.8958781        3
    70        47.1039159        1       179        33.7641907        3
    71        48.3385242        1       180        47.5157103        3
    72        64.1154529        1       181        66.7168662        3
    73        67.7137829        1       182        98.6378955        3
    74        98.6554246        1       183        98.7073227        3
    75        98.7242779        1       184       103.2825405        3
    76       103.3219461        1       185       103.3543876        3
    77       103.3926010        1       186       115.3429254        3
    78       115.1299643        1       187       117.0182366        3
    79       115.8286014        1       188       198.7870675        3
    80       117.8341141        1       189       225.1438090        3
    81       122.7099486        1       190       395.4765642        3
    82       198.5662410        1       191         0.2272364        4
    83       199.2001883        1       192         0.5395707        4
    84       216.6023827        1       193         0.7645363        4
    85       225.9578298        1       194         0.8859215        4
    86       396.1491631        1       195         1.5312774        4
    87       509.2844106        1       196         1.7568970        4
    88       895.4303947        1       197         2.0996232        4
    89         0.0584160        2       198         2.1798779        4
    90         0.1204962        2       199         2.3506892        4
    91         0.1669588        2       200         2.9391685        4
    92         0.3120506        2       201         3.7114334        4
    93         0.3952471        2       202         4.1860151        4
    94         0.6253959        2       203         4.3463335        4
    95         0.7466100        2       204         5.0901236        4
    96         0.8130670        2       205         5.8882926        4
    97         0.8875284        2       206         6.2747802        4
    98         1.0590471        2       207         6.5591316        4
    99         1.4416048        2       208         7.0576802        4
   100         1.5651399        2       209        10.6068484        4
   101         1.7433913        2       210        11.0722015        4
   102         2.0075785        2       211        12.2106482        4
   103         2.2444117        2       212        12.8295011        4
   104         2.3073364        2       213        26.4605001        4
   105         2.3331312        2       214        47.1039159        4
   106         2.5771558        2       215        98.6554246        4
   107         2.7624606        2       216       103.3219461        4
   108         3.7149254        2       217       115.1299643        4
   109         4.0878133        2       218       198.5662410        4
------------------------------------------------------------------------
  -20.6669666268525       -11.3966948027944       -1.46691505399882     
 -0.798167409742997      -0.562839983851202      -0.606735666837483     
 -0.606735666837466       6.188459187433934E-002  7.207343919881773E-002
  0.156898832246538       0.227236380800301       0.228422147370568     
  0.300200667763223       0.387602127940339       0.509139531023566     
  0.539570719240952       0.613862166414062       0.764536305721533     
  0.776928344418616       0.858193732771277       0.875402514290216     
  0.885921532178034        1.14848483353317        1.44550340231084     
   1.53127738108947        1.66543762261398        1.75689695414945     
   1.80069907337743        2.08721868880469        2.09962321987630     
   2.17987789693927        2.30805595889951        2.35068918907051     
   2.48124311154570        2.82802991500544        2.93916852011913     
   3.47497455209556        3.71143336908930        3.91812619593664     
   4.18601512846654        4.24632829208733        4.34633351375064     
   4.42638309287918        5.09012355995361        5.12703705825906     
   5.55964178443056        5.88829255068181        6.23702396011190     
   6.27478017598027        6.55913156605574        6.83085662733780     
   7.05768020937840        7.66217906965943        8.14492200996217     
   10.4937836531685        10.6068483755900        11.0135819258287     
   11.0722015057414        11.4882852609947        12.2106481977783     
   12.8295011317391        13.0750611584658        15.0495921351144     
   17.9276835464480        20.5366907746601        26.4605001477947     
   27.8637468269892        34.8027449651247        36.5053722239390     
   47.1039159368386        48.3385241826355        64.1154528738789     
   67.7137829133008        98.6554245625773        98.7242778513671     
[...]
 Convergence information after     9 iterations: 
 Largest element of residual vector : -0.14183198E-04.
 Largest element of DIIS residual   : -0.67109473E-05.
 Convergence information after    10 iterations: 
 Largest element of residual vector : -0.73727593E-05.
 Largest element of DIIS residual   : -0.52167156E-05.
 Convergence information after    11 iterations: 
 Largest element of residual vector : -0.33364969E-05.
 Largest element of DIIS residual   : -0.99436593E-06.
 Convergence information after    12 iterations: 
 Largest element of residual vector : -0.14757850E-05.
 Largest element of DIIS residual   :  0.55728248E-06.
 Convergence information after    13 iterations: 
 Largest element of residual vector :  0.45700590E-06.
 Largest element of DIIS residual   :  0.17958470E-06.
 Convergence information after    14 iterations: 
 Largest element of residual vector :  0.18607420E-06.
 Largest element of DIIS residual   :  0.81246545E-07.
 Perturbed amplitude equations converged in    14 iterations.
  Dominant contributions to perturbed wavefunction:
    7    7  141   28   0.2398221706 ABAB
    7    7   28  141   0.2398221706 ABAB
    7    7  141   37  -0.1887259576 ABAB
    7    7   37  141  -0.1887259576 ABAB
    7    7  141   39   0.1715208705 ABAB
    7    7   39  141   0.1715208705 ABAB
    7    7  140   28   0.1578676254 ABAB
    7    7   28  140   0.1578676254 ABAB
    7    6   28   90   0.1556953345 ABAB
    6    7   90   28   0.1556953345 ABAB
    7    7  141   45   0.1407416466 ABAB
    7    7   45  141   0.1407416466 ABAB
    7    7  141   53  -0.1318752344 ABAB
    7    7   53  141  -0.1318752344 ABAB
    7    0   45    0  -0.1308933303 AA  
    7    7  141   55   0.1283576862 ABAB
    7    7   55  141   0.1283576862 ABAB
    7    7  141   20   0.1282556064 ABAB
    7    7   20  141   0.1282556064 ABAB
    7    7  141   19  -0.1229288484 ABAB
  norm of converged amps    2.24720529087618     
 Starting iterative solution of the perturbed Lambda equations.
 The DIIS procedure is used to accelerate convergence.
 Convergence criterion is 10**(-7).
 Maximum number of iterations is 100.
 Convergence information after     1 iterations: 
 Largest element of residual vector :  0.62707730E-01.
 Largest element of DIIS residual   :  0.62707730E-01.
 Convergence information after     2 iterations: 
 Largest element of residual vector : -0.92105987E-02.
 Largest element of DIIS residual   : -0.56511675E-02.
 Convergence information after     3 iterations: 
 Largest element of residual vector : -0.50015305E-02.
 Largest element of DIIS residual   : -0.43953045E-02.
 Convergence information after     4 iterations: 
 Largest element of residual vector : -0.30997812E-02.
 Largest element of DIIS residual   : -0.25186219E-02.
 Convergence information after     5 iterations: 
 Largest element of residual vector : -0.19448994E-02.
 Largest element of DIIS residual   : -0.96892882E-03.
 Convergence information after     6 iterations: 
 Largest element of residual vector : -0.66400224E-03.
 Largest element of DIIS residual   : -0.18252309E-03.
 Convergence information after     7 iterations: 
 Largest element of residual vector : -0.16134740E-03.
 Largest element of DIIS residual   :  0.65928367E-04.
 Convergence information after     8 iterations: 
 Largest element of residual vector :  0.39877655E-04.
 Largest element of DIIS residual   : -0.26453412E-04.
 Convergence information after     9 iterations: 
 Largest element of residual vector : -0.10361448E-04.
 Largest element of DIIS residual   : -0.64570049E-05.
 Convergence information after    10 iterations: 
 Largest element of residual vector : -0.56150822E-05.
 Largest element of DIIS residual   : -0.44621949E-05.
 Convergence information after    11 iterations: 
 Largest element of residual vector : -0.24822845E-05.
 Largest element of DIIS residual   : -0.95155336E-06.
 Convergence information after    12 iterations: 
 Largest element of residual vector : -0.12821484E-05.
 Largest element of DIIS residual   :  0.83538927E-06.
 Convergence information after    13 iterations: 
 Largest element of residual vector :  0.63745043E-06.
 Largest element of DIIS residual   :  0.38944365E-06.
 Convergence information after    14 iterations: 
 Largest element of residual vector :  0.34788054E-06.
 Largest element of DIIS residual   :  0.17120472E-06.
 Convergence information after    15 iterations: 
 Largest element of residual vector :  0.11347813E-06.
 Largest element of DIIS residual   :  0.53299463E-07.
 Perturbed Lambda equations converged in    15 iterations.
  Dominant contributions to perturbed wavefunction:
    7    7  141   28   0.2237448886 ABAB
    7    7   28  141   0.2237448886 ABAB
    7    7  141   37  -0.1775119094 ABAB
    7    7   37  141  -0.1775119094 ABAB
    7    7  141   39   0.1584233688 ABAB
    7    7   39  141   0.1584233688 ABAB
    7    7  140   28   0.1481795865 ABAB
    7    7   28  140   0.1481795865 ABAB
    7    6   28   90   0.1430422187 ABAB
    6    7   90   28   0.1430422187 ABAB
    7    7  141   45   0.1274812077 ABAB
    7    7   45  141   0.1274812077 ABAB
    7    7  141   53  -0.1217628903 ABAB
    7    7   53  141  -0.1217628903 ABAB
    7    7  141   55   0.1181600323 ABAB
    7    7   55  141   0.1181600323 ABAB
    7    7  141   20   0.1175221130 ABAB
    7    7   20  141   0.1175221130 ABAB
    5    5  141   45   0.1168267776 ABAB
    5    5   45  141   0.1168267776 ABAB
        The DBOC first-order density matrix is being calculated 
             (Symmetry block 3, perturbation   2)
 term   5.84531416144755     
 final tnorm  0.876589682185848     
  norm contr. I: |<0|L dT/dx|0>|^2   0.000000000000000E+000
  norm contr. II: <0|[nabla(1+L)e-T][nabla e^T]|0>   5.84531416144755     
  total norm contribution   5.84531416144755     
 oo  1.034782423897809E-002
 vv  -43.8682169545125     
 vo  5.072704049979464E-002
  Correlated perturbed 1-el contribution to DBOC  -43.8071420897737       cm**-1
  SUM_I |dc_I/dx|^2 contribution to DBOC   22.0059103819546       cm**-1
 
 
  The total diagonal Born-Oppenheimer correction (DBOC) is:      0.0041399076 a.u.
  The total diagonal Born-Oppenheimer correction (DBOC) is:        908.604698 cm-1
 
 Total CC energy including DBOC  -113.266821498553     
 First-order density matrix is being calculated  (Symmetry block 3, perturbation   2)
 Calculation of the contributions of <pq||rs> to dI(i,j)/dx required   1.9 seconds.
 Calculation of the contributions of <pq||rs> to dI(a,b)/dx required  15.8 seconds.
 Calculation of the contributions of <pq||rs> to dI(i,a)/dx required  10.2 seconds.
 First-order Z-vector equations are solved for 1 perturbation.
 Convergence reached after  18 iterations.
        U*G(pq,rs) contribution is being calculated
             (Symmetry block 3, perturbation   2)

 CCSD contribution to force constants 

        0.0000000000        0.0000000000        0.0000000000
        0.0000000000        0.0000000000        0.0000000000
        0.0000000000        0.0000000000        0.0000000000
        0.0000000000        0.0000000000        0.0000000000
        0.0000000000        0.0000000000        0.0000000000
        0.0000000000        0.0000000000        0.0000000000
        0.0000000000        0.0000000000        0.0000000000
        0.0000000000        0.0000000000        0.0000000000
        0.0000000000        0.0000000000        0.0000000000
        0.0000000000        0.0000000000        0.0000000000
        0.0000000000        0.0000000000        0.0000000000
        0.0000000000        0.9306840289       -0.9306840289

 CCSD contribution to dipole derivatives 

        0.0000000000        0.0000000000        0.0000000000
        0.0000000000        0.0000000000        0.0000000000
        0.0000000000        0.0000000000        0.0000000000
        0.0000000000        0.0000000000       -0.0479383216
        0.0000000000        0.0000000000        0.0000000000
        0.0000000000        0.0000000000        0.0000000000
 @CHECKOUT-I, Total execution time (CPU/WALL):     1042.92/     222.21 seconds.
--executable xsdcc finished with status     0 in      222.25 seconds (walltime).
 --invoking executable--
/nfs/workspaces/public/cfour_mpi/bin/xanti
 @GETMEM-I,  Allocated    3814 MB of main memory.
 CCSD MO derivative gammas will be sorted to Mulliken order.
 @CHECKOUT-I, Total execution time (CPU/WALL):       10.24/      24.26 seconds.
--executable xanti finished with status     0 in       24.29 seconds (walltime).
 --invoking executable--
/nfs/workspaces/public/cfour_mpi/bin/xbcktrn
 @GETMEM-I,  Allocated    3814 MB of main memory.
 CCSD MO derivative gammas will be transformed to the AO basis.
 @CHECKOUT-I, Total execution time (CPU/WALL):       20.53/       4.43 seconds.
--executable xbcktrn finished with status     0 in        4.44 seconds (walltime).
 --invoking executable--
/nfs/workspaces/public/cfour_mpi/bin/xvdint
 @GETMEM-I,  Allocated    3814 MB of main memory.
 One- and two-electron integral derivatives are calculated
 for RHF-CC/MBPT hessians and dipole derivatives.
 Spherical gaussians are used.
  magnet F F
                    8722  records have been written to the Sort file.
  Total length of Sort file :             178609116  words.
 Evaluation of 2el integral derivatives

                      Two-electron integral gradient
                      ------------------------------

                         C #1 z     0.0000000000
                         O #2 z     0.0000000000


 C #1       0.0000000000           -0.3889964822            0.0000000000
 O #2       0.0000000000            0.3889964822            0.0000000000


 Evaluation of 2e integral derivatives required  314.46 seconds.
  contribution to Hessian
        0.0000000000        0.0000000000        0.0000000000
        0.0000000000       -0.3889964822        0.3889964822
 @CHECKOUT-I, Total execution time (CPU/WALL):      314.45/      66.54 seconds.
--executable xvdint finished with status     0 in       66.56 seconds (walltime).
 --invoking executable--
/nfs/workspaces/public/cfour_mpi/bin/xanti
 @GETMEM-I,  Allocated    3814 MB of main memory.
 CCSD MO gammas will be sorted to Mulliken order.
 @CHECKOUT-I, Total execution time (CPU/WALL):       10.67/       9.34 seconds.
--executable xanti finished with status     0 in        9.36 seconds (walltime).
 --invoking executable--
/nfs/workspaces/public/cfour_mpi/bin/xbcktrn
 @GETMEM-I,  Allocated    3814 MB of main memory.
 CCSD MO gammas will be transformed to the AO basis.
 @CHECKOUT-I, Total execution time (CPU/WALL):       37.24/       6.13 seconds.
--executable xbcktrn finished with status     0 in        6.15 seconds (walltime).
 --invoking executable--
/nfs/workspaces/public/cfour_mpi/bin/xvdint
 @GETMEM-I,  Allocated    3814 MB of main memory.
 One- and two-electron integral derivatives are calculated
 for RHF-CC/MBPT hessians and dipole derivatives.
 Spherical gaussians are used.
  magnet F F

                     Kinetic energy integral gradient
                     --------------------------------

                         C #1 z    -1.2640463712
                         O #2 z     1.2640463712


 C #1       0.0000000000            0.0000000000           -1.2640463712
 O #2       0.0000000000            0.0000000000            1.2640463712



                   Nuclear attraction integral gradient
                   ------------------------------------

                         C #1 z    21.5104998759
                         O #2 z   -21.5104998759


 C #1       0.0000000000            0.0000000000           21.5104998759
 O #2       0.0000000000            0.0000000000          -21.5104998759



                      Reorthonormalization gradient
                      -----------------------------

                         C #1 z     0.0000000000
                         O #2 z     0.0000000000


 C #1       0.0000000000            0.0000000000            0.0000000000
 O #2       0.0000000000            0.0000000000            0.0000000000



                     Kinetic energy integral Hessian
                     -------------------------------


           Symmetry 1

           C #1 z      O #2 z

 C #1 z    1.070382
 O #2 z   -1.070382    1.070382


           Symmetry 2

           C #1 x      O #2 x

 C #1 x   -1.492987
 O #2 x    1.492987   -1.492987


           Symmetry 3

           C #1 y      O #2 y

 C #1 y   -1.492987
 O #2 y    1.492987   -1.492987




           C #1 x      C #1 y      C #1 z      O #2 x      O #2 y      O #2 z

 C #1 x   -1.492987
 C #1 y    0.000000   -1.492987
 C #1 z    0.000000    0.000000    1.070382

 O #2 x    1.492987    0.000000    0.000000   -1.492987
 O #2 y    0.000000    1.492987    0.000000    0.000000   -1.492987
 O #2 z    0.000000    0.000000   -1.070382    0.000000    0.000000    1.070382




                   Nuclear attraction integral Hessian
                   -----------------------------------


           Symmetry 1

           C #1 z      O #2 z

 C #1 z  -12.764870
 O #2 z   12.764870  -12.764870


           Symmetry 2

           C #1 x      O #2 x

 C #1 x   17.324021
 O #2 x  -17.324021   17.324021


           Symmetry 3

           C #1 y      O #2 y

 C #1 y   17.324021
 O #2 y  -17.324021   17.324021




           C #1 x      C #1 y      C #1 z      O #2 x      O #2 y      O #2 z

 C #1 x   17.324021
 C #1 y    0.000000   17.324021
 C #1 z    0.000000    0.000000  -12.764870

 O #2 x  -17.324021    0.000000    0.000000   17.324021
 O #2 y    0.000000  -17.324021    0.000000    0.000000   17.324021
 O #2 z    0.000000    0.000000   12.764870    0.000000    0.000000  -12.764870




                Highest order reorthonormalization Hessian
                ------------------------------------------


           Symmetry 1

           C #1 z      O #2 z

 C #1 z    0.000000
 O #2 z    0.000000    0.000000


           Symmetry 2

           C #1 x      O #2 x

 C #1 x    0.000000
 O #2 x    0.000000    0.000000


           Symmetry 3

           C #1 y      O #2 y

 C #1 y    0.000000
 O #2 y    0.000000    0.000000




           C #1 x      C #1 y      C #1 z      O #2 x      O #2 y      O #2 z




                Electronic contributions to dipole moment
                -----------------------------------------

                               au             Debye

                    z      0.05327479      0.13541103

  Conversion factor used: 1 a.u. =   2.54174691 Debye 



   Electronic contributions to static part of dipole moment derivatives
   --------------------------------------------------------------------


                     Total dipole moment derivatives
                     -------------------------------


           Symmetry 1
                              Ez

               C #1 z    -5.69912642
               O #2 z    -8.30087358

           Symmetry 2
                              Ex

               C #1 x    -5.74994561
               O #2 x    -8.25005439

           Symmetry 3
                              Ey

               C #1 y    -5.74994561
               O #2 y    -8.25005439



                       Ex          Ey          Ez

      C #1    x   -5.749946    0.000000    0.000000
      C #1    y    0.000000   -5.749946    0.000000
      C #1    z    0.000000    0.000000   -5.699126

      O #2    x   -8.250054    0.000000    0.000000
      O #2    y    0.000000   -8.250054    0.000000
      O #2    z    0.000000    0.000000   -8.300874

 Evaluation of 1e integral derivatives required    1.71 seconds.
                    8815  records have been written to the Sort file.
  Total length of Sort file :             180513570  words.
 Evaluation of 2el integral derivatives

                      Two-electron integral gradient
                      ------------------------------

                         C #1 z   -10.4655295685
                         O #2 z    10.4655295685


 C #1       0.0000000000            0.0000000000          -10.4655295685
 O #2       0.0000000000            0.0000000000           10.4655295685


 Evaluation of 2e integral derivatives required  713.69 seconds.

                            Molecular gradient
                            ------------------

                         C #1 z     0.6055222926
                         O #2 z    -0.6055222926


 C #1       0.0000000000            0.0000000000            0.6055222926
 O #2       0.0000000000            0.0000000000           -0.6055222926


  Molecular gradient norm 0.856E+00

                            Molecular hessian
                            -----------------


           Symmetry 1

           C #1 z      O #2 z

 C #1 z   52.908738
 O #2 z  -52.908738   52.908738


           Symmetry 2

           C #1 x      O #2 x

 C #1 x   -0.306828
 O #2 x    0.306828   -0.306828


           Symmetry 3

           C #1 y      O #2 y

 C #1 y   -0.306828
 O #2 y    0.306828   -0.306828




           C #1 x      C #1 y      C #1 z      O #2 x      O #2 y      O #2 z

 C #1 x   -0.306828
 C #1 y    0.000000   -0.306828
 C #1 z    0.000000    0.000000   52.908738

 O #2 x    0.306828    0.000000    0.000000   -0.306828
 O #2 y    0.000000    0.306828    0.000000    0.000000   -0.306828
 O #2 z    0.000000    0.000000  -52.908738    0.000000    0.000000   52.908738




                           Total dipole moment
                           -------------------

                               au             Debye

                    z      0.05078190      0.12907474

  Conversion factor used: 1 a.u. =   2.54174691 Debye 



                     Total dipole moment derivatives
                     -------------------------------


           Symmetry 1
                              Ez

               C #1 z     0.71433968
               O #2 z    -0.71433968

           Symmetry 2
                              Ex

               C #1 x     0.02210769
               O #2 x    -0.02210769

           Symmetry 3
                              Ey

               C #1 y     0.02210769
               O #2 y    -0.02210769



                       Ex          Ey          Ez

      C #1    x    0.022108    0.000000    0.000000
      C #1    y    0.000000    0.022108    0.000000
      C #1    z    0.000000    0.000000    0.714340

      O #2    x   -0.022108    0.000000    0.000000
      O #2    y    0.000000   -0.022108    0.000000
      O #2    z    0.000000    0.000000   -0.714340

 @CHECKOUT-I, Total execution time (CPU/WALL):      715.40/     119.49 seconds.
--executable xvdint finished with status     0 in      119.51 seconds (walltime).
 --invoking executable--
/nfs/workspaces/public/cfour_mpi/bin/xjoda
  @GTFLGS-I, Hessian will be transformed to curvilinear coordinates.
  @GTFLGS-I, Hessian will be transformed to curvilinear coordinates.
  igrd and ihes are                      0                     1
  gradient from JOBARC 
   0.000000000000000   0.000000000000000   0.605522292586350
   0.000000000000000   0.000000000000000  -0.605522292586350
 
  @PROJFCM-I, Projecting force constant matrix onto totally symmetric subspace.
  Largest difference between matrix elements of symmetrized
  and unsymmetrized FCM :     0.3620248545E-10.
  read isotopes from ZMAT file 
 
  Summary of diagonal Born-Oppenheimer correction at the correlated level
  The total diagonal Born-Oppenheimer correction (DBOC) is:      0.0041399076 a.u.
  The total diagonal Born-Oppenheimer correction (DBOC) is:        908.604698 cm-1
  The total diagonal Born-Oppenheimer correction (DBOC) is:            10.869 kJ/mole
  hellooooooo 
  readis is  F
 
 @CHECKOUT-I, Total execution time (CPU/WALL):        0.01/       0.03 seconds.
--executable xjoda finished with status     0 in        0.05 seconds (walltime).
  The final electronic energy is      -113.266821498552773 a.u. 
  This computation required                         2593.13 seconds (walltime).
