 --invoking executable--
/nfs/workspaces/public/cfour_mpi/bin/xjoda


   *************************************************************************
         <<<     CCCCCC     CCCCCC   |||     CCCCCC     CCCCCC   >>>
       <<<      CCC        CCC       |||    CCC        CCC         >>>
      <<<      CCC        CCC        |||   CCC        CCC            >>>
    <<<        CCC        CCC        |||   CCC        CCC              >>>
      <<<      CCC        CCC        |||   CCC        CCC            >>>
       <<<      CCC        CCC       |||    CCC        CCC         >>>
         <<<     CCCCCC     CCCCCC   |||     CCCCCC     CCCCCC   >>>
   *************************************************************************

     ****************************************************************
     * CFOUR Coupled-Cluster techniques for Computational Chemistry *
     ****************************************************************
 

   Department of Chemistry                Institut fuer Physikalische Chemie
   University of Florida                  Universitaet Mainz
   Gainesville, FL 32611, USA             D-55099 Mainz, Germany

   Department of Chemistry                Fakultaet fuer Chemie und Biowiss.
   Johns Hopkins University               Karlsruher Institut fuer Technologie
   Baltimore, MD 21218, USA               D-76131 Karlsruhe, Germany

   Department of Chemistry                Department of Physical Chemistry
   Southern Methodist University          Eotvos Lorand University
   Dallas, TX 75275, USA                  H-1053 Budapest, Hungary

 
                       Version 2.1
 
                     vincent.theory.phys.ucl.ac.uk                     
                     Wed 26 Feb 21:07:35 GMT 2025                      
                     integer*8 version is running
 
********************************************************************************
*                          Input from ZMAT file                                *
********************************************************************************
Carbon Monoxide DBOC calculation                                                
C                                                                               
O 1 r                                                                           
                                                                                
r=1.0551724137931036                                                            
                                                                                
                                                                                
*CFOUR(CALC=CCSD,BASIS=AUG-PCVQZ,SCF_CONV=10                                    
CC_CONV=14,DBOC=ON,MEMORY=500000000                                             
ZFIELD=200)                                                                     
                                                                                
%isotopes                                                                       
13                                                                              
16                                                                              
********************************************************************************
  @GTFLGS-I, Hessian will be transformed to curvilinear coordinates.
    -------------------------------------------------------------------
                    CFOUR Control Parameters 
    -------------------------------------------------------------------
        External           Internal           Value            Units
          Name               Name
    -------------------------------------------------------------------
       ABCDTYPE             IABCDT         STANDARD    [  0]    ***   
       ANHARMONIC           IANHAR         OFF         [  0]    ***   
       ANH_ALGORIT          IANALG         STANDARD    [  0]    ***   
       ANH_DERIVAT          IANDER         SECOND      [  1]    ***   
       ANH_MODE             ANHMOD         VIBRATION   [  0]    ***   
       ANH_STEPSIZ          ICUBST             50000          x 10-6  
       ANH_SYMMETR          IANHSM         ABELIAN     [  0]    ***   
       AO_LADDERS           IAOLAD         SINGLEPASS  [  1]    ***   
       AV_SCF               IAVSCF         OFF         [  0]    ***   
       BASIS                IBASIS         AUG-PCVQZ   [ 52]    ***   
       BOTHVECTORS          BOTHVC         OFF         [  0]    ***   
       BOX_POTENT           IPIAB          OFF         [  0]    ***   
       BREIT                IBREIT         OFF         [  0]    ***   
       BRUCK_CONV           IBRTOL          10D-  4             ***   
       BRUECKNER            IBRKNR         OFF         [  0]    ***   
       BUFFERSIZE           IBUFFS              4096            ***   
       CACHE_RECS           ICHREC             10               ***   
       CALCLEVEL            ICLLVL         CCSD        [ 10]    ***   
       CCORBOPT             ICCORB         OFF         [  0]  x 0.01  
       CC_CONV              ICCCNV          10D- 14             ***   
       CC_EXPORDER          ICCEOR              5               ***   
       CC_EXTRAPOL          ICCEXT         DIIS        [  1]    ***   
       CC_GUESS             ICCGES         MP2         [  0]    ***   
       CC_MAXCYC            ICCCYC            100              cycles 
       CC_PROGRAM           ICCPRO         VCC         [  0]    ***   
       CHARGE               ICHRGE              0               ***   
       CHOLESKY             ICHOLE         OFF         [  0]    ***   
       CIS_CONV             ICISTL              5               ***   
       COMM_SIZE            IPSIZE            ***               ***   
       CONSTANT             ICONST         OLD         [  1]    ***   
       CONTINUUM            ICONTU         NONE        [  0]    ***   
       CONTRACTION          ICNTYP         GENERAL     [  1]    ***   
       COORDINATES          ICOORD         INTERNAL    [  0]    ***   
       CPHF_CONVER          ICPHFT          10D- 16             ***   
       CPHF_MAXCYC          ICPHFC             64              cycles 
       CUBIC                ICUBIC         OFF         [  0]    ***   
       CURVILINEAR          ICURVY         ON          [  1]    ***   
       DBOC                 IDBOC          ON          [  1]    ***   
       DCT                  IDCT           OFF         [  0]    ***   
       DERIV_LEV            IDRLVL         SECOND      [  2]    ***   
       DEVMEM_SIZE          IDVMEM          50000000           MByte  
       DIAG_MRCC            IEOMST          10D-  0             ***   
       DIFF_TYPE            IDIFTY         RELAXED     [  0]    ***   
       DIRECT               IDIRCT         OFF         [  0]    ***   
       DROPMO               IDRPMO      NONE         
       ECP                  IECP           OFF         [  0]    ***   
       EIGENVECTOR          IVEC                1               ***   
       EL_ANHARM            IELANH         OFF         [  0]    ***   
       EOMFOLLOW            IEOMSR         ENERGY      [  0]    ***   
       EOMIP                IEOMIP         OFF         [  0]    ***   
       EOMLEVEL             HBARFM         SAME        [  0]    ***   
       EOM_MRCC             IMRCCE         NEW         [  1]    ***   
       EOM_NONIT            EOMNON         OFF         [  0]    ***   
       EOM_NSING            IEOMSI          10D-  0             ***   
       EOM_NSTATES          IMRCCD         DAVIDSON    [  0]    ***   
       EOM_NTRIP            IEOMTR          10D-  0             ***   
       EOM_ORDER            IEXORD         ENERGY      [  0]    ***   
       EOM_PROPSTA          IEOMST              0               ***   
       ESTATE_CONV          IEXTOL          10D-  5             ***   
       ESTATE_DIAG          IEXDIG         ITERATIVE   [  0]    ***   
       ESTATE_LOCK          IESLOC         ON          [  1]    ***   
       ESTATE_MAXC          IEXMXC             40               ***   
       ESTATE_PROP          IEXPRP         OFF         [  0]    ***   
       EVAL_HESS            IRECAL              0            # of cyc.
       EXCITATION           IEXCIT              0               ***   
       EXCITE               IEXCIT         NONE        [  0]    ***   
       EXTERN_POT           IEXPOT         OFF         [  0]    ***   
       FCGRADNEW            IFCGNW         OFF         [  0]    ***   
       FC_FIELD             IFINFC              0             x 10-6  
       FD_CALTYPE           IFDCAL         GRADONLY    [  0]    ***   
       FD_PROJECT           IFDPRJ         OFF         [  1]    ***   
       FD_STEPSIZE          IDISFD              0            10-4 bohr
       FD_USEGROUP          IFDGRP         FULL        [  0]    ***   
       FILE_RECSIZ          IFLREC              4096           words  
       FINITE_PERT          IFIPER              0             x 10-6  
       FIXGEOM              IFIXGM         OFF         [  0]    ***   
       FOCK                 IFOCK          AO          [  1]    ***   
       FREQ_ALGORI          IVIALG         STANDARD    [  0]    ***   
       FROZEN_CORE          IFROCO         OFF         [  0]    ***   
       GAMMA_ABCD           IGABCD         STORE       [  0]    ***   
       GAMMA_ABCI           IGABCI         STORE       [  0]    ***   
       GENBAS_1             IGNBS1              0               ***   
       GENBAS_2             IGNBS2              0               ***   
       GENBAS_3             IGNBS3              0               ***   
       GENBAS_4             IGNBS4              0               ***   
       GEO_CONV             ICONTL              5              H/bohr 
       GEO_MAXCYC           IOPTCY             50               ***   
       GEO_MAXSTEP          IMXSTP            300            millibohr
       GEO_METHOD           INR            SINGLE_POINT[  5]    ***   
       GIAO                 IGIAO          OFF         [  1]    ***   
       GIMIC                IGIMIC         OFF         [  0]    ***   
       GRID                 IGRID          OFF         [  0]    ***   
       GRID_ALGO            IGALGO         SERIAL      [  0]    ***   
       GUESS                IGUESS         MOREAD      [  0]    ***   
       HBAR                 IHBAR          OFF         [  0]    ***   
       HESS_TYPE            IHESTP         SCF         [  0]    ***   
       HF2_FILE             IHF2Fl         USE         [  1]    ***   
       HFSTABILITY          ISTABL         OFF         [  0]    ***   
       INCORE               INCORE         OFF         [  0]    ***   
       INPUT_MRCC           IMRCC          ON          [  1]    ***   
       INTEGRALS            INTTYP         VMOL        [  1]    ***   
       JODA_PRINT           IJPRNT              0               ***   
       KEYWORD_OUT          IDMPKW         NO          [  0]    ***   
       LINDEP_TOL           ILINDP              8               ***   
       LINEQ_CONV           IZTACN          10D-  7           cycles  
       LINEQ_EXPOR          ILMAXD              5               ***   
       LINEQ_MAXCY          ILMAXC            100               ***   
       LINEQ_TYPE           ILTYPE         DIIS        [  1]    ***   
       LOCK_ORBOCC          ILOCOC         OFF         [  0]    ***   
       MEMORY_SIZE          IMEMSZ         500000000           words  
       MEM_UNIT             IMEMU          INTEGERWORDS[  0]    ***   
       MRCC                 IMRCCC         OFF         [  0]    ***   
       MULTIPLICTY          IMULTP              1               ***   
       NACOUPLING           IVCOUP         OFF         [  0]    ***   
       NEGEVAL              IDIE           ABORT       [  0]    ***   
       NEWNORM              INEWNO         OFF         [  0]    ***   
       NON-HF               INONHF         OFF         [  0]    ***   
       NTOP_TAMP            ITOPT2             15               ***   
       NUC_MODEL            INUCMO         POINT       [  0]    ***   
       OCCUPATION           IOCCU   ESTIMATED BY SCF 
       OPEN-SHELL           IOPEN          SPIN-ORBITAL[  0]    ***   
       OPTVIB               IOPTVB         OFF         [  0]    ***   
       ORBITALS             IORBTP         STANDARD    [  0]    ***   
       PARALLEL             IPARAL         ON          [  1]    ***   
       PARA_INT             IPINTS         ON          [  1]    ***   
       PARA_PRINT           IPPRIN              0               ***   
       PERT_ORB             IPTORB         STANDARD    [  0]    ***   
       POINTS               IGRDFD              0               ***   
       PRINT                IPRNT               0               ***   
       PROPS                IPROPS         OFF         [  0]    ***   
       PROP_INTEGR          IINTYP         INTERNAL    [  0]    ***   
       PSI                  IPSI           OFF         [  0]    ***   
       QC_ALG               IQCALG         FLM         [  0]    ***   
       QC_LINALG            IQCLIN         TRIDIAG     [  2]    ***   
       QC_MAXCYC            IQCMAX          10D-100           cycles  
       QC_MAXSCFCY          IQCMSC          10D- 15           cycles  
       QC_RTRUST            IQCRTR          10D-  0           x 10-3  
       QC_SKIPSCF           IQCSKI         OFF         [  0]    ***   
       QC_START             IQCSTA          10D-  1             ***   
       QRHFGUESS            IQGUES         OFF         [  0]    ***   
       QUARTIC              IQUART         OFF         [  0]    ***   
       RAMAN_INT            IRAMIN         OFF         [  0]    ***   
       RAMAN_ORB            IRAMRE         UNRELAXED   [  0]    ***   
       RDO                  IRDOFM         ON          [  1]    ***   
       REDUCE_REPR          REDREP         Ir          [  0]    ***   
       REFERENCE            IREFNC         RHF         [  0]    ***   
       RELATIVIST           IRELAT         OFF         [  0]    ***   
       RELAX_DENS           IRDENS         ON          [  1]    ***   
       RESET_FLAGS          IRESET         OFF         [  0]    ***   
       RESTART_CC           ICCRES         OFF         [  0]    ***   
       ROT_EVEC             ROTVEC              0               ***   
       SAVE_INTS            ISVINT         OFF         [  0]    ***   
       SCALE_ON             ISTCRT              0               ***   
       SCF_CONV             ISCFCV          10D- 10             ***   
       SCF_DAMPING          IDAMP               0             x 10-3  
       SCF_EXPORDE          IRPPOR              6               ***   
       SCF_EXPSTAR          IRPPLS              8               ***   
       SCF_EXTRAPO          IRPP           ON          [  1]    ***   
       SCF_MAXCYC           ISCFCY            150              cycles 
       SCF_NOSTOP           ISCFST         OFF         [  0]    ***   
       SCF_PRINT            ISCFPR              0               ***   
       SCF_PROG             ISCFPR         SCF         [  0]    ***   
       SD_FIELD             IFINSD              0             x 10-6  
       SOPERT               IPERSO         OFF         [  0]    ***   
       SPHERICAL            IDFGHI         ON          [  1]    ***   
       SPINORBIT            ISOCAL         OFF         [  0]    ***   
       SPINROTATIO          ISRCON         OFF         [  0]    ***   
       SPIN_FLIP            ISPFLP         OFF         [  0]    ***   
       SPIN_ORBIT           ISPORB         OFF         [  0]    ***   
       SPIN_SCAL            ISCSMP         OFF         [  0]    ***   
       STEEPSCALE           ISTPSC              1000          x 10-3  
       SUBGROUP             ISUBGP         DEFAULT     [  0]    ***   
       SUBGRPAXIS           ISBXYZ         X           [  0]    ***   
       SYMMETRY             ISYM           ON          [  0]    ***   
       SYM_CHECK            ISYMCK         OVERRIDE    [  1]    ***   
       T3_EXTRAPOL          IT3EXT         OFF         [  0]    ***   
       T4_EXTRAPOL          IT4EXP         OFF         [  0]    ***   
       TAMP_SUM             IEVERY              5               ***   
       TESTSUITE            ITESTS         OFF         [  0]    ***   
       THERMOCH             ITHERM         OFF         [  0]    ***   
       TOL_CHOLESK          ITOLCH          10D-  4             ***   
       TRANGRAD             IRESRM         OFF         [  0]    ***   
       TRANS_INV            ITRAIN         IGNORE      [  1]    ***   
       TREAT_PERT           ITREAT         SIMULTANEOUS[  0]    ***   
       TRIP_ALGORI          ITRALG         NORMAL      [  0]    ***   
       UIJ_THRESHO          IUIJTH              1               ***   
       UNITS                IUNITS         ANGSTROM    [  0]    ***   
       UNOS                 IUNOS          OFF         [  0]    ***   
       UPDATE_HESS          IHUPDT         ON          [  1]    ***   
       VIBPHASE             ISETPH         STANDARD    [  0]    ***   
       VIBRATION            IVIB           ANALYTIC    [  1]    ***   
       VIB_ALGORIT          IGEALG         STANDARD    [  0]    ***   
       VNATORB              IVNORB         OFF         [  0]    ***   
       VTRAN                IVTRAN         FULL/PARTIAL[  0]    ***   
       XFIELD               IXEFLD              0             x 10-6  
       XFORM_TOL            IXFTOL          10D- 11             ***   
       YFIELD               IYEFLD              0             x 10-6  
       ZFIELD               IZEFLD            200             x 10-6  
       ZSCALE_EXP           IZEXPS         OFF         [  0]    ***   
    -------------------------------------------------------------------
   2 entries found in Z-matrix 
   Job Title : Carbon Monoxide DBOC calculation                                                
   There are  1 unique internal coordinates.
   Of these,  0 will be optimized.
   User supplied Z-matrix: 
--------------------------------------------------------------------------------
       SYMBOL    BOND      LENGTH    ANGLE     ANGLE     DIHED     ANGLE
                  TO      (ANGST)    WRT      (DEG)      WRT      (DEG)
--------------------------------------------------------------------------------
        C    
        O          1         r    
                  *Initial values for internal coordinates* 
                      Name             Value
                        r               1.0551724138
--------------------------------------------------------------------------------
  read isotopes from ZMAT file 
   Rotational constants (in cm-1): 
          2.1109815578             2.1109815578
   Rotational constants (in MHz): 
      63285.6438664679         63285.6438664679
********************************************************************************
   The full molecular point group is CXv .
   The largest Abelian subgroup of the full molecular point group is C2v .
   The computational point group is C2v .
********************************************************************************
--------------------------------------------------------------------------------
   Analysis of internal coordinates specified by Z-matrix 
--------------------------------------------------------------------------------
   *The nuclear repulsion energy is   24.072370039215681 a.u.
   *There is   1 degree of freedom within the tot. symm. molecular subspace.
   *Z-matrix requests optimization of   0 coordinates.
   *The optimization is constrained.
   *The following   1 parameters can have non-zero 
    derivatives within the totally symmetric subspace:
             r    [ 1]
   *The following   0 parameters are to be optimized:

   *The following coordinates must be varied in an  unconstrained optimization.
             r    [ 1]
--------------------------------------------------------------------------------


 ----------------------------------------------------------------
         Coordinates used in calculation (QCOMP) 
 ----------------------------------------------------------------
 Z-matrix   Atomic            Coordinates (in bohr)
  Symbol    Number           X              Y              Z
 ----------------------------------------------------------------
     C         6        -0.00000000     0.00000000     1.09984689
     O         8         0.00000000     0.00000000    -0.89414040
 ----------------------------------------------------------------
 
   Interatomic distance matrix (Angstroms) 
 
                 C             O    
                [ 1]        [ 2]
  C    [ 1]     0.00000
  O    [ 2]     1.05517     0.00000
 rotcon2
   Rotational constants (in cm-1): 
          2.1109815578             0.0000000000
   Rotational constants (in MHz): 
      63285.6438664679             0.0000000000
  ECPDATA file not present.   Using default ECPDATA. 
  @GTFLGS-I, Hessian will be transformed to curvilinear coordinates.
  There are  218 basis functions.
 @CHECKOUT-I, Total execution time (CPU/WALL):        0.10/       0.14 seconds.
--executable xjoda finished with status     0 in        0.15 seconds (walltime).
 --invoking executable--
/nfs/workspaces/public/cfour_mpi/bin/xvmol
 SERIAL VERSION OF MOLECULE STARTED
********************************************************************************
                    INPUT FROM MOL FILE
********************************************************************************
INTGRL        1    0    1    0    0    0    0    0    0                         
         *** CFOUR Program System (Release V0.1) ***                            
Carbon Monoxide DBOC calculation                                                
    2    2 X  Y       0.10E-08              0    0                              
   9999.00      3.00                                                            
          6.00000000    1    5    1    1    1    1    1                         
C #1  -0.000000000000000   0.000000000000000   1.099846892338682                
   16    9                                                                      
   33980.0000000000       9.100000000000000E-005 -1.900000000000000E-005        
  0.000000000000000E+000  0.000000000000000E+000  0.000000000000000E+000        
  0.000000000000000E+000  0.000000000000000E+000  0.000000000000000E+000        
  0.000000000000000E+000                                                        
   5089.00000000000       7.040000000000000E-004 -1.510000000000000E-004        
  0.000000000000000E+000  0.000000000000000E+000  0.000000000000000E+000        
  0.000000000000000E+000  0.000000000000000E+000  0.000000000000000E+000        
  0.000000000000000E+000                                                        
   1157.00000000000       3.693000000000000E-003 -7.850000000000000E-004        
  0.000000000000000E+000  0.000000000000000E+000  0.000000000000000E+000        
  0.000000000000000E+000  0.000000000000000E+000  0.000000000000000E+000        
  0.000000000000000E+000                                                        
   326.600000000000       1.536000000000000E-002 -3.324000000000000E-003        
  0.000000000000000E+000  0.000000000000000E+000  0.000000000000000E+000        
  0.000000000000000E+000  0.000000000000000E+000  0.000000000000000E+000        
  0.000000000000000E+000                                                        
   106.100000000000       5.292900000000000E-002 -1.151200000000000E-002        
  0.000000000000000E+000  0.000000000000000E+000  0.000000000000000E+000        
  0.000000000000000E+000  0.000000000000000E+000  0.000000000000000E+000        
  0.000000000000000E+000                                                        
   38.1100000000000       0.147043000000000      -3.416000000000000E-002        
  0.000000000000000E+000  0.000000000000000E+000  0.000000000000000E+000        
  0.000000000000000E+000  0.000000000000000E+000  0.000000000000000E+000        
  0.000000000000000E+000                                                        
   14.7500000000000       0.305631000000000      -7.717300000000001E-002        
  0.000000000000000E+000  0.000000000000000E+000  0.000000000000000E+000        
  0.000000000000000E+000  0.000000000000000E+000  0.000000000000000E+000        
  0.000000000000000E+000                                                        
   6.03500000000000       0.399345000000000      -0.141493000000000             
  0.000000000000000E+000  0.000000000000000E+000  0.000000000000000E+000        
  0.000000000000000E+000  0.000000000000000E+000  0.000000000000000E+000        
  0.000000000000000E+000                                                        
   2.53000000000000       0.217051000000000      -0.118019000000000             
  0.000000000000000E+000  0.000000000000000E+000  0.000000000000000E+000        
  0.000000000000000E+000  0.000000000000000E+000  0.000000000000000E+000        
  0.000000000000000E+000                                                        
  0.735500000000000       1.589400000000000E-002  0.273806000000000             
   1.00000000000000       0.000000000000000E+000  0.000000000000000E+000        
  0.000000000000000E+000  0.000000000000000E+000  0.000000000000000E+000        
  0.000000000000000E+000                                                        
  0.290500000000000      -3.084000000000000E-003  0.586510000000000             
  0.000000000000000E+000   1.00000000000000       0.000000000000000E+000        
  0.000000000000000E+000  0.000000000000000E+000  0.000000000000000E+000        
  0.000000000000000E+000                                                        
  0.111100000000000       9.779999999999999E-004  0.285430000000000             
  0.000000000000000E+000  0.000000000000000E+000   1.00000000000000             
  0.000000000000000E+000  0.000000000000000E+000  0.000000000000000E+000        
  0.000000000000000E+000                                                        
   7.21600000000000       0.000000000000000E+000  0.000000000000000E+000        
  0.000000000000000E+000  0.000000000000000E+000  0.000000000000000E+000        
   1.00000000000000       0.000000000000000E+000  0.000000000000000E+000        
  0.000000000000000E+000                                                        
   19.5700000000000       0.000000000000000E+000  0.000000000000000E+000        
  0.000000000000000E+000  0.000000000000000E+000  0.000000000000000E+000        
  0.000000000000000E+000   1.00000000000000       0.000000000000000E+000        
  0.000000000000000E+000                                                        
   53.0730000000000       0.000000000000000E+000  0.000000000000000E+000        
  0.000000000000000E+000  0.000000000000000E+000  0.000000000000000E+000        
  0.000000000000000E+000  0.000000000000000E+000   1.00000000000000             
  0.000000000000000E+000                                                        
  4.145000000000000E-002  0.000000000000000E+000  0.000000000000000E+000        
  0.000000000000000E+000  0.000000000000000E+000  0.000000000000000E+000        
  0.000000000000000E+000  0.000000000000000E+000  0.000000000000000E+000        
   1.00000000000000                                                             
   10    8                                                                      
   34.5100000000000       5.378000000000000E-003  0.000000000000000E+000        
  0.000000000000000E+000  0.000000000000000E+000  0.000000000000000E+000        
  0.000000000000000E+000  0.000000000000000E+000  0.000000000000000E+000        
   7.91500000000000       3.613200000000000E-002  0.000000000000000E+000        
  0.000000000000000E+000  0.000000000000000E+000  0.000000000000000E+000        
  0.000000000000000E+000  0.000000000000000E+000  0.000000000000000E+000        
   2.36800000000000       0.142493000000000       0.000000000000000E+000        
  0.000000000000000E+000  0.000000000000000E+000  0.000000000000000E+000        
  0.000000000000000E+000  0.000000000000000E+000  0.000000000000000E+000        
  0.813200000000000       0.342150000000000        1.00000000000000             
  0.000000000000000E+000  0.000000000000000E+000  0.000000000000000E+000        
  0.000000000000000E+000  0.000000000000000E+000  0.000000000000000E+000        
  0.289000000000000       0.463864000000000       0.000000000000000E+000        
   1.00000000000000       0.000000000000000E+000  0.000000000000000E+000        
  0.000000000000000E+000  0.000000000000000E+000  0.000000000000000E+000        
  0.100700000000000       0.250028000000000       0.000000000000000E+000        
  0.000000000000000E+000   1.00000000000000       0.000000000000000E+000        
  0.000000000000000E+000  0.000000000000000E+000  0.000000000000000E+000        
   8.18200000000000       0.000000000000000E+000  0.000000000000000E+000        
  0.000000000000000E+000  0.000000000000000E+000   1.00000000000000             
  0.000000000000000E+000  0.000000000000000E+000  0.000000000000000E+000        
   24.1860000000000       0.000000000000000E+000  0.000000000000000E+000        
  0.000000000000000E+000  0.000000000000000E+000  0.000000000000000E+000        
   1.00000000000000       0.000000000000000E+000  0.000000000000000E+000        
   71.4940000000000       0.000000000000000E+000  0.000000000000000E+000        
  0.000000000000000E+000  0.000000000000000E+000  0.000000000000000E+000        
  0.000000000000000E+000   1.00000000000000       0.000000000000000E+000        
  3.218000000000000E-002  0.000000000000000E+000  0.000000000000000E+000        
  0.000000000000000E+000  0.000000000000000E+000  0.000000000000000E+000        
  0.000000000000000E+000  0.000000000000000E+000   1.00000000000000             
    6    6                                                                      
   1.84800000000000        1.00000000000000       0.000000000000000E+000        
  0.000000000000000E+000  0.000000000000000E+000  0.000000000000000E+000        
  0.000000000000000E+000                                                        
  0.649000000000000       0.000000000000000E+000   1.00000000000000             
  0.000000000000000E+000  0.000000000000000E+000  0.000000000000000E+000        
  0.000000000000000E+000                                                        
  0.228000000000000       0.000000000000000E+000  0.000000000000000E+000        
   1.00000000000000       0.000000000000000E+000  0.000000000000000E+000        
  0.000000000000000E+000                                                        
   8.65600000000000       0.000000000000000E+000  0.000000000000000E+000        
  0.000000000000000E+000   1.00000000000000       0.000000000000000E+000        
  0.000000000000000E+000                                                        
   33.2130000000000       0.000000000000000E+000  0.000000000000000E+000        
  0.000000000000000E+000  0.000000000000000E+000   1.00000000000000             
  0.000000000000000E+000                                                        
  7.660000000000000E-002  0.000000000000000E+000  0.000000000000000E+000        
  0.000000000000000E+000  0.000000000000000E+000  0.000000000000000E+000        
   1.00000000000000                                                             
    4    4                                                                      
   1.41900000000000        1.00000000000000       0.000000000000000E+000        
  0.000000000000000E+000  0.000000000000000E+000                                
  0.485000000000000       0.000000000000000E+000   1.00000000000000             
  0.000000000000000E+000  0.000000000000000E+000                                
   24.6940000000000       0.000000000000000E+000  0.000000000000000E+000        
   1.00000000000000       0.000000000000000E+000                                
  0.187000000000000       0.000000000000000E+000  0.000000000000000E+000        
  0.000000000000000E+000   1.00000000000000                                     
    2    2                                                                      
   1.01100000000000        1.00000000000000       0.000000000000000E+000        
  0.424000000000000       0.000000000000000E+000   1.00000000000000             
          8.00000000    1    5    1    1    1    1    1                         
O #2   0.000000000000000   0.000000000000000  -0.894140401883052                
   16    9                                                                      
   61420.0000000000       9.000000000000001E-005 -2.000000000000000E-005        
  0.000000000000000E+000  0.000000000000000E+000  0.000000000000000E+000        
  0.000000000000000E+000  0.000000000000000E+000  0.000000000000000E+000        
  0.000000000000000E+000                                                        
   9199.00000000000       6.980000000000001E-004 -1.590000000000000E-004        
  0.000000000000000E+000  0.000000000000000E+000  0.000000000000000E+000        
  0.000000000000000E+000  0.000000000000000E+000  0.000000000000000E+000        
  0.000000000000000E+000                                                        
   2091.00000000000       3.664000000000000E-003 -8.290000000000000E-004        
  0.000000000000000E+000  0.000000000000000E+000  0.000000000000000E+000        
  0.000000000000000E+000  0.000000000000000E+000  0.000000000000000E+000        
  0.000000000000000E+000                                                        
   590.900000000000       1.521800000000000E-002 -3.508000000000000E-003        
  0.000000000000000E+000  0.000000000000000E+000  0.000000000000000E+000        
  0.000000000000000E+000  0.000000000000000E+000  0.000000000000000E+000        
  0.000000000000000E+000                                                        
   192.300000000000       5.242300000000000E-002 -1.215600000000000E-002        
  0.000000000000000E+000  0.000000000000000E+000  0.000000000000000E+000        
  0.000000000000000E+000  0.000000000000000E+000  0.000000000000000E+000        
  0.000000000000000E+000                                                        
   69.3200000000000       0.145921000000000      -3.626100000000000E-002        
  0.000000000000000E+000  0.000000000000000E+000  0.000000000000000E+000        
  0.000000000000000E+000  0.000000000000000E+000  0.000000000000000E+000        
  0.000000000000000E+000                                                        
   26.9700000000000       0.305258000000000      -8.299200000000000E-002        
  0.000000000000000E+000  0.000000000000000E+000  0.000000000000000E+000        
  0.000000000000000E+000  0.000000000000000E+000  0.000000000000000E+000        
  0.000000000000000E+000                                                        
   11.1000000000000       0.398508000000000      -0.152090000000000             
  0.000000000000000E+000  0.000000000000000E+000  0.000000000000000E+000        
  0.000000000000000E+000  0.000000000000000E+000  0.000000000000000E+000        
  0.000000000000000E+000                                                        
   4.68200000000000       0.216980000000000      -0.115331000000000             
  0.000000000000000E+000  0.000000000000000E+000  0.000000000000000E+000        
  0.000000000000000E+000  0.000000000000000E+000  0.000000000000000E+000        
  0.000000000000000E+000                                                        
   1.42800000000000       1.759400000000000E-002  0.288979000000000             
   1.00000000000000       0.000000000000000E+000  0.000000000000000E+000        
  0.000000000000000E+000  0.000000000000000E+000  0.000000000000000E+000        
  0.000000000000000E+000                                                        
  0.554700000000000      -2.502000000000000E-003  0.586128000000000             
  0.000000000000000E+000   1.00000000000000       0.000000000000000E+000        
  0.000000000000000E+000  0.000000000000000E+000  0.000000000000000E+000        
  0.000000000000000E+000                                                        
  0.206700000000000       9.540000000000000E-004  0.277624000000000             
  0.000000000000000E+000  0.000000000000000E+000   1.00000000000000             
  0.000000000000000E+000  0.000000000000000E+000  0.000000000000000E+000        
  0.000000000000000E+000                                                        
   12.9740000000000       0.000000000000000E+000  0.000000000000000E+000        
  0.000000000000000E+000  0.000000000000000E+000  0.000000000000000E+000        
   1.00000000000000       0.000000000000000E+000  0.000000000000000E+000        
  0.000000000000000E+000                                                        
   34.9000000000000       0.000000000000000E+000  0.000000000000000E+000        
  0.000000000000000E+000  0.000000000000000E+000  0.000000000000000E+000        
  0.000000000000000E+000   1.00000000000000       0.000000000000000E+000        
  0.000000000000000E+000                                                        
   93.8810000000000       0.000000000000000E+000  0.000000000000000E+000        
  0.000000000000000E+000  0.000000000000000E+000  0.000000000000000E+000        
  0.000000000000000E+000  0.000000000000000E+000   1.00000000000000             
  0.000000000000000E+000                                                        
  6.959000000000000E-002  0.000000000000000E+000  0.000000000000000E+000        
  0.000000000000000E+000  0.000000000000000E+000  0.000000000000000E+000        
  0.000000000000000E+000  0.000000000000000E+000  0.000000000000000E+000        
   1.00000000000000                                                             
   10    8                                                                      
   63.4200000000000       6.044000000000000E-003  0.000000000000000E+000        
  0.000000000000000E+000  0.000000000000000E+000  0.000000000000000E+000        
  0.000000000000000E+000  0.000000000000000E+000  0.000000000000000E+000        
   14.6600000000000       4.179900000000000E-002  0.000000000000000E+000        
  0.000000000000000E+000  0.000000000000000E+000  0.000000000000000E+000        
  0.000000000000000E+000  0.000000000000000E+000  0.000000000000000E+000        
   4.45900000000000       0.161143000000000       0.000000000000000E+000        
  0.000000000000000E+000  0.000000000000000E+000  0.000000000000000E+000        
  0.000000000000000E+000  0.000000000000000E+000  0.000000000000000E+000        
   1.53100000000000       0.356731000000000        1.00000000000000             
  0.000000000000000E+000  0.000000000000000E+000  0.000000000000000E+000        
  0.000000000000000E+000  0.000000000000000E+000  0.000000000000000E+000        
  0.530200000000000       0.448309000000000       0.000000000000000E+000        
   1.00000000000000       0.000000000000000E+000  0.000000000000000E+000        
  0.000000000000000E+000  0.000000000000000E+000  0.000000000000000E+000        
  0.175000000000000       0.244940000000000       0.000000000000000E+000        
  0.000000000000000E+000   1.00000000000000       0.000000000000000E+000        
  0.000000000000000E+000  0.000000000000000E+000  0.000000000000000E+000        
   14.4750000000000       0.000000000000000E+000  0.000000000000000E+000        
  0.000000000000000E+000  0.000000000000000E+000   1.00000000000000             
  0.000000000000000E+000  0.000000000000000E+000  0.000000000000000E+000        
   42.7300000000000       0.000000000000000E+000  0.000000000000000E+000        
  0.000000000000000E+000  0.000000000000000E+000  0.000000000000000E+000        
   1.00000000000000       0.000000000000000E+000  0.000000000000000E+000        
   126.140000000000       0.000000000000000E+000  0.000000000000000E+000        
  0.000000000000000E+000  0.000000000000000E+000  0.000000000000000E+000        
  0.000000000000000E+000   1.00000000000000       0.000000000000000E+000        
  5.348000000000000E-002  0.000000000000000E+000  0.000000000000000E+000        
  0.000000000000000E+000  0.000000000000000E+000  0.000000000000000E+000        
  0.000000000000000E+000  0.000000000000000E+000   1.00000000000000             
    6    6                                                                      
   3.77500000000000        1.00000000000000       0.000000000000000E+000        
  0.000000000000000E+000  0.000000000000000E+000  0.000000000000000E+000        
  0.000000000000000E+000                                                        
   1.30000000000000       0.000000000000000E+000   1.00000000000000             
  0.000000000000000E+000  0.000000000000000E+000  0.000000000000000E+000        
  0.000000000000000E+000                                                        
  0.444000000000000       0.000000000000000E+000  0.000000000000000E+000        
   1.00000000000000       0.000000000000000E+000  0.000000000000000E+000        
  0.000000000000000E+000                                                        
   14.9270000000000       0.000000000000000E+000  0.000000000000000E+000        
  0.000000000000000E+000   1.00000000000000       0.000000000000000E+000        
  0.000000000000000E+000                                                        
   57.5440000000000       0.000000000000000E+000  0.000000000000000E+000        
  0.000000000000000E+000  0.000000000000000E+000   1.00000000000000             
  0.000000000000000E+000                                                        
  0.154000000000000       0.000000000000000E+000  0.000000000000000E+000        
  0.000000000000000E+000  0.000000000000000E+000  0.000000000000000E+000        
   1.00000000000000                                                             
    4    4                                                                      
   2.66600000000000        1.00000000000000       0.000000000000000E+000        
  0.000000000000000E+000  0.000000000000000E+000                                
  0.859000000000000       0.000000000000000E+000   1.00000000000000             
  0.000000000000000E+000  0.000000000000000E+000                                
   26.4830000000000       0.000000000000000E+000  0.000000000000000E+000        
   1.00000000000000       0.000000000000000E+000                                
  0.324000000000000       0.000000000000000E+000  0.000000000000000E+000        
  0.000000000000000E+000   1.00000000000000                                     
    2    2                                                                      
   1.84600000000000        1.00000000000000       0.000000000000000E+000        
  0.714000000000000       0.000000000000000E+000   1.00000000000000             
FINISH                                                                          
 
********************************************************************************
 ONE- AND TWO-ELECTRON INTEGRALS OVER SYMMETRY-ADAPTED AOS ARE CALCULATED.

  SPHERICAL HARMONICS ARE USED.
  
  INTEGRALS LESS THAN  0.10E-13 ARE NEGLECTED.

  NUCLEAR REPULSION ENERGY :   24.0723700392 A.U.
  @MOLECU-I, ONE ELECTRON INTEGRALS (CPU/WALL):        0.06/       0.07 SECONDS.
  @TWOEL-I,    4632597 INTEGRALS OF SYMMETRY TYPE  I I I I
  @TWOEL-I,   19851582 INTEGRALS OF SYMMETRY TYPE  I J I J
  @TWOEL-I,   10465252 INTEGRALS OF SYMMETRY TYPE  I I J J
  @TWOEL-I,   14678437 INTEGRALS OF SYMMETRY TYPE  I J K L
  @TWOEL-I, TOTAL NUMBER OF 2-E INTEGRALS   49627868.
  @MOLECU-I, TWO ELECTRON INTEGRALS (CPU/WALL):      187.61/      26.89 SECONDS.
 @CHECKOUT-I, Total execution time (CPU/WALL):      187.68/      26.98 seconds.

Running with 14 threads/proc

--executable xvmol finished with status     0 in       27.00 seconds (walltime).
 --invoking executable--
/nfs/workspaces/public/cfour_mpi/bin/xvmol2ja
 @GETMEM-I,  Allocated    3814 MB of main memory.
 @CHECKOUT-I, Total execution time (CPU/WALL):        0.27/       0.08 seconds.
--executable xvmol2ja finished with status     0 in        0.09 seconds (walltime).
 --invoking executable--
/nfs/workspaces/public/cfour_mpi/bin/xvprop
 @GETMEM-I,  Allocated    3814 MB of main memory.
   Property integrals will be calculated.
    --------------------------------------------------------------
                                   Property evaluated at 
    Property type                X             Y             Z
    --------------------------------------------------------------
    Dipole moment               ----          ----          ----  
    Quadrupole moment           ----          ----          ----  
    Octopole moment             ----          ----          ----  
    Relativisitic corr.         ----          ----          ----  
    Second moment            0.0000000     0.0000000     0.0000000
    Electron density         0.0000000     0.0000000     1.0998469
    Electron density         0.0000000     0.0000000    -0.8941404
    Field gradient           0.0000000     0.0000000     1.0998469
    Field gradient           0.0000000     0.0000000    -0.8941404
    Potential                0.0000000     0.0000000     1.0998469
    Potential                0.0000000     0.0000000    -0.8941404
    --------------------------------------------------------------
 @CHECKOUT-I, Total execution time (CPU/WALL):        1.37/       1.40 seconds.
--executable xvprop finished with status     0 in        1.42 seconds (walltime).
 --invoking executable--
/nfs/workspaces/public/cfour_mpi/bin/xvscf
  There are  218 functions in the AO basis.

  There are 4 irreducible representations.

       Irrep        # of functions
         1                 86
         2                 52
         3                 52
         4                 28


  Parameters for SCF calculation: 
        SCF reference function:  RHF  
  Maximum number of iterations:  150
     Full symmetry point group: CXv 
     Computational point group: C2v 
        Initial density matrix: MOREAD                 
     SCF convergence tolerance: 10**(-10)
  DIIS convergence acceleration:  ON
          Latest start for DIIS:   8
                     DIIS order:   6

  Memory information:    2523578 words required.
  Fock matrices are constructed from AO integral file.
 @GETMEM-I,  Allocated      19 MB of main memory.
  Initialization and symmetry analysis required      0.001 seconds.

  Adding electric field perturbation to one-electron Hamiltonian.
  Field direction     : Z
  Field strength      :  0.0002000 a.u.

  @INITGES-I, Occupancies from core Hamiltonian:

          Alpha population by irrep:   5    1    1    0
           Beta population by irrep:   5    1    1    0


 total no. of electrons in initial guess :  0.000000000000000E+000
  --------------------------------------------------------------------
  Iteration         Total Energy            Largest Density Difference
  --------------------------------------------------------------------
       0            24.072480847587602              0.0000000000D+00
   current occupation vector 
     5  1  1  0
     5  1  1  0
       1           -91.158028257728645              0.1925379046D+02
   current occupation vector 
     5  1  1  0
     5  1  1  0
       2           -94.506128006710426              0.6599778581D+02
   current occupation vector 
     5  1  1  0
     5  1  1  0
       3          -103.190093852110849              0.6597727643D+02
   current occupation vector 
     5  1  1  0
     5  1  1  0
       4          -100.612097844877454              0.1012816528D+02
   current occupation vector 
     5  1  1  0
     5  1  1  0
       5          -104.578268053125583              0.1013986550D+02
   current occupation vector 
     5  1  1  0
     5  1  1  0
       6          -101.823157776424665              0.5724872569D+01
   current occupation vector 
     5  1  1  0
     5  1  1  0
       7          -103.888158950482833              0.5383526142D+01
   current occupation vector 
     5  1  1  0
     5  1  1  0
       8          -101.181098342136622              0.5384683457D+01
   current occupation vector 
     5  1  1  0
     5  1  1  0
       9          -111.286551487079208              0.3801349711D+01
   current occupation vector 
     5  1  1  0
     5  1  1  0
      10          -112.496742608321085              0.9022369465D+00
   current occupation vector 
     5  1  1  0
     5  1  1  0
      11          -112.779533388641994              0.4334481804D+00
   current occupation vector 
     5  1  1  0
     5  1  1  0
      12          -112.784224554413754              0.6574039349D-01
   current occupation vector 
     5  1  1  0
     5  1  1  0
      13          -112.784402721267412              0.1761224392D-01
   current occupation vector 
     5  1  1  0
     5  1  1  0
      14          -112.784426189602527              0.8001894584D-02
   current occupation vector 
     5  1  1  0
     5  1  1  0
      15          -112.784426470347626              0.8743758572D-03
   current occupation vector 
     5  1  1  0
     5  1  1  0
      16          -112.784426474526128              0.6657046260D-04
   current occupation vector 
     5  1  1  0
     5  1  1  0
      17          -112.784426474640242              0.1958896701D-04
   current occupation vector 
     5  1  1  0
     5  1  1  0
      18          -112.784426474644505              0.1625811000D-05
   current occupation vector 
     5  1  1  0
     5  1  1  0
      19          -112.784426474645386              0.7222547846D-06
   current occupation vector 
     5  1  1  0
     5  1  1  0
      20          -112.784426474643027              0.9122999023D-07
   current occupation vector 
     5  1  1  0
     5  1  1  0
      21          -112.784426474644988              0.3029155105D-07
   current occupation vector 
     5  1  1  0
     5  1  1  0
      22          -112.784426474645073              0.1031043273D-07
   current occupation vector 
     5  1  1  0
     5  1  1  0
      23          -112.784426474644391              0.6745066727D-09
   current occupation vector 
     5  1  1  0
     5  1  1  0
      24          -112.784426474644533              0.2037972013D-09
   current occupation vector 
     5  1  1  0
     5  1  1  0
      25          -112.784426474643055              0.1194129795D-09
   current occupation vector 
     5  1  1  0
     5  1  1  0

  SCF has converged.

 Density matrix saved to file den.dat
 total electron number:   14.0000000000002     
     E(SCF)=      -112.784426474644221              0.7077527453D-10

  Eigenvector printing suppressed.

 @PUTMOS-I, Writing converged MOs to NEWMOS. 
 @PUTMOS-I, Symmetry   1 Full Blocks 21 Partial Blocksize   2
 @PUTMOS-I, Symmetry   2 Full Blocks 13 Partial Blocksize   0
 @PUTMOS-I, Symmetry   3 Full Blocks 13 Partial Blocksize   0
 @PUTMOS-I, Symmetry   4 Full Blocks  7 Partial Blocksize   0
 @PUTFOCK-I, Writing converged Fock matrix to NEWFOCK. 
 @PUTFOCK-I, Symmetry   1 Full Blocks 21 Partial Blocksize   2
 @PUTFOCK-I, Symmetry   2 Full Blocks 13 Partial Blocksize   0
 @PUTFOCK-I, Symmetry   3 Full Blocks 13 Partial Blocksize   0
 @PUTFOCK-I, Symmetry   4 Full Blocks  7 Partial Blocksize   0


 
  ORBITAL EIGENVALUES (ALPHA)  (1H = 27.2113834 eV)

       MO #        E(hartree)               E(eV)           FULLSYM    COMPSYM
       ----   --------------------   --------------------   -------   ---------
    1     1         -20.6611476762        -562.2184109005     SG+        A1 (1)
    2     2         -11.3266450714        -308.2136816726     SG+        A1 (1)
    3     3          -1.5734290049         -42.8151799054     SG+        A1 (1)
    4     4          -0.8112398720         -22.0749591876     SG+        A1 (1)
    5    87          -0.6742523589         -18.3473394466      PI        B1 (2)
    6   139          -0.6742523589         -18.3473394466      PI        B2 (3)
    7     5          -0.5450891870         -14.8326308544     SG+        A1 (1)
  +++++++++++++++++++++++++++++++++++++++++++++++++++++++++++++++++++++++++++++
    8     6           0.0582832574           1.5859680636     SG+        A1 (1)
    9    88           0.0647720884           1.7625381308      PI        B1 (2)
   10   140           0.0647720884           1.7625381308      PI        B2 (3)
   11     7           0.0768925894           2.0923537304     SG+        A1 (1)
   12    89           0.1524627896           4.1487234214      PI        B1 (2)
   13   141           0.1524627896           4.1487234214      PI        B2 (3)
   14     8           0.1558258165           4.2402360354     SG+        A1 (1)
   15    90           0.1757925356           4.7835580850      PI        B1 (2)
   16   142           0.1757925356           4.7835580850      PI        B2 (3)
   17     9           0.2273110080           6.1854469901     SG+        A1 (1)
   18    10           0.2281335363           6.2078291227      DE        A1 (1)
   19   191           0.2281335363           6.2078291227      DE        A2 (4)
   20    11           0.3022878826           8.2256714715     SG+        A1 (1)
   21    91           0.3297095107           8.9718519072      PI        B1 (2)
   22   143           0.3297095107           8.9718519072      PI        B2 (3)
   23    12           0.3948530418          10.7444975079     SG+        A1 (1)
   24    92           0.3981191525          10.8333728985      PI        B1 (2)
   25   144           0.3981191525          10.8333728986      PI        B2 (3)
   26    13           0.5077762274          13.8172936047     SG+        A1 (1)
   27   192           0.5292041546          14.4003771475      DE        A2 (4)
   28    14           0.5292041546          14.4003771475      DE        A1 (1)
   29    93           0.6203595723          16.8808421664      PI        B1 (2)
   30   145           0.6203595723          16.8808421664      PI        B2 (3)
   31    15           0.6586252847          17.9221051390     SG+        A1 (1)
   32    94           0.7500942671          20.4111026883      PH        B1 (2)
   33   146           0.7500942671          20.4111026883      PH        B2 (3)
   34    16           0.7706907624          20.9715618190      DE        A1 (1)
   35   193           0.7706907624          20.9715618190      DE        A2 (4)
   36    17           0.7833788827          21.3168231241     SG+        A1 (1)
   37    95           0.8331974699          22.6724558025      PI        B1 (2)
   38   147           0.8331974699          22.6724558025      PI        B2 (3)
   39    18           0.8754602526          23.8224845845     SG+        A1 (1)
   40    96           0.8759534859          23.8359061467      PI        B1 (2)
   41   148           0.8759534860          23.8359061468      PI        B2 (3)
   42   194           0.8967119053          24.4007714557      DE        A2 (4)
   43    19           0.8967119053          24.4007714557      DE        A1 (1)
   44    20           0.9406995865          25.5977371119     SG+        A1 (1)
   45    97           1.0954164095          29.8077959023      PI        B1 (2)
   46   149           1.0954164095          29.8077959023      PI        B2 (3)
   47    21           1.2613800557          34.3238963085     SG+        A1 (1)
   48   150           1.4526384681          39.5283022958      PH        B2 (3)
   49    98           1.4526384681          39.5283022958      PH        B1 (2)
   50    22           1.5070269941          41.0082893304      DE        A1 (1)
   51   195           1.5070269941          41.0082893304      DE        A2 (4)
   52    23           1.5109433764          41.1148595117     SG+        A1 (1)
   53   151           1.5415348589          41.9472960703      PI        B2 (3)
   54    99           1.5415348589          41.9472960703      PI        B1 (2)
   55    24           1.6605973882          45.1871522046     SG+        A1 (1)
   56    25           1.7543606646          47.7385806671     SG+        A1 (1)
   57   196           1.7753191385          48.3088897346      DE        A2 (4)
   58    26           1.7753191385          48.3088897346      DE        A1 (1)
   59   100           1.8575422216          50.5462935730      PI        B1 (2)
   60   152           1.8575422216          50.5462935730      PI        B2 (3)
   61   101           1.9474531810          52.9928951608      PI        B1 (2)
   62   153           1.9474531810          52.9928951610      PI        B2 (3)
   63   197           2.1104495485          57.4282518117      PI        A2 (4)
   64    27           2.1104495485          57.4282518117      PI        A1 (1)
   65    28           2.1805953815          59.3370169652     SG+        A1 (1)
   66    29           2.2124590301          60.2040709248      DE        A1 (1)
   67   198           2.2124590301          60.2040709248      DE        A2 (4)
   68   102           2.2578794087          61.4400222616      PH        B1 (2)
   69   154           2.2578794087          61.4400222616      PH        B2 (3)
   70    30           2.3250681636          63.2683212314     SG+        A1 (1)
   71   103           2.3395643795          63.6627833196      PI        B1 (2)
   72   155           2.3395643795          63.6627833196      PI        B2 (3)
   73   199           2.3756609595          64.6450211961      DE        A2 (4)
   74    31           2.3756609595          64.6450211961      DE        A1 (1)
   75   156           2.3910418803          65.0635573314      PH        B2 (3)
   76   104           2.3910418803          65.0635573314      PH        B1 (2)
   77    32           2.5149884668          68.4363154170     SG+        A1 (1)
   78   157           2.6082790993          70.9748825851      PI        B2 (3)
   79   105           2.6082790993          70.9748825852      PI        B1 (2)
   80   106           2.9088402498          79.1535672873      PI        B1 (2)
   81   158           2.9088402498          79.1535672873      PI        B2 (3)
   82    33           3.0420256870          82.7777272807     SG+        A1 (1)
   83   200           3.0695455872          83.5265818367      DE        A2 (4)
   84    34           3.0695455872          83.5265818368      DE        A1 (1)
   85    35           3.4409198348          93.6321888729     SG+        A1 (1)
   86    36           3.7396574624         101.7612529935      PI        A1 (1)
   87   201           3.7396574624         101.7612529935      PI        A2 (4)
   88   107           3.7625832368         102.3850950303      PI        B1 (2)
   89   159           3.7625832368         102.3850950304      PI        B2 (3)
   90    37           3.9717668105         108.0772694553     SG+        A1 (1)
   91   160           4.0750803526         110.8885738601      PH        B2 (3)
   92   108           4.0750803526         110.8885738601      PH        B1 (2)
   93    38           4.1759497510         113.6333697324      DE        A1 (1)
   94   202           4.1759497510         113.6333697324      DE        A2 (4)
   95   109           4.2103398899         114.5691729877      PI        B1 (2)
   96   161           4.2103398899         114.5691729877      PI        B2 (3)
   97    39           4.2964497689         116.9123419205     SG+        A1 (1)
   98   162           4.3681958107         118.8646509706      PH        B2 (3)
   99   110           4.3681958107         118.8646509706      PH        B1 (2)
  100   203           4.4140948998         120.1136286817      DE        A2 (4)
  101    40           4.4140948998         120.1136286817      DE        A1 (1)
  102    41           4.6460796041         126.4262534152     SG+        A1 (1)
  103   111           4.7858080407         130.2284574730      PI        B1 (2)
  104   163           4.7858080407         130.2284574730      PI        B2 (3)
  105    42           4.9657977112         135.1262254071     SG+        A1 (1)
  106   204           5.1858541369         141.1142651756      DE        A2 (4)
  107    43           5.1858541369         141.1142651758      DE        A1 (1)
  108   164           5.2334750988         142.4100974267      PI        B2 (3)
  109   112           5.2334750988         142.4100974267      PI        B1 (2)
  110   113           5.8987588175         160.5133877681      PI        B1 (2)
  111   165           5.8987588175         160.5133877683      PI        B2 (3)
  112    44           5.9123630756         160.8835784497      PI        A1 (1)
  113   205           5.9123630756         160.8835784497      PI        A2 (4)
  114    45           6.1021233438         166.0472178633     SG+        A1 (1)
  115   166           6.2136419002         169.0817920572      PH        B2 (3)
  116   114           6.2136419002         169.0817920572      PH        B1 (2)
  117    46           6.2165607594         169.1612182524     SG+        A1 (1)
  118   206           6.3237201894         172.0771745888      DE        A2 (4)
  119    47           6.3237201894         172.0771745888      DE        A1 (1)
  120   115           6.3518959274         172.8438753972      PI        B1 (2)
  121   167           6.3518959274         172.8438753972      PI        B2 (3)
  122   116           6.4617055240         175.8319464305      PH        B1 (2)
  123   168           6.4617055240         175.8319464305      PH        B2 (3)
  124   207           6.6431965134         180.7705673265      DE        A2 (4)
  125    48           6.6431965134         180.7705673266      DE        A1 (1)
  126    49           7.1322980053         194.0796955465     SG+        A1 (1)
  127   208           7.6514154412         208.2055991225      DE        A2 (4)
  128    50           7.6514154412         208.2055991227      DE        A1 (1)
  129   117           7.6808687879         209.0070654328      PI        B1 (2)
  130   169           7.6808687879         209.0070654328      PI        B2 (3)
  131    51           8.0081457792         217.9127251214     SG+        A1 (1)
  132    52           8.5233198438         231.9313241115     SG+        A1 (1)
  133   118           8.7127403339         237.0857176896      PI        B1 (2)
  134   170           8.7127403339         237.0857176899      PI        B2 (3)
  135   119          10.1259216900         275.5403373848      PI        B1 (2)
  136   171          10.1259216900         275.5403373848      PI        B2 (3)
  137    53          10.1897237327         277.2764792307     SG+        A1 (1)
  138    54          10.6006143014         288.4573800316      PI        A1 (1)
  139   209          10.6006143014         288.4573800316      PI        A2 (4)
  140   172          10.9418279869         297.7422764471      PH        B2 (3)
  141   120          10.9418279869         297.7422764471      PH        B1 (2)
  142   210          11.2166514626         305.2206034139      DE        A2 (4)
  143    55          11.2166514626         305.2206034139      DE        A1 (1)
  144    56          11.2541881841         306.2420295324     SG+        A1 (1)
  145   121          11.4074071787         310.4113303386      PI        B1 (2)
  146   173          11.4074071787         310.4113303386      PI        B2 (3)
  147   174          11.8580590646         322.6741915856      PH        B2 (3)
  148   122          11.8580590646         322.6741915856      PH        B1 (2)
  149    57          12.0807076078         328.7327664590     SG+        A1 (1)
  150   211          12.3685697764         336.5658942939      DE        A2 (4)
  151    58          12.3685697764         336.5658942939      DE        A1 (1)
  152   175          12.8245305656         348.9732181461      PI        B2 (3)
  153   123          12.8245305656         348.9732181461      PI        B1 (2)
  154   212          12.9496066550         352.3767115694      DE        A2 (4)
  155    59          12.9496066550         352.3767115694      DE        A1 (1)
  156    60          13.6567141298         371.6180841689     SG+        A1 (1)
  157   124          14.6041148443         397.3981682457      PI        B1 (2)
  158   176          14.6041148443         397.3981682459      PI        B2 (3)
  159    61          15.8244751287         430.6058598320     SG+        A1 (1)
  160    62          18.2418824728         496.3868579061     SG+        A1 (1)
  161   125          19.5460655486         531.8754836049      PI        B1 (2)
  162   177          19.5460655487         531.8754836059      PI        B2 (3)
  163    63          20.9944527785         571.2881038301     SG+        A1 (1)
  164   213          26.6235004360         724.4622778147      DE        A2 (4)
  165    64          26.6235004360         724.4622778149      DE        A1 (1)
  166   178          27.2640972838         741.8938042441      PI        B2 (3)
  167   126          27.2640972838         741.8938042441      PI        B1 (2)
  168    65          28.5485382596         776.8452200904     SG+        A1 (1)
  169   179          33.8464581698         921.0089499911      PI        B2 (3)
  170   127          33.8464581698         921.0089499913      PI        B1 (2)
  171    66          35.3265137877         961.2833108625     SG+        A1 (1)
  172    67          37.2005815189        1012.2792864138     SG+        A1 (1)
  173   214          47.1509994625        1283.0439240681      DE        A2 (4)
  174    68          47.1509994625        1283.0439240681      DE        A1 (1)
  175   128          47.9377592042        1304.4527450429      PI        B1 (2)
  176   180          47.9377592042        1304.4527450430      PI        B2 (3)
  177    69          48.7247224013        1325.8671023203     SG+        A1 (1)
  178    70          64.4328327305        1753.3065149770     SG+        A1 (1)
  179   129          66.9770867175        1822.5391856839      PI        B1 (2)
  180   181          66.9770867175        1822.5391856848      PI        B2 (3)
  181    71          68.0556209948        1851.8875954134     SG+        A1 (1)
  182   182          98.7146607569        2686.1624810583      PH        B2 (3)
  183   130          98.7146607569        2686.1624810583      PH        B1 (2)
  184    72          98.7460262544        2687.0159796356      DE        A1 (1)
  185   215          98.7460262544        2687.0159796356      DE        A2 (4)
  186   131          98.8219220217        2689.0812084564      PI        B1 (2)
  187   183          98.8219220217        2689.0812084564      PI        B2 (3)
  188    73          98.8395177012        2689.5600112396     SG+        A1 (1)
  189   132         103.2892271039        2810.6427598145      PH        B1 (2)
  190   184         103.2892271039        2810.6427598145      PH        B2 (3)
  191   216         103.3497821469        2812.2905463053      DE        A2 (4)
  192    74         103.3497821470        2812.2905463075      DE        A1 (1)
  193   185         103.3860669915        2813.2779071248      PI        B2 (3)
  194   133         103.3860669915        2813.2779071248      PI        B1 (2)
  195    75         103.4682234513        2815.5134980492     SG+        A1 (1)
  196   217         115.2550222971        3136.2486005033      DE        A2 (4)
  197    76         115.2550222972        3136.2486005033      DE        A1 (1)
  198   134         115.5658781407        3144.7074180447      PI        B1 (2)
  199   186         115.5658781407        3144.7074180447      PI        B2 (3)
  200    77         116.1606460219        3160.8918748928     SG+        A1 (1)
  201   187         117.0879783771        3186.1258711498      PI        B2 (3)
  202   135         117.0879783771        3186.1258711502      PI        B1 (2)
  203    78         118.4860090327        3224.1682193255     SG+        A1 (1)
  204    79         123.1294226698        3350.5219280889     SG+        A1 (1)
  205   218         198.6001976742        5404.1861222281      DE        A2 (4)
  206    80         198.6001976742        5404.1861222281      DE        A1 (1)
  207   136         199.0306695197        5415.8998566594      PI        B1 (2)
  208   188         199.0306695197        5415.8998566596      PI        B2 (3)
  209    81         199.4423556501        5427.1024057928     SG+        A1 (1)
  210    82         216.8909179921        5901.9019254614     SG+        A1 (1)
  211   137         225.3785749460        6132.8628130000      PI        B1 (2)
  212   189         225.3785749460        6132.8628130007      PI        B2 (3)
  213    83         226.2518338071        6156.6253946789     SG+        A1 (1)
  214   190         395.5397716103       10763.1843752350      PI        B2 (3)
  215   138         395.5397716103       10763.1843752351      PI        B1 (2)
  216    84         396.6164127970       10792.4812713518     SG+        A1 (1)
  217    85         509.6000627220       13866.9226873911     SG+        A1 (1)
  218    86         895.7316652466       24374.0977665460     SG+        A1 (1)


  VSCF finished.

 @CHECKOUT-I, Total execution time (CPU/WALL):       46.72/       9.19 seconds.
--executable xvscf finished with status     0 in        9.21 seconds (walltime).
 --invoking executable--
/nfs/workspaces/public/cfour_mpi/bin/xvtran
 @GETMEM-I,  Allocated    3814 MB of main memory.
  Full RHF integral transformation
  Transformation of IIII integrals :
  1 pass through the AO integral file was required.
     4632597 AO integrals were read.
     8859554 MO integrals were written to HF2.
  Transformation of IIJJ integrals :
  1 pass through the AO integral file was required.
    10465252 AO integrals were read.
    14677866 MO integrals were written to HF2.
  Transformation of IJIJ integrals :
  1 pass through the AO integral file was required.
    19851582 AO integrals were read.
    27698465 MO integrals were written to HF2.
  Transformation of IJKL integrals :
  1 pass through the AO integral file was required.
    14678437 AO integrals were read.
    18706419 MO integrals were written to HF2.
  Summary of active molecular orbitals: 
------------------------------------------------------------------------
 
  Index      Eigenvalue    Symmetry    Index      Eigenvalue    Symmetry
------------------------------------------------------------------------
     1       -20.6611477        1       110         4.2103399        2
     2       -11.3266451        1       111         4.3681958        2
     3        -1.5734290        1       112         4.7858080        2
     4        -0.8112399        1       113         5.2334751        2
     5        -0.5450892        1       114         5.8987588        2
     6        -0.6742524        2       115         6.2136419        2
     7        -0.6742524        3       116         6.3518959        2
     8         0.0582833        1       117         6.4617055        2
     9         0.0768926        1       118         7.6808688        2
    10         0.1558258        1       119         8.7127403        2
    11         0.2273110        1       120        10.1259217        2
    12         0.2281335        1       121        10.9418280        2
    13         0.3022879        1       122        11.4074072        2
    14         0.3948530        1       123        11.8580591        2
    15         0.5077762        1       124        12.8245306        2
    16         0.5292042        1       125        14.6041148        2
    17         0.6586253        1       126        19.5460655        2
    18         0.7706908        1       127        27.2640973        2
    19         0.7833789        1       128        33.8464582        2
    20         0.8754603        1       129        47.9377592        2
    21         0.8967119        1       130        66.9770867        2
    22         0.9406996        1       131        98.7146608        2
    23         1.2613801        1       132        98.8219220        2
    24         1.5070270        1       133       103.2892271        2
    25         1.5109434        1       134       103.3860670        2
    26         1.6605974        1       135       115.5658781        2
    27         1.7543607        1       136       117.0879784        2
    28         1.7753191        1       137       199.0306695        2
    29         2.1104495        1       138       225.3785749        2
    30         2.1805954        1       139       395.5397716        2
    31         2.2124590        1       140         0.0647721        3
    32         2.3250682        1       141         0.1524628        3
    33         2.3756610        1       142         0.1757925        3
    34         2.5149885        1       143         0.3297095        3
    35         3.0420257        1       144         0.3981192        3
    36         3.0695456        1       145         0.6203596        3
    37         3.4409198        1       146         0.7500943        3
    38         3.7396575        1       147         0.8331975        3
    39         3.9717668        1       148         0.8759535        3
    40         4.1759498        1       149         1.0954164        3
    41         4.2964498        1       150         1.4526385        3
    42         4.4140949        1       151         1.5415349        3
    43         4.6460796        1       152         1.8575422        3
    44         4.9657977        1       153         1.9474532        3
    45         5.1858541        1       154         2.2578794        3
    46         5.9123631        1       155         2.3395644        3
    47         6.1021233        1       156         2.3910419        3
    48         6.2165608        1       157         2.6082791        3
    49         6.3237202        1       158         2.9088402        3
    50         6.6431965        1       159         3.7625832        3
    51         7.1322980        1       160         4.0750804        3
    52         7.6514154        1       161         4.2103399        3
    53         8.0081458        1       162         4.3681958        3
    54         8.5233198        1       163         4.7858080        3
    55        10.1897237        1       164         5.2334751        3
    56        10.6006143        1       165         5.8987588        3
    57        11.2166515        1       166         6.2136419        3
    58        11.2541882        1       167         6.3518959        3
    59        12.0807076        1       168         6.4617055        3
    60        12.3685698        1       169         7.6808688        3
    61        12.9496067        1       170         8.7127403        3
    62        13.6567141        1       171        10.1259217        3
    63        15.8244751        1       172        10.9418280        3
    64        18.2418825        1       173        11.4074072        3
    65        20.9944528        1       174        11.8580591        3
    66        26.6235004        1       175        12.8245306        3
    67        28.5485383        1       176        14.6041148        3
    68        35.3265138        1       177        19.5460655        3
    69        37.2005815        1       178        27.2640973        3
    70        47.1509995        1       179        33.8464582        3
    71        48.7247224        1       180        47.9377592        3
    72        64.4328327        1       181        66.9770867        3
    73        68.0556210        1       182        98.7146608        3
    74        98.7460263        1       183        98.8219220        3
    75        98.8395177        1       184       103.2892271        3
    76       103.3497821        1       185       103.3860670        3
    77       103.4682235        1       186       115.5658781        3
    78       115.2550223        1       187       117.0879784        3
    79       116.1606460        1       188       199.0306695        3
    80       118.4860090        1       189       225.3785749        3
    81       123.1294227        1       190       395.5397716        3
    82       198.6001977        1       191         0.2281335        4
    83       199.4423557        1       192         0.5292042        4
    84       216.8909180        1       193         0.7706908        4
    85       226.2518338        1       194         0.8967119        4
    86       396.6164128        1       195         1.5070270        4
    87       509.6000627        1       196         1.7753191        4
    88       895.7316652        1       197         2.1104495        4
    89         0.0647721        2       198         2.2124590        4
    90         0.1524628        2       199         2.3756610        4
    91         0.1757925        2       200         3.0695456        4
    92         0.3297095        2       201         3.7396575        4
    93         0.3981192        2       202         4.1759498        4
    94         0.6203596        2       203         4.4140949        4
    95         0.7500943        2       204         5.1858541        4
    96         0.8331975        2       205         5.9123631        4
    97         0.8759535        2       206         6.3237202        4
    98         1.0954164        2       207         6.6431965        4
    99         1.4526385        2       208         7.6514154        4
   100         1.5415349        2       209        10.6006143        4
   101         1.8575422        2       210        11.2166515        4
   102         1.9474532        2       211        12.3685698        4
   103         2.2578794        2       212        12.9496067        4
   104         2.3395644        2       213        26.6235004        4
   105         2.3910419        2       214        47.1509995        4
   106         2.6082791        2       215        98.7460263        4
   107         2.9088402        2       216       103.3497821        4
   108         3.7625832        2       217       115.2550223        4
   109         4.0750804        2       218       198.6001977        4
------------------------------------------------------------------------
  -20.6611476761779       -11.3266450713641       -1.57342900491367     
 -0.811239872044453      -0.545089186992213      -0.674252358909800     
 -0.674252358909794       5.828325742623521E-002  7.689258938644310E-002
  0.155825816461495       0.227311008013759       0.228133536302433     
  0.302287882632455       0.394853041830968       0.507776227380718     
  0.529204154594727       0.658625284702735       0.770690762417397     
  0.783378882682931       0.875460252583229       0.896711905344777     
  0.940699586479659        1.26138005569116        1.50702699409086     
   1.51094337642756        1.66059738824711        1.75436066462740     
   1.77531913848306        2.11044954854027        2.18059538146181     
   2.21245903009841        2.32506816362040        2.37566095945425     
   2.51498846681340        3.04202568696527        3.06954558719053     
   3.44091983477992        3.73965746237990        3.97176681047923     
   4.17594975095477        4.29644976890494        4.41409489977173     
   4.64607960414077        4.96579771122875        5.18585413690583     
   5.91236307558382        6.10212334383799        6.21656075936380     
   6.32372018942806        6.64319651336082        7.13229800534372     
   7.65141544118228        8.00814577921804        8.52331984383799     
   10.1897237327049        10.6006143014237        11.2166514626332     
   11.2541881840687        12.0807076077954        12.3685697763510     
   12.9496066550381        13.6567141297543        15.8244751287417     
   18.2418824728364        20.9944527785406        26.6235004360298     
   28.5485382595592        35.3265137877001        37.2005815189018     
   47.1509994625316        48.7247224012980        64.4328327304749     
   68.0556209947569        98.7460262544255        98.8395177012418     
[...]
 Convergence information after     8 iterations: 
 Largest element of residual vector : -0.19837032E-04.
 Largest element of DIIS residual   :  0.15800654E-04.
 Convergence information after     9 iterations: 
 Largest element of residual vector :  0.69818232E-05.
 Largest element of DIIS residual   :  0.39474787E-05.
 Convergence information after    10 iterations: 
 Largest element of residual vector :  0.31546410E-05.
 Largest element of DIIS residual   :  0.20686126E-05.
 Convergence information after    11 iterations: 
 Largest element of residual vector :  0.10347600E-05.
 Largest element of DIIS residual   :  0.47922723E-06.
 Convergence information after    12 iterations: 
 Largest element of residual vector :  0.43964518E-06.
 Largest element of DIIS residual   :  0.25861776E-06.
 Convergence information after    13 iterations: 
 Largest element of residual vector :  0.17054124E-06.
 Largest element of DIIS residual   :  0.15905422E-06.
 Convergence information after    14 iterations: 
 Largest element of residual vector :  0.11546238E-06.
 Largest element of DIIS residual   :  0.78541266E-07.
 Perturbed amplitude equations converged in    14 iterations.
  Dominant contributions to perturbed wavefunction:
    7    7  142   37   0.2455528017 ABAB
    7    7   37  142   0.2455528017 ABAB
    7    7  142   27   0.2249812592 ABAB
    7    7   27  142   0.2249812592 ABAB
    7    7  142   55   0.1880680824 ABAB
    7    7   55  142   0.1880680824 ABAB
    7    7  142   63   0.1840803957 ABAB
    7    7   63  142   0.1840803957 ABAB
    7    7  142   47   0.1698912302 ABAB
    7    7   47  142   0.1698912302 ABAB
    7    6   37   91   0.1662766612 ABAB
    6    7   91   37   0.1662766612 ABAB
    7    6   27   91   0.1517826661 ABAB
    6    7   91   27   0.1517826661 ABAB
    7    7  142   51  -0.1465760569 ABAB
    7    7   51  142  -0.1465760569 ABAB
    7    7  142   19   0.1413176245 ABAB
    7    7   19  142   0.1413176245 ABAB
    5    5  142   44   0.1380999250 ABAB
    5    5   44  142   0.1380999250 ABAB
  norm of converged amps    2.65624826318835     
 Starting iterative solution of the perturbed Lambda equations.
 The DIIS procedure is used to accelerate convergence.
 Convergence criterion is 10**(-7).
 Maximum number of iterations is 100.
 Convergence information after     1 iterations: 
 Largest element of residual vector : -0.65663125E-01.
 Largest element of DIIS residual   : -0.65663125E-01.
 Convergence information after     2 iterations: 
 Largest element of residual vector :  0.66416999E-02.
 Largest element of DIIS residual   :  0.55991606E-02.
 Convergence information after     3 iterations: 
 Largest element of residual vector : -0.36995872E-02.
 Largest element of DIIS residual   : -0.33199150E-02.
 Convergence information after     4 iterations: 
 Largest element of residual vector : -0.23340385E-02.
 Largest element of DIIS residual   : -0.17949377E-02.
 Convergence information after     5 iterations: 
 Largest element of residual vector : -0.13004439E-02.
 Largest element of DIIS residual   : -0.59590205E-03.
 Convergence information after     6 iterations: 
 Largest element of residual vector : -0.41303891E-03.
 Largest element of DIIS residual   : -0.97613883E-04.
 Convergence information after     7 iterations: 
 Largest element of residual vector : -0.70462564E-04.
 Largest element of DIIS residual   : -0.35340250E-04.
 Convergence information after     8 iterations: 
 Largest element of residual vector : -0.15482640E-04.
 Largest element of DIIS residual   :  0.13202054E-04.
 Convergence information after     9 iterations: 
 Largest element of residual vector :  0.59422203E-05.
 Largest element of DIIS residual   :  0.33901871E-05.
 Convergence information after    10 iterations: 
 Largest element of residual vector :  0.26414520E-05.
 Largest element of DIIS residual   :  0.17650322E-05.
 Convergence information after    11 iterations: 
 Largest element of residual vector :  0.87857052E-06.
 Largest element of DIIS residual   :  0.46080426E-06.
 Convergence information after    12 iterations: 
 Largest element of residual vector :  0.39571221E-06.
 Largest element of DIIS residual   :  0.25067500E-06.
 Convergence information after    13 iterations: 
 Largest element of residual vector :  0.16390325E-06.
 Largest element of DIIS residual   :  0.15416055E-06.
 Convergence information after    14 iterations: 
 Largest element of residual vector :  0.11181629E-06.
 Largest element of DIIS residual   :  0.74718096E-07.
 Perturbed Lambda equations converged in    14 iterations.
  Dominant contributions to perturbed wavefunction:
    7    7  142   37   0.2352243907 ABAB
    7    7   37  142   0.2352243907 ABAB
    7    7  142   27   0.2147141190 ABAB
    7    7   27  142   0.2147141190 ABAB
    7    7  142   55   0.1783161203 ABAB
    7    7   55  142   0.1783161203 ABAB
    7    7  142   63   0.1759818514 ABAB
    7    7   63  142   0.1759818514 ABAB
    7    7  142   47   0.1623635875 ABAB
    7    7   47  142   0.1623635875 ABAB
    7    6   37   91   0.1575398826 ABAB
    6    7   91   37   0.1575398826 ABAB
    7    6   27   91   0.1430736468 ABAB
    6    7   91   27   0.1430736468 ABAB
    7    7  142   51  -0.1404576205 ABAB
    7    7   51  142  -0.1404576205 ABAB
    7    7  142   19   0.1349327579 ABAB
    7    7   19  142   0.1349327579 ABAB
    5    5  142   44   0.1322305623 ABAB
    5    5   44  142   0.1322305623 ABAB
        The DBOC first-order density matrix is being calculated 
             (Symmetry block 3, perturbation   2)
 term   8.35296685303692     
 final tnorm  0.896241174731985     
  norm contr. I: |<0|L dT/dx|0>|^2   0.000000000000000E+000
  norm contr. II: <0|[nabla(1+L)e-T][nabla e^T]|0>   8.35296685303692     
  total norm contribution   8.35296685303692     
 oo  1.311420588996061E-002
 vv  -62.7305089797393     
 vo  3.412643279935272E-002
  Correlated perturbed 1-el contribution to DBOC  -62.6832683410500       cm**-1
  SUM_I |dc_I/dx|^2 contribution to DBOC   31.4464945620387       cm**-1
 
 
  The total diagonal Born-Oppenheimer correction (DBOC) is:      0.0040168904 a.u.
  The total diagonal Born-Oppenheimer correction (DBOC) is:        881.605542 cm-1
 
 Total CC energy including DBOC  -113.269621660152     
 First-order density matrix is being calculated  (Symmetry block 3, perturbation   2)
 Calculation of the contributions of <pq||rs> to dI(i,j)/dx required   1.7 seconds.
 Calculation of the contributions of <pq||rs> to dI(a,b)/dx required  16.4 seconds.
 Calculation of the contributions of <pq||rs> to dI(i,a)/dx required   9.7 seconds.
 First-order Z-vector equations are solved for 1 perturbation.
 Convergence reached after  17 iterations.
        U*G(pq,rs) contribution is being calculated
             (Symmetry block 3, perturbation   2)

 CCSD contribution to force constants 

        0.0000000000        0.0000000000        0.0000000000
        0.0000000000        0.0000000000        0.0000000000
        0.0000000000        0.0000000000        0.0000000000
        0.0000000000        0.0000000000        0.0000000000
        0.0000000000        0.0000000000        0.0000000000
        0.0000000000        0.0000000000        0.0000000000
        0.0000000000        0.0000000000        0.0000000000
        0.0000000000        0.0000000000        0.0000000000
        0.0000000000        0.0000000000        0.0000000000
        0.0000000000        0.0000000000        0.0000000000
        0.0000000000        0.0000000000        0.0000000000
        0.0000000000       -6.5740825025        6.5740825025

 CCSD contribution to dipole derivatives 

        0.0000000000        0.0000000000        0.0000000000
        0.0000000000        0.0000000000        0.0000000000
        0.0000000000        0.0000000000        0.0000000000
        0.0000000000        0.0000000000       -0.0412512098
        0.0000000000        0.0000000000        0.0000000000
        0.0000000000        0.0000000000        0.0000000000
 @CHECKOUT-I, Total execution time (CPU/WALL):     1076.55/     248.23 seconds.
--executable xsdcc finished with status     0 in      248.27 seconds (walltime).
 --invoking executable--
/nfs/workspaces/public/cfour_mpi/bin/xanti
 @GETMEM-I,  Allocated    3814 MB of main memory.
 CCSD MO derivative gammas will be sorted to Mulliken order.
 @CHECKOUT-I, Total execution time (CPU/WALL):        9.21/      12.62 seconds.
--executable xanti finished with status     0 in       12.64 seconds (walltime).
 --invoking executable--
/nfs/workspaces/public/cfour_mpi/bin/xbcktrn
 @GETMEM-I,  Allocated    3814 MB of main memory.
 CCSD MO derivative gammas will be transformed to the AO basis.
 @CHECKOUT-I, Total execution time (CPU/WALL):       22.76/       5.22 seconds.
--executable xbcktrn finished with status     0 in        5.24 seconds (walltime).
 --invoking executable--
/nfs/workspaces/public/cfour_mpi/bin/xvdint
 @GETMEM-I,  Allocated    3814 MB of main memory.
 One- and two-electron integral derivatives are calculated
 for RHF-CC/MBPT hessians and dipole derivatives.
 Spherical gaussians are used.
  magnet F F
                    8722  records have been written to the Sort file.
  Total length of Sort file :             178609116  words.
 Evaluation of 2el integral derivatives

                      Two-electron integral gradient
                      ------------------------------

                         C #1 z     0.0000000000
                         O #2 z     0.0000000000


 C #1       0.0000000000           -1.0070039541            0.0000000000
 O #2       0.0000000000            1.0070039541            0.0000000000


 Evaluation of 2e integral derivatives required  343.18 seconds.
  contribution to Hessian
        0.0000000000        0.0000000000        0.0000000000
        0.0000000000       -1.0070039541        1.0070039541
 @CHECKOUT-I, Total execution time (CPU/WALL):      343.18/      69.66 seconds.
--executable xvdint finished with status     0 in       69.67 seconds (walltime).
 --invoking executable--
/nfs/workspaces/public/cfour_mpi/bin/xanti
 @GETMEM-I,  Allocated    3814 MB of main memory.
 CCSD MO gammas will be sorted to Mulliken order.
 @CHECKOUT-I, Total execution time (CPU/WALL):       11.24/       9.89 seconds.
--executable xanti finished with status     0 in        9.92 seconds (walltime).
 --invoking executable--
/nfs/workspaces/public/cfour_mpi/bin/xbcktrn
 @GETMEM-I,  Allocated    3814 MB of main memory.
 CCSD MO gammas will be transformed to the AO basis.
 @CHECKOUT-I, Total execution time (CPU/WALL):       26.05/       4.46 seconds.
--executable xbcktrn finished with status     0 in        4.47 seconds (walltime).
 --invoking executable--
/nfs/workspaces/public/cfour_mpi/bin/xvdint
 @GETMEM-I,  Allocated    3814 MB of main memory.
 One- and two-electron integral derivatives are calculated
 for RHF-CC/MBPT hessians and dipole derivatives.
 Spherical gaussians are used.
  magnet F F

                     Kinetic energy integral gradient
                     --------------------------------

                         C #1 z    -1.7303849219
                         O #2 z     1.7303849219


 C #1       0.0000000000            0.0000000000           -1.7303849219
 O #2       0.0000000000            0.0000000000            1.7303849219



                   Nuclear attraction integral gradient
                   ------------------------------------

                         C #1 z    25.6373622586
                         O #2 z   -25.6373622586


 C #1       0.0000000000            0.0000000000           25.6373622586
 O #2       0.0000000000            0.0000000000          -25.6373622586



                      Reorthonormalization gradient
                      -----------------------------

                         C #1 z     0.0000000000
                         O #2 z     0.0000000000


 C #1       0.0000000000            0.0000000000            0.0000000000
 O #2       0.0000000000            0.0000000000            0.0000000000



                     Kinetic energy integral Hessian
                     -------------------------------


           Symmetry 1

           C #1 z      O #2 z

 C #1 z    0.986870
 O #2 z   -0.986870    0.986870


           Symmetry 2

           C #1 x      O #2 x

 C #1 x   -2.609244
 O #2 x    2.609244   -2.609244


           Symmetry 3

           C #1 y      O #2 y

 C #1 y   -2.609244
 O #2 y    2.609244   -2.609244




           C #1 x      C #1 y      C #1 z      O #2 x      O #2 y      O #2 z

 C #1 x   -2.609244
 C #1 y    0.000000   -2.609244
 C #1 z    0.000000    0.000000    0.986870

 O #2 x    2.609244    0.000000    0.000000   -2.609244
 O #2 y    0.000000    2.609244    0.000000    0.000000   -2.609244
 O #2 z    0.000000    0.000000   -0.986870    0.000000    0.000000    0.986870




                   Nuclear attraction integral Hessian
                   -----------------------------------


           Symmetry 1

           C #1 z      O #2 z

 C #1 z  -13.357110
 O #2 z   13.357110  -13.357110


           Symmetry 2

           C #1 x      O #2 x

 C #1 x   25.526178
 O #2 x  -25.526178   25.526178


           Symmetry 3

           C #1 y      O #2 y

 C #1 y   25.526178
 O #2 y  -25.526178   25.526178




           C #1 x      C #1 y      C #1 z      O #2 x      O #2 y      O #2 z

 C #1 x   25.526178
 C #1 y    0.000000   25.526178
 C #1 z    0.000000    0.000000  -13.357110

 O #2 x  -25.526178    0.000000    0.000000   25.526178
 O #2 y    0.000000  -25.526178    0.000000    0.000000   25.526178
 O #2 z    0.000000    0.000000   13.357110    0.000000    0.000000  -13.357110




                Highest order reorthonormalization Hessian
                ------------------------------------------


           Symmetry 1

           C #1 z      O #2 z

 C #1 z    0.000000
 O #2 z    0.000000    0.000000


           Symmetry 2

           C #1 x      O #2 x

 C #1 x    0.000000
 O #2 x    0.000000    0.000000


           Symmetry 3

           C #1 y      O #2 y

 C #1 y    0.000000
 O #2 y    0.000000    0.000000




           C #1 x      C #1 y      C #1 z      O #2 x      O #2 y      O #2 z




                Electronic contributions to dipole moment
                -----------------------------------------

                               au             Debye

                    z      0.41346095      1.05091310

  Conversion factor used: 1 a.u. =   2.54174691 Debye 



   Electronic contributions to static part of dipole moment derivatives
   --------------------------------------------------------------------


                     Total dipole moment derivatives
                     -------------------------------


           Symmetry 1
                              Ez

               C #1 z    -5.78731389
               O #2 z    -8.21268611

           Symmetry 2
                              Ex

               C #1 x    -5.84398196
               O #2 x    -8.15601804

           Symmetry 3
                              Ey

               C #1 y    -5.84398196
               O #2 y    -8.15601804



                       Ex          Ey          Ez

      C #1    x   -5.843982    0.000000    0.000000
      C #1    y    0.000000   -5.843982    0.000000
      C #1    z    0.000000    0.000000   -5.787314

      O #2    x   -8.156018    0.000000    0.000000
      O #2    y    0.000000   -8.156018    0.000000
      O #2    z    0.000000    0.000000   -8.212686

 Evaluation of 1e integral derivatives required    1.71 seconds.
                    8815  records have been written to the Sort file.
  Total length of Sort file :             180513570  words.
 Evaluation of 2el integral derivatives

                      Two-electron integral gradient
                      ------------------------------

                         C #1 z   -11.6587901145
                         O #2 z    11.6587901145


 C #1       0.0000000000            0.0000000000          -11.6587901145
 O #2       0.0000000000            0.0000000000           11.6587901145


 Evaluation of 2e integral derivatives required  685.15 seconds.

                            Molecular gradient
                            ------------------

                         C #1 z     0.1757080700
                         O #2 z    -0.1757080700


 C #1       0.0000000000            0.0000000000            0.1757080700
 O #2       0.0000000000            0.0000000000           -0.1757080700


  Molecular gradient norm 0.248E+00

                            Molecular hessian
                            -----------------


           Symmetry 1

           C #1 z      O #2 z

 C #1 z   80.008384
 O #2 z  -80.008384   80.008384


           Symmetry 2

           C #1 x      O #2 x

 C #1 x    7.389910
 O #2 x   -7.389910    7.389910


           Symmetry 3

           C #1 y      O #2 y

 C #1 y    7.389910
 O #2 y   -7.389910    7.389910




           C #1 x      C #1 y      C #1 z      O #2 x      O #2 y      O #2 z

 C #1 x    7.389910
 C #1 y    0.000000    7.389910
 C #1 z    0.000000    0.000000   80.008384

 O #2 x   -7.389910    0.000000    0.000000    7.389910
 O #2 y    0.000000   -7.389910    0.000000    0.000000    7.389910
 O #2 z    0.000000    0.000000  -80.008384    0.000000    0.000000   80.008384




                           Total dipole moment
                           -------------------

                               au             Debye

                    z     -0.14058091     -0.35732109

  Conversion factor used: 1 a.u. =   2.54174691 Debye 



                     Total dipole moment derivatives
                     -------------------------------


           Symmetry 1
                              Ez

               C #1 z     0.69856536
               O #2 z    -0.69856536

           Symmetry 2
                              Ex

               C #1 x    -0.07383825
               O #2 x     0.07383825

           Symmetry 3
                              Ey

               C #1 y    -0.07383825
               O #2 y     0.07383825



                       Ex          Ey          Ez

      C #1    x   -0.073838    0.000000    0.000000
      C #1    y    0.000000   -0.073838    0.000000
      C #1    z    0.000000    0.000000    0.698565

      O #2    x    0.073838    0.000000    0.000000
      O #2    y    0.000000    0.073838    0.000000
      O #2    z    0.000000    0.000000   -0.698565

 @CHECKOUT-I, Total execution time (CPU/WALL):      686.85/     115.91 seconds.
--executable xvdint finished with status     0 in      115.93 seconds (walltime).
 --invoking executable--
/nfs/workspaces/public/cfour_mpi/bin/xjoda
  @GTFLGS-I, Hessian will be transformed to curvilinear coordinates.
  @GTFLGS-I, Hessian will be transformed to curvilinear coordinates.
  igrd and ihes are                      0                     1
  gradient from JOBARC 
   0.000000000000000   0.000000000000000   0.175708069984745
   0.000000000000000   0.000000000000000  -0.175708069984745
 
  @PROJFCM-I, Projecting force constant matrix onto totally symmetric subspace.
  Largest difference between matrix elements of symmetrized
  and unsymmetrized FCM :     0.1502442615E-10.
  read isotopes from ZMAT file 
 
  Summary of diagonal Born-Oppenheimer correction at the correlated level
  The total diagonal Born-Oppenheimer correction (DBOC) is:      0.0040168904 a.u.
  The total diagonal Born-Oppenheimer correction (DBOC) is:        881.605542 cm-1
  The total diagonal Born-Oppenheimer correction (DBOC) is:            10.546 kJ/mole
  hellooooooo 
  readis is  F
 
 @CHECKOUT-I, Total execution time (CPU/WALL):        0.01/       0.05 seconds.
--executable xjoda finished with status     0 in        0.07 seconds (walltime).
  The final electronic energy is      -113.269621660152353 a.u. 
  This computation required                         2594.75 seconds (walltime).
