 --invoking executable--
/nfs/workspaces/public/cfour_mpi/bin/xjoda


   *************************************************************************
         <<<     CCCCCC     CCCCCC   |||     CCCCCC     CCCCCC   >>>
       <<<      CCC        CCC       |||    CCC        CCC         >>>
      <<<      CCC        CCC        |||   CCC        CCC            >>>
    <<<        CCC        CCC        |||   CCC        CCC              >>>
      <<<      CCC        CCC        |||   CCC        CCC            >>>
       <<<      CCC        CCC       |||    CCC        CCC         >>>
         <<<     CCCCCC     CCCCCC   |||     CCCCCC     CCCCCC   >>>
   *************************************************************************

     ****************************************************************
     * CFOUR Coupled-Cluster techniques for Computational Chemistry *
     ****************************************************************
 

   Department of Chemistry                Institut fuer Physikalische Chemie
   University of Florida                  Universitaet Mainz
   Gainesville, FL 32611, USA             D-55099 Mainz, Germany

   Department of Chemistry                Fakultaet fuer Chemie und Biowiss.
   Johns Hopkins University               Karlsruher Institut fuer Technologie
   Baltimore, MD 21218, USA               D-76131 Karlsruhe, Germany

   Department of Chemistry                Department of Physical Chemistry
   Southern Methodist University          Eotvos Lorand University
   Dallas, TX 75275, USA                  H-1053 Budapest, Hungary

 
                       Version 2.1
 
                     vincent.theory.phys.ucl.ac.uk                     
                     Fri 28 Feb 09:22:31 GMT 2025                      
                     integer*8 version is running
 
********************************************************************************
*                          Input from ZMAT file                                *
********************************************************************************
Carbon Monoxide DBOC calculation                                                
C                                                                               
O 1 r                                                                           
                                                                                
r=1.5827586206896551                                                            
                                                                                
                                                                                
*CFOUR(CALC=CCSD,BASIS=AUG-PCVQZ,SCF_CONV=10                                    
CC_CONV=14,DBOC=ON,MEMORY=500000000                                             
ZFIELD=-200)                                                                    
                                                                                
%isotopes                                                                       
13                                                                              
16                                                                              
********************************************************************************
  @GTFLGS-I, Hessian will be transformed to curvilinear coordinates.
    -------------------------------------------------------------------
                    CFOUR Control Parameters 
    -------------------------------------------------------------------
        External           Internal           Value            Units
          Name               Name
    -------------------------------------------------------------------
       ABCDTYPE             IABCDT         STANDARD    [  0]    ***   
       ANHARMONIC           IANHAR         OFF         [  0]    ***   
       ANH_ALGORIT          IANALG         STANDARD    [  0]    ***   
       ANH_DERIVAT          IANDER         SECOND      [  1]    ***   
       ANH_MODE             ANHMOD         VIBRATION   [  0]    ***   
       ANH_STEPSIZ          ICUBST             50000          x 10-6  
       ANH_SYMMETR          IANHSM         ABELIAN     [  0]    ***   
       AO_LADDERS           IAOLAD         SINGLEPASS  [  1]    ***   
       AV_SCF               IAVSCF         OFF         [  0]    ***   
       BASIS                IBASIS         AUG-PCVQZ   [ 52]    ***   
       BOTHVECTORS          BOTHVC         OFF         [  0]    ***   
       BOX_POTENT           IPIAB          OFF         [  0]    ***   
       BREIT                IBREIT         OFF         [  0]    ***   
       BRUCK_CONV           IBRTOL          10D-  4             ***   
       BRUECKNER            IBRKNR         OFF         [  0]    ***   
       BUFFERSIZE           IBUFFS              4096            ***   
       CACHE_RECS           ICHREC             10               ***   
       CALCLEVEL            ICLLVL         CCSD        [ 10]    ***   
       CCORBOPT             ICCORB         OFF         [  0]  x 0.01  
       CC_CONV              ICCCNV          10D- 14             ***   
       CC_EXPORDER          ICCEOR              5               ***   
       CC_EXTRAPOL          ICCEXT         DIIS        [  1]    ***   
       CC_GUESS             ICCGES         MP2         [  0]    ***   
       CC_MAXCYC            ICCCYC            100              cycles 
       CC_PROGRAM           ICCPRO         VCC         [  0]    ***   
       CHARGE               ICHRGE              0               ***   
       CHOLESKY             ICHOLE         OFF         [  0]    ***   
       CIS_CONV             ICISTL              5               ***   
       COMM_SIZE            IPSIZE            ***               ***   
       CONSTANT             ICONST         OLD         [  1]    ***   
       CONTINUUM            ICONTU         NONE        [  0]    ***   
       CONTRACTION          ICNTYP         GENERAL     [  1]    ***   
       COORDINATES          ICOORD         INTERNAL    [  0]    ***   
       CPHF_CONVER          ICPHFT          10D- 16             ***   
       CPHF_MAXCYC          ICPHFC             64              cycles 
       CUBIC                ICUBIC         OFF         [  0]    ***   
       CURVILINEAR          ICURVY         ON          [  1]    ***   
       DBOC                 IDBOC          ON          [  1]    ***   
       DCT                  IDCT           OFF         [  0]    ***   
       DERIV_LEV            IDRLVL         SECOND      [  2]    ***   
       DEVMEM_SIZE          IDVMEM          50000000           MByte  
       DIAG_MRCC            IEOMST          10D-  0             ***   
       DIFF_TYPE            IDIFTY         RELAXED     [  0]    ***   
       DIRECT               IDIRCT         OFF         [  0]    ***   
       DROPMO               IDRPMO      NONE         
       ECP                  IECP           OFF         [  0]    ***   
       EIGENVECTOR          IVEC                1               ***   
       EL_ANHARM            IELANH         OFF         [  0]    ***   
       EOMFOLLOW            IEOMSR         ENERGY      [  0]    ***   
       EOMIP                IEOMIP         OFF         [  0]    ***   
       EOMLEVEL             HBARFM         SAME        [  0]    ***   
       EOM_MRCC             IMRCCE         NEW         [  1]    ***   
       EOM_NONIT            EOMNON         OFF         [  0]    ***   
       EOM_NSING            IEOMSI          10D-  0             ***   
       EOM_NSTATES          IMRCCD         DAVIDSON    [  0]    ***   
       EOM_NTRIP            IEOMTR          10D-  0             ***   
       EOM_ORDER            IEXORD         ENERGY      [  0]    ***   
       EOM_PROPSTA          IEOMST              0               ***   
       ESTATE_CONV          IEXTOL          10D-  5             ***   
       ESTATE_DIAG          IEXDIG         ITERATIVE   [  0]    ***   
       ESTATE_LOCK          IESLOC         ON          [  1]    ***   
       ESTATE_MAXC          IEXMXC             40               ***   
       ESTATE_PROP          IEXPRP         OFF         [  0]    ***   
       EVAL_HESS            IRECAL              0            # of cyc.
       EXCITATION           IEXCIT              0               ***   
       EXCITE               IEXCIT         NONE        [  0]    ***   
       EXTERN_POT           IEXPOT         OFF         [  0]    ***   
       FCGRADNEW            IFCGNW         OFF         [  0]    ***   
       FC_FIELD             IFINFC              0             x 10-6  
       FD_CALTYPE           IFDCAL         GRADONLY    [  0]    ***   
       FD_PROJECT           IFDPRJ         OFF         [  1]    ***   
       FD_STEPSIZE          IDISFD              0            10-4 bohr
       FD_USEGROUP          IFDGRP         FULL        [  0]    ***   
       FILE_RECSIZ          IFLREC              4096           words  
       FINITE_PERT          IFIPER              0             x 10-6  
       FIXGEOM              IFIXGM         OFF         [  0]    ***   
       FOCK                 IFOCK          AO          [  1]    ***   
       FREQ_ALGORI          IVIALG         STANDARD    [  0]    ***   
       FROZEN_CORE          IFROCO         OFF         [  0]    ***   
       GAMMA_ABCD           IGABCD         STORE       [  0]    ***   
       GAMMA_ABCI           IGABCI         STORE       [  0]    ***   
       GENBAS_1             IGNBS1              0               ***   
       GENBAS_2             IGNBS2              0               ***   
       GENBAS_3             IGNBS3              0               ***   
       GENBAS_4             IGNBS4              0               ***   
       GEO_CONV             ICONTL              5              H/bohr 
       GEO_MAXCYC           IOPTCY             50               ***   
       GEO_MAXSTEP          IMXSTP            300            millibohr
       GEO_METHOD           INR            SINGLE_POINT[  5]    ***   
       GIAO                 IGIAO          OFF         [  1]    ***   
       GIMIC                IGIMIC         OFF         [  0]    ***   
       GRID                 IGRID          OFF         [  0]    ***   
       GRID_ALGO            IGALGO         SERIAL      [  0]    ***   
       GUESS                IGUESS         MOREAD      [  0]    ***   
       HBAR                 IHBAR          OFF         [  0]    ***   
       HESS_TYPE            IHESTP         SCF         [  0]    ***   
       HF2_FILE             IHF2Fl         USE         [  1]    ***   
       HFSTABILITY          ISTABL         OFF         [  0]    ***   
       INCORE               INCORE         OFF         [  0]    ***   
       INPUT_MRCC           IMRCC          ON          [  1]    ***   
       INTEGRALS            INTTYP         VMOL        [  1]    ***   
       JODA_PRINT           IJPRNT              0               ***   
       KEYWORD_OUT          IDMPKW         NO          [  0]    ***   
       LINDEP_TOL           ILINDP              8               ***   
       LINEQ_CONV           IZTACN          10D-  7           cycles  
       LINEQ_EXPOR          ILMAXD              5               ***   
       LINEQ_MAXCY          ILMAXC            100               ***   
       LINEQ_TYPE           ILTYPE         DIIS        [  1]    ***   
       LOCK_ORBOCC          ILOCOC         OFF         [  0]    ***   
       MEMORY_SIZE          IMEMSZ         500000000           words  
       MEM_UNIT             IMEMU          INTEGERWORDS[  0]    ***   
       MRCC                 IMRCCC         OFF         [  0]    ***   
       MULTIPLICTY          IMULTP              1               ***   
       NACOUPLING           IVCOUP         OFF         [  0]    ***   
       NEGEVAL              IDIE           ABORT       [  0]    ***   
       NEWNORM              INEWNO         OFF         [  0]    ***   
       NON-HF               INONHF         OFF         [  0]    ***   
       NTOP_TAMP            ITOPT2             15               ***   
       NUC_MODEL            INUCMO         POINT       [  0]    ***   
       OCCUPATION           IOCCU   ESTIMATED BY SCF 
       OPEN-SHELL           IOPEN          SPIN-ORBITAL[  0]    ***   
       OPTVIB               IOPTVB         OFF         [  0]    ***   
       ORBITALS             IORBTP         STANDARD    [  0]    ***   
       PARALLEL             IPARAL         ON          [  1]    ***   
       PARA_INT             IPINTS         ON          [  1]    ***   
       PARA_PRINT           IPPRIN              0               ***   
       PERT_ORB             IPTORB         STANDARD    [  0]    ***   
       POINTS               IGRDFD              0               ***   
       PRINT                IPRNT               0               ***   
       PROPS                IPROPS         OFF         [  0]    ***   
       PROP_INTEGR          IINTYP         INTERNAL    [  0]    ***   
       PSI                  IPSI           OFF         [  0]    ***   
       QC_ALG               IQCALG         FLM         [  0]    ***   
       QC_LINALG            IQCLIN         TRIDIAG     [  2]    ***   
       QC_MAXCYC            IQCMAX          10D-100           cycles  
       QC_MAXSCFCY          IQCMSC          10D- 15           cycles  
       QC_RTRUST            IQCRTR          10D-  0           x 10-3  
       QC_SKIPSCF           IQCSKI         OFF         [  0]    ***   
       QC_START             IQCSTA          10D-  1             ***   
       QRHFGUESS            IQGUES         OFF         [  0]    ***   
       QUARTIC              IQUART         OFF         [  0]    ***   
       RAMAN_INT            IRAMIN         OFF         [  0]    ***   
       RAMAN_ORB            IRAMRE         UNRELAXED   [  0]    ***   
       RDO                  IRDOFM         ON          [  1]    ***   
       REDUCE_REPR          REDREP         Ir          [  0]    ***   
       REFERENCE            IREFNC         RHF         [  0]    ***   
       RELATIVIST           IRELAT         OFF         [  0]    ***   
       RELAX_DENS           IRDENS         ON          [  1]    ***   
       RESET_FLAGS          IRESET         OFF         [  0]    ***   
       RESTART_CC           ICCRES         OFF         [  0]    ***   
       ROT_EVEC             ROTVEC              0               ***   
       SAVE_INTS            ISVINT         OFF         [  0]    ***   
       SCALE_ON             ISTCRT              0               ***   
       SCF_CONV             ISCFCV          10D- 10             ***   
       SCF_DAMPING          IDAMP               0             x 10-3  
       SCF_EXPORDE          IRPPOR              6               ***   
       SCF_EXPSTAR          IRPPLS              8               ***   
       SCF_EXTRAPO          IRPP           ON          [  1]    ***   
       SCF_MAXCYC           ISCFCY            150              cycles 
       SCF_NOSTOP           ISCFST         OFF         [  0]    ***   
       SCF_PRINT            ISCFPR              0               ***   
       SCF_PROG             ISCFPR         SCF         [  0]    ***   
       SD_FIELD             IFINSD              0             x 10-6  
       SOPERT               IPERSO         OFF         [  0]    ***   
       SPHERICAL            IDFGHI         ON          [  1]    ***   
       SPINORBIT            ISOCAL         OFF         [  0]    ***   
       SPINROTATIO          ISRCON         OFF         [  0]    ***   
       SPIN_FLIP            ISPFLP         OFF         [  0]    ***   
       SPIN_ORBIT           ISPORB         OFF         [  0]    ***   
       SPIN_SCAL            ISCSMP         OFF         [  0]    ***   
       STEEPSCALE           ISTPSC              1000          x 10-3  
       SUBGROUP             ISUBGP         DEFAULT     [  0]    ***   
       SUBGRPAXIS           ISBXYZ         X           [  0]    ***   
       SYMMETRY             ISYM           ON          [  0]    ***   
       SYM_CHECK            ISYMCK         OVERRIDE    [  1]    ***   
       T3_EXTRAPOL          IT3EXT         OFF         [  0]    ***   
       T4_EXTRAPOL          IT4EXP         OFF         [  0]    ***   
       TAMP_SUM             IEVERY              5               ***   
       TESTSUITE            ITESTS         OFF         [  0]    ***   
       THERMOCH             ITHERM         OFF         [  0]    ***   
       TOL_CHOLESK          ITOLCH          10D-  4             ***   
       TRANGRAD             IRESRM         OFF         [  0]    ***   
       TRANS_INV            ITRAIN         IGNORE      [  1]    ***   
       TREAT_PERT           ITREAT         SIMULTANEOUS[  0]    ***   
       TRIP_ALGORI          ITRALG         NORMAL      [  0]    ***   
       UIJ_THRESHO          IUIJTH              1               ***   
       UNITS                IUNITS         ANGSTROM    [  0]    ***   
       UNOS                 IUNOS          OFF         [  0]    ***   
       UPDATE_HESS          IHUPDT         ON          [  1]    ***   
       VIBPHASE             ISETPH         STANDARD    [  0]    ***   
       VIBRATION            IVIB           ANALYTIC    [  1]    ***   
       VIB_ALGORIT          IGEALG         STANDARD    [  0]    ***   
       VNATORB              IVNORB         OFF         [  0]    ***   
       VTRAN                IVTRAN         FULL/PARTIAL[  0]    ***   
       XFIELD               IXEFLD              0             x 10-6  
       XFORM_TOL            IXFTOL          10D- 11             ***   
       YFIELD               IYEFLD              0             x 10-6  
       ZFIELD               IZEFLD            ***             x 10-6  
       ZSCALE_EXP           IZEXPS         OFF         [  0]    ***   
    -------------------------------------------------------------------
   2 entries found in Z-matrix 
   Job Title : Carbon Monoxide DBOC calculation                                                
   There are  1 unique internal coordinates.
   Of these,  0 will be optimized.
   User supplied Z-matrix: 
--------------------------------------------------------------------------------
       SYMBOL    BOND      LENGTH    ANGLE     ANGLE     DIHED     ANGLE
                  TO      (ANGST)    WRT      (DEG)      WRT      (DEG)
--------------------------------------------------------------------------------
        C    
        O          1         r    
                  *Initial values for internal coordinates* 
                      Name             Value
                        r               1.5827586207
--------------------------------------------------------------------------------
  read isotopes from ZMAT file 
   Rotational constants (in cm-1): 
          0.9382140257             0.9382140257
   Rotational constants (in MHz): 
      28126.9528295413         28126.9528295413
********************************************************************************
   The full molecular point group is CXv .
   The largest Abelian subgroup of the full molecular point group is C2v .
   The computational point group is C2v .
********************************************************************************
--------------------------------------------------------------------------------
   Analysis of internal coordinates specified by Z-matrix 
--------------------------------------------------------------------------------
   *The nuclear repulsion energy is   16.048246692810455 a.u.
   *There is   1 degree of freedom within the tot. symm. molecular subspace.
   *Z-matrix requests optimization of   0 coordinates.
   *The optimization is constrained.
   *The following   1 parameters can have non-zero 
    derivatives within the totally symmetric subspace:
             r    [ 1]
   *The following   0 parameters are to be optimized:

   *The following coordinates must be varied in an  unconstrained optimization.
             r    [ 1]
--------------------------------------------------------------------------------


 ----------------------------------------------------------------
         Coordinates used in calculation (QCOMP) 
 ----------------------------------------------------------------
 Z-matrix   Atomic            Coordinates (in bohr)
  Symbol    Number           X              Y              Z
 ----------------------------------------------------------------
     C         6        -0.00000000     0.00000000     1.64977034
     O         8         0.00000000     0.00000000    -1.34121060
 ----------------------------------------------------------------
 
   Interatomic distance matrix (Angstroms) 
 
                 C             O    
                [ 1]        [ 2]
  C    [ 1]     0.00000
  O    [ 2]     1.58276     0.00000
 rotcon2
   Rotational constants (in cm-1): 
          0.9382140257             0.0000000000
   Rotational constants (in MHz): 
      28126.9528295413             0.0000000000
  ECPDATA file not present.   Using default ECPDATA. 
  @GTFLGS-I, Hessian will be transformed to curvilinear coordinates.
  There are  218 basis functions.
 @CHECKOUT-I, Total execution time (CPU/WALL):        0.26/       0.33 seconds.
--executable xjoda finished with status     0 in        0.38 seconds (walltime).
 --invoking executable--
/nfs/workspaces/public/cfour_mpi/bin/xvmol
 SERIAL VERSION OF MOLECULE STARTED
********************************************************************************
                    INPUT FROM MOL FILE
********************************************************************************
INTGRL        1    0    1    0    0    0    0    0    0                         
         *** CFOUR Program System (Release V0.1) ***                            
Carbon Monoxide DBOC calculation                                                
    2    2 X  Y       0.10E-08              0    0                              
   9999.00      3.00                                                            
          6.00000000    1    5    1    1    1    1    1                         
C #1  -0.000000000000000   0.000000000000000   1.649770338508022                
   16    9                                                                      
   33980.0000000000       9.100000000000000E-005 -1.900000000000000E-005        
  0.000000000000000E+000  0.000000000000000E+000  0.000000000000000E+000        
  0.000000000000000E+000  0.000000000000000E+000  0.000000000000000E+000        
  0.000000000000000E+000                                                        
   5089.00000000000       7.040000000000000E-004 -1.510000000000000E-004        
  0.000000000000000E+000  0.000000000000000E+000  0.000000000000000E+000        
  0.000000000000000E+000  0.000000000000000E+000  0.000000000000000E+000        
  0.000000000000000E+000                                                        
   1157.00000000000       3.693000000000000E-003 -7.850000000000000E-004        
  0.000000000000000E+000  0.000000000000000E+000  0.000000000000000E+000        
  0.000000000000000E+000  0.000000000000000E+000  0.000000000000000E+000        
  0.000000000000000E+000                                                        
   326.600000000000       1.536000000000000E-002 -3.324000000000000E-003        
  0.000000000000000E+000  0.000000000000000E+000  0.000000000000000E+000        
  0.000000000000000E+000  0.000000000000000E+000  0.000000000000000E+000        
  0.000000000000000E+000                                                        
   106.100000000000       5.292900000000000E-002 -1.151200000000000E-002        
  0.000000000000000E+000  0.000000000000000E+000  0.000000000000000E+000        
  0.000000000000000E+000  0.000000000000000E+000  0.000000000000000E+000        
  0.000000000000000E+000                                                        
   38.1100000000000       0.147043000000000      -3.416000000000000E-002        
  0.000000000000000E+000  0.000000000000000E+000  0.000000000000000E+000        
  0.000000000000000E+000  0.000000000000000E+000  0.000000000000000E+000        
  0.000000000000000E+000                                                        
   14.7500000000000       0.305631000000000      -7.717300000000001E-002        
  0.000000000000000E+000  0.000000000000000E+000  0.000000000000000E+000        
  0.000000000000000E+000  0.000000000000000E+000  0.000000000000000E+000        
  0.000000000000000E+000                                                        
   6.03500000000000       0.399345000000000      -0.141493000000000             
  0.000000000000000E+000  0.000000000000000E+000  0.000000000000000E+000        
  0.000000000000000E+000  0.000000000000000E+000  0.000000000000000E+000        
  0.000000000000000E+000                                                        
   2.53000000000000       0.217051000000000      -0.118019000000000             
  0.000000000000000E+000  0.000000000000000E+000  0.000000000000000E+000        
  0.000000000000000E+000  0.000000000000000E+000  0.000000000000000E+000        
  0.000000000000000E+000                                                        
  0.735500000000000       1.589400000000000E-002  0.273806000000000             
   1.00000000000000       0.000000000000000E+000  0.000000000000000E+000        
  0.000000000000000E+000  0.000000000000000E+000  0.000000000000000E+000        
  0.000000000000000E+000                                                        
  0.290500000000000      -3.084000000000000E-003  0.586510000000000             
  0.000000000000000E+000   1.00000000000000       0.000000000000000E+000        
  0.000000000000000E+000  0.000000000000000E+000  0.000000000000000E+000        
  0.000000000000000E+000                                                        
  0.111100000000000       9.779999999999999E-004  0.285430000000000             
  0.000000000000000E+000  0.000000000000000E+000   1.00000000000000             
  0.000000000000000E+000  0.000000000000000E+000  0.000000000000000E+000        
  0.000000000000000E+000                                                        
   7.21600000000000       0.000000000000000E+000  0.000000000000000E+000        
  0.000000000000000E+000  0.000000000000000E+000  0.000000000000000E+000        
   1.00000000000000       0.000000000000000E+000  0.000000000000000E+000        
  0.000000000000000E+000                                                        
   19.5700000000000       0.000000000000000E+000  0.000000000000000E+000        
  0.000000000000000E+000  0.000000000000000E+000  0.000000000000000E+000        
  0.000000000000000E+000   1.00000000000000       0.000000000000000E+000        
  0.000000000000000E+000                                                        
   53.0730000000000       0.000000000000000E+000  0.000000000000000E+000        
  0.000000000000000E+000  0.000000000000000E+000  0.000000000000000E+000        
  0.000000000000000E+000  0.000000000000000E+000   1.00000000000000             
  0.000000000000000E+000                                                        
  4.145000000000000E-002  0.000000000000000E+000  0.000000000000000E+000        
  0.000000000000000E+000  0.000000000000000E+000  0.000000000000000E+000        
  0.000000000000000E+000  0.000000000000000E+000  0.000000000000000E+000        
   1.00000000000000                                                             
   10    8                                                                      
   34.5100000000000       5.378000000000000E-003  0.000000000000000E+000        
  0.000000000000000E+000  0.000000000000000E+000  0.000000000000000E+000        
  0.000000000000000E+000  0.000000000000000E+000  0.000000000000000E+000        
   7.91500000000000       3.613200000000000E-002  0.000000000000000E+000        
  0.000000000000000E+000  0.000000000000000E+000  0.000000000000000E+000        
  0.000000000000000E+000  0.000000000000000E+000  0.000000000000000E+000        
   2.36800000000000       0.142493000000000       0.000000000000000E+000        
  0.000000000000000E+000  0.000000000000000E+000  0.000000000000000E+000        
  0.000000000000000E+000  0.000000000000000E+000  0.000000000000000E+000        
  0.813200000000000       0.342150000000000        1.00000000000000             
  0.000000000000000E+000  0.000000000000000E+000  0.000000000000000E+000        
  0.000000000000000E+000  0.000000000000000E+000  0.000000000000000E+000        
  0.289000000000000       0.463864000000000       0.000000000000000E+000        
   1.00000000000000       0.000000000000000E+000  0.000000000000000E+000        
  0.000000000000000E+000  0.000000000000000E+000  0.000000000000000E+000        
  0.100700000000000       0.250028000000000       0.000000000000000E+000        
  0.000000000000000E+000   1.00000000000000       0.000000000000000E+000        
  0.000000000000000E+000  0.000000000000000E+000  0.000000000000000E+000        
   8.18200000000000       0.000000000000000E+000  0.000000000000000E+000        
  0.000000000000000E+000  0.000000000000000E+000   1.00000000000000             
  0.000000000000000E+000  0.000000000000000E+000  0.000000000000000E+000        
   24.1860000000000       0.000000000000000E+000  0.000000000000000E+000        
  0.000000000000000E+000  0.000000000000000E+000  0.000000000000000E+000        
   1.00000000000000       0.000000000000000E+000  0.000000000000000E+000        
   71.4940000000000       0.000000000000000E+000  0.000000000000000E+000        
  0.000000000000000E+000  0.000000000000000E+000  0.000000000000000E+000        
  0.000000000000000E+000   1.00000000000000       0.000000000000000E+000        
  3.218000000000000E-002  0.000000000000000E+000  0.000000000000000E+000        
  0.000000000000000E+000  0.000000000000000E+000  0.000000000000000E+000        
  0.000000000000000E+000  0.000000000000000E+000   1.00000000000000             
    6    6                                                                      
   1.84800000000000        1.00000000000000       0.000000000000000E+000        
  0.000000000000000E+000  0.000000000000000E+000  0.000000000000000E+000        
  0.000000000000000E+000                                                        
  0.649000000000000       0.000000000000000E+000   1.00000000000000             
  0.000000000000000E+000  0.000000000000000E+000  0.000000000000000E+000        
  0.000000000000000E+000                                                        
  0.228000000000000       0.000000000000000E+000  0.000000000000000E+000        
   1.00000000000000       0.000000000000000E+000  0.000000000000000E+000        
  0.000000000000000E+000                                                        
   8.65600000000000       0.000000000000000E+000  0.000000000000000E+000        
  0.000000000000000E+000   1.00000000000000       0.000000000000000E+000        
  0.000000000000000E+000                                                        
   33.2130000000000       0.000000000000000E+000  0.000000000000000E+000        
  0.000000000000000E+000  0.000000000000000E+000   1.00000000000000             
  0.000000000000000E+000                                                        
  7.660000000000000E-002  0.000000000000000E+000  0.000000000000000E+000        
  0.000000000000000E+000  0.000000000000000E+000  0.000000000000000E+000        
   1.00000000000000                                                             
    4    4                                                                      
   1.41900000000000        1.00000000000000       0.000000000000000E+000        
  0.000000000000000E+000  0.000000000000000E+000                                
  0.485000000000000       0.000000000000000E+000   1.00000000000000             
  0.000000000000000E+000  0.000000000000000E+000                                
   24.6940000000000       0.000000000000000E+000  0.000000000000000E+000        
   1.00000000000000       0.000000000000000E+000                                
  0.187000000000000       0.000000000000000E+000  0.000000000000000E+000        
  0.000000000000000E+000   1.00000000000000                                     
    2    2                                                                      
   1.01100000000000        1.00000000000000       0.000000000000000E+000        
  0.424000000000000       0.000000000000000E+000   1.00000000000000             
          8.00000000    1    5    1    1    1    1    1                         
O #2   0.000000000000000   0.000000000000000  -1.341210602824577                
   16    9                                                                      
   61420.0000000000       9.000000000000001E-005 -2.000000000000000E-005        
  0.000000000000000E+000  0.000000000000000E+000  0.000000000000000E+000        
  0.000000000000000E+000  0.000000000000000E+000  0.000000000000000E+000        
  0.000000000000000E+000                                                        
   9199.00000000000       6.980000000000001E-004 -1.590000000000000E-004        
  0.000000000000000E+000  0.000000000000000E+000  0.000000000000000E+000        
  0.000000000000000E+000  0.000000000000000E+000  0.000000000000000E+000        
  0.000000000000000E+000                                                        
   2091.00000000000       3.664000000000000E-003 -8.290000000000000E-004        
  0.000000000000000E+000  0.000000000000000E+000  0.000000000000000E+000        
  0.000000000000000E+000  0.000000000000000E+000  0.000000000000000E+000        
  0.000000000000000E+000                                                        
   590.900000000000       1.521800000000000E-002 -3.508000000000000E-003        
  0.000000000000000E+000  0.000000000000000E+000  0.000000000000000E+000        
  0.000000000000000E+000  0.000000000000000E+000  0.000000000000000E+000        
  0.000000000000000E+000                                                        
   192.300000000000       5.242300000000000E-002 -1.215600000000000E-002        
  0.000000000000000E+000  0.000000000000000E+000  0.000000000000000E+000        
  0.000000000000000E+000  0.000000000000000E+000  0.000000000000000E+000        
  0.000000000000000E+000                                                        
   69.3200000000000       0.145921000000000      -3.626100000000000E-002        
  0.000000000000000E+000  0.000000000000000E+000  0.000000000000000E+000        
  0.000000000000000E+000  0.000000000000000E+000  0.000000000000000E+000        
  0.000000000000000E+000                                                        
   26.9700000000000       0.305258000000000      -8.299200000000000E-002        
  0.000000000000000E+000  0.000000000000000E+000  0.000000000000000E+000        
  0.000000000000000E+000  0.000000000000000E+000  0.000000000000000E+000        
  0.000000000000000E+000                                                        
   11.1000000000000       0.398508000000000      -0.152090000000000             
  0.000000000000000E+000  0.000000000000000E+000  0.000000000000000E+000        
  0.000000000000000E+000  0.000000000000000E+000  0.000000000000000E+000        
  0.000000000000000E+000                                                        
   4.68200000000000       0.216980000000000      -0.115331000000000             
  0.000000000000000E+000  0.000000000000000E+000  0.000000000000000E+000        
  0.000000000000000E+000  0.000000000000000E+000  0.000000000000000E+000        
  0.000000000000000E+000                                                        
   1.42800000000000       1.759400000000000E-002  0.288979000000000             
   1.00000000000000       0.000000000000000E+000  0.000000000000000E+000        
  0.000000000000000E+000  0.000000000000000E+000  0.000000000000000E+000        
  0.000000000000000E+000                                                        
  0.554700000000000      -2.502000000000000E-003  0.586128000000000             
  0.000000000000000E+000   1.00000000000000       0.000000000000000E+000        
  0.000000000000000E+000  0.000000000000000E+000  0.000000000000000E+000        
  0.000000000000000E+000                                                        
  0.206700000000000       9.540000000000000E-004  0.277624000000000             
  0.000000000000000E+000  0.000000000000000E+000   1.00000000000000             
  0.000000000000000E+000  0.000000000000000E+000  0.000000000000000E+000        
  0.000000000000000E+000                                                        
   12.9740000000000       0.000000000000000E+000  0.000000000000000E+000        
  0.000000000000000E+000  0.000000000000000E+000  0.000000000000000E+000        
   1.00000000000000       0.000000000000000E+000  0.000000000000000E+000        
  0.000000000000000E+000                                                        
   34.9000000000000       0.000000000000000E+000  0.000000000000000E+000        
  0.000000000000000E+000  0.000000000000000E+000  0.000000000000000E+000        
  0.000000000000000E+000   1.00000000000000       0.000000000000000E+000        
  0.000000000000000E+000                                                        
   93.8810000000000       0.000000000000000E+000  0.000000000000000E+000        
  0.000000000000000E+000  0.000000000000000E+000  0.000000000000000E+000        
  0.000000000000000E+000  0.000000000000000E+000   1.00000000000000             
  0.000000000000000E+000                                                        
  6.959000000000000E-002  0.000000000000000E+000  0.000000000000000E+000        
  0.000000000000000E+000  0.000000000000000E+000  0.000000000000000E+000        
  0.000000000000000E+000  0.000000000000000E+000  0.000000000000000E+000        
   1.00000000000000                                                             
   10    8                                                                      
   63.4200000000000       6.044000000000000E-003  0.000000000000000E+000        
  0.000000000000000E+000  0.000000000000000E+000  0.000000000000000E+000        
  0.000000000000000E+000  0.000000000000000E+000  0.000000000000000E+000        
   14.6600000000000       4.179900000000000E-002  0.000000000000000E+000        
  0.000000000000000E+000  0.000000000000000E+000  0.000000000000000E+000        
  0.000000000000000E+000  0.000000000000000E+000  0.000000000000000E+000        
   4.45900000000000       0.161143000000000       0.000000000000000E+000        
  0.000000000000000E+000  0.000000000000000E+000  0.000000000000000E+000        
  0.000000000000000E+000  0.000000000000000E+000  0.000000000000000E+000        
   1.53100000000000       0.356731000000000        1.00000000000000             
  0.000000000000000E+000  0.000000000000000E+000  0.000000000000000E+000        
  0.000000000000000E+000  0.000000000000000E+000  0.000000000000000E+000        
  0.530200000000000       0.448309000000000       0.000000000000000E+000        
   1.00000000000000       0.000000000000000E+000  0.000000000000000E+000        
  0.000000000000000E+000  0.000000000000000E+000  0.000000000000000E+000        
  0.175000000000000       0.244940000000000       0.000000000000000E+000        
  0.000000000000000E+000   1.00000000000000       0.000000000000000E+000        
  0.000000000000000E+000  0.000000000000000E+000  0.000000000000000E+000        
   14.4750000000000       0.000000000000000E+000  0.000000000000000E+000        
  0.000000000000000E+000  0.000000000000000E+000   1.00000000000000             
  0.000000000000000E+000  0.000000000000000E+000  0.000000000000000E+000        
   42.7300000000000       0.000000000000000E+000  0.000000000000000E+000        
  0.000000000000000E+000  0.000000000000000E+000  0.000000000000000E+000        
   1.00000000000000       0.000000000000000E+000  0.000000000000000E+000        
   126.140000000000       0.000000000000000E+000  0.000000000000000E+000        
  0.000000000000000E+000  0.000000000000000E+000  0.000000000000000E+000        
  0.000000000000000E+000   1.00000000000000       0.000000000000000E+000        
  5.348000000000000E-002  0.000000000000000E+000  0.000000000000000E+000        
  0.000000000000000E+000  0.000000000000000E+000  0.000000000000000E+000        
  0.000000000000000E+000  0.000000000000000E+000   1.00000000000000             
    6    6                                                                      
   3.77500000000000        1.00000000000000       0.000000000000000E+000        
  0.000000000000000E+000  0.000000000000000E+000  0.000000000000000E+000        
  0.000000000000000E+000                                                        
   1.30000000000000       0.000000000000000E+000   1.00000000000000             
  0.000000000000000E+000  0.000000000000000E+000  0.000000000000000E+000        
  0.000000000000000E+000                                                        
  0.444000000000000       0.000000000000000E+000  0.000000000000000E+000        
   1.00000000000000       0.000000000000000E+000  0.000000000000000E+000        
  0.000000000000000E+000                                                        
   14.9270000000000       0.000000000000000E+000  0.000000000000000E+000        
  0.000000000000000E+000   1.00000000000000       0.000000000000000E+000        
  0.000000000000000E+000                                                        
   57.5440000000000       0.000000000000000E+000  0.000000000000000E+000        
  0.000000000000000E+000  0.000000000000000E+000   1.00000000000000             
  0.000000000000000E+000                                                        
  0.154000000000000       0.000000000000000E+000  0.000000000000000E+000        
  0.000000000000000E+000  0.000000000000000E+000  0.000000000000000E+000        
   1.00000000000000                                                             
    4    4                                                                      
   2.66600000000000        1.00000000000000       0.000000000000000E+000        
  0.000000000000000E+000  0.000000000000000E+000                                
  0.859000000000000       0.000000000000000E+000   1.00000000000000             
  0.000000000000000E+000  0.000000000000000E+000                                
   26.4830000000000       0.000000000000000E+000  0.000000000000000E+000        
   1.00000000000000       0.000000000000000E+000                                
  0.324000000000000       0.000000000000000E+000  0.000000000000000E+000        
  0.000000000000000E+000   1.00000000000000                                     
    2    2                                                                      
   1.84600000000000        1.00000000000000       0.000000000000000E+000        
  0.714000000000000       0.000000000000000E+000   1.00000000000000             
FINISH                                                                          
 
********************************************************************************
 ONE- AND TWO-ELECTRON INTEGRALS OVER SYMMETRY-ADAPTED AOS ARE CALCULATED.

  SPHERICAL HARMONICS ARE USED.
  
  INTEGRALS LESS THAN  0.10E-13 ARE NEGLECTED.

  NUCLEAR REPULSION ENERGY :   16.0482466928 A.U.
  @MOLECU-I, ONE ELECTRON INTEGRALS (CPU/WALL):        0.05/       0.07 SECONDS.
  @TWOEL-I,    4439157 INTEGRALS OF SYMMETRY TYPE  I I I I
  @TWOEL-I,   19151769 INTEGRALS OF SYMMETRY TYPE  I J I J
  @TWOEL-I,   10083863 INTEGRALS OF SYMMETRY TYPE  I I J J
  @TWOEL-I,   14156321 INTEGRALS OF SYMMETRY TYPE  I J K L
  @TWOEL-I, TOTAL NUMBER OF 2-E INTEGRALS   47831110.
  @MOLECU-I, TWO ELECTRON INTEGRALS (CPU/WALL):      239.74/      32.88 SECONDS.
 @CHECKOUT-I, Total execution time (CPU/WALL):      239.82/      32.99 seconds.

Running with 14 threads/proc

--executable xvmol finished with status     0 in       33.12 seconds (walltime).
 --invoking executable--
/nfs/workspaces/public/cfour_mpi/bin/xvmol2ja
 @GETMEM-I,  Allocated    3814 MB of main memory.
 @CHECKOUT-I, Total execution time (CPU/WALL):        0.23/       0.10 seconds.
--executable xvmol2ja finished with status     0 in        0.12 seconds (walltime).
 --invoking executable--
/nfs/workspaces/public/cfour_mpi/bin/xvprop
 @GETMEM-I,  Allocated    3814 MB of main memory.
   Property integrals will be calculated.
    --------------------------------------------------------------
                                   Property evaluated at 
    Property type                X             Y             Z
    --------------------------------------------------------------
    Dipole moment               ----          ----          ----  
    Quadrupole moment           ----          ----          ----  
    Octopole moment             ----          ----          ----  
    Relativisitic corr.         ----          ----          ----  
    Second moment            0.0000000     0.0000000     0.0000000
    Electron density         0.0000000     0.0000000     1.6497703
    Electron density         0.0000000     0.0000000    -1.3412106
    Field gradient           0.0000000     0.0000000     1.6497703
    Field gradient           0.0000000     0.0000000    -1.3412106
    Potential                0.0000000     0.0000000     1.6497703
    Potential                0.0000000     0.0000000    -1.3412106
    --------------------------------------------------------------
 @CHECKOUT-I, Total execution time (CPU/WALL):        1.31/       1.36 seconds.
--executable xvprop finished with status     0 in        1.39 seconds (walltime).
 --invoking executable--
/nfs/workspaces/public/cfour_mpi/bin/xvscf
  There are  218 functions in the AO basis.

  There are 4 irreducible representations.

       Irrep        # of functions
         1                 86
         2                 52
         3                 52
         4                 28


  Parameters for SCF calculation: 
        SCF reference function:  RHF  
  Maximum number of iterations:  150
     Full symmetry point group: CXv 
     Computational point group: C2v 
        Initial density matrix: MOREAD                 
     SCF convergence tolerance: 10**(-10)
  DIIS convergence acceleration:  ON
          Latest start for DIIS:   8
                     DIIS order:   6

  Memory information:    2523578 words required.
  Fock matrices are constructed from AO integral file.
 @GETMEM-I,  Allocated      19 MB of main memory.
  Initialization and symmetry analysis required      0.001 seconds.

  Adding electric field perturbation to one-electron Hamiltonian.
  Field direction     : Z
  Field strength      : -0.0002000 a.u.

  @INITGES-I, Occupancies from core Hamiltonian:

          Alpha population by irrep:   5    1    1    0
           Beta population by irrep:   5    1    1    0


 total no. of electrons in initial guess :  0.000000000000000E+000
  --------------------------------------------------------------------
  Iteration         Total Energy            Largest Density Difference
  --------------------------------------------------------------------
       0            16.048080480252572              0.0000000000D+00
   current occupation vector 
     5  1  1  0
     5  1  1  0
       1           -93.567377959798335              0.1754659633D+02
   current occupation vector 
     5  1  1  0
     5  1  1  0
       2           -98.047542003115694              0.1754657916D+02
   current occupation vector 
     5  1  1  0
     5  1  1  0
       3          -100.524828773807428              0.6606116738D+01
   current occupation vector 
     5  1  1  0
     5  1  1  0
       4           -95.473569231816072              0.6601042655D+01
   current occupation vector 
     5  1  1  0
     5  1  1  0
       5          -100.344991343222375              0.6941979431D+01
   current occupation vector 
     5  1  1  0
     5  1  1  0
       6           -95.214282147104285              0.6942516856D+01
   current occupation vector 
     5  1  1  0
     5  1  1  0
       7          -100.332757506925844              0.6961569816D+01
   current occupation vector 
     5  1  1  0
     5  1  1  0
       8           -95.205767364673619              0.6961611286D+01
   current occupation vector 
     5  1  1  0
     5  1  1  0
       9          -107.474541612059539              0.5797296632D+01
   current occupation vector 
     5  1  1  0
     5  1  1  0
      10          -110.437766178768015              0.1308129218D+01
   current occupation vector 
     5  1  1  0
     5  1  1  0
      11          -112.388531176479006              0.1101003744D+01
   current occupation vector 
     5  1  1  0
     5  1  1  0
      12          -112.527312854260288              0.4821686802D+00
   current occupation vector 
     5  1  1  0
     5  1  1  0
      13          -112.539815922997718              0.1263287701D+00
   current occupation vector 
     5  1  1  0
     5  1  1  0
      14          -112.543756857515064              0.7526672100D-01
   current occupation vector 
     5  1  1  0
     5  1  1  0
      15          -112.544034796240396              0.2059576278D-01
   current occupation vector 
     5  1  1  0
     5  1  1  0
      16          -112.544252508696786              0.2684210620D-01
   current occupation vector 
     5  1  1  0
     5  1  1  0
      17          -112.544331330993145              0.1879104505D-01
   current occupation vector 
     5  1  1  0
     5  1  1  0
      18          -112.544346680586330              0.1079948582D-01
   current occupation vector 
     5  1  1  0
     5  1  1  0
      19          -112.544346813345044              0.9430087850D-03
   current occupation vector 
     5  1  1  0
     5  1  1  0
      20          -112.544346814289923              0.4432369308D-04
   current occupation vector 
     5  1  1  0
     5  1  1  0
      21          -112.544346814362115              0.1129678899D-04
   current occupation vector 
     5  1  1  0
     5  1  1  0
      22          -112.544346814362910              0.1782893956D-05
   current occupation vector 
     5  1  1  0
     5  1  1  0
      23          -112.544346814362797              0.4500673841D-06
   current occupation vector 
     5  1  1  0
     5  1  1  0
      24          -112.544346814362456              0.1832447503D-06
   current occupation vector 
     5  1  1  0
     5  1  1  0
      25          -112.544346814360381              0.5041087081D-07
   current occupation vector 
     5  1  1  0
     5  1  1  0
      26          -112.544346814362996              0.1050373677D-07
   current occupation vector 
     5  1  1  0
     5  1  1  0
      27          -112.544346814362171              0.4455059210D-08
   current occupation vector 
     5  1  1  0
     5  1  1  0
      28          -112.544346814361887              0.7884093378D-09
   current occupation vector 
     5  1  1  0
     5  1  1  0
      29          -112.544346814362683              0.1444442621D-09
   current occupation vector 
     5  1  1  0
     5  1  1  0

  SCF has converged.

 Density matrix saved to file den.dat
 total electron number:   14.0000000000000     
     E(SCF)=      -112.544346814360267              0.7616174358D-10

  Eigenvector printing suppressed.

 @PUTMOS-I, Writing converged MOs to NEWMOS. 
 @PUTMOS-I, Symmetry   1 Full Blocks 21 Partial Blocksize   2
 @PUTMOS-I, Symmetry   2 Full Blocks 13 Partial Blocksize   0
 @PUTMOS-I, Symmetry   3 Full Blocks 13 Partial Blocksize   0
 @PUTMOS-I, Symmetry   4 Full Blocks  7 Partial Blocksize   0
 @PUTFOCK-I, Writing converged Fock matrix to NEWFOCK. 
 @PUTFOCK-I, Symmetry   1 Full Blocks 21 Partial Blocksize   2
 @PUTFOCK-I, Symmetry   2 Full Blocks 13 Partial Blocksize   0
 @PUTFOCK-I, Symmetry   3 Full Blocks 13 Partial Blocksize   0
 @PUTFOCK-I, Symmetry   4 Full Blocks  7 Partial Blocksize   0


 
  ORBITAL EIGENVALUES (ALPHA)  (1H = 27.2113834 eV)

       MO #        E(hartree)               E(eV)           FULLSYM    COMPSYM
       ----   --------------------   --------------------   -------   ---------
    1     1         -20.6471069119        -561.8363422797     SG+        A1 (1)
    2     2         -11.5189066618        -313.4453855219     SG+        A1 (1)
    3     3          -1.2831492537         -34.9162663018     SG+        A1 (1)
    4     4          -0.8038947854         -21.8750892182     SG+        A1 (1)
    5     5          -0.5342879452         -14.5387141218     SG+        A1 (1)
    6    87          -0.5006458611         -13.6232664737      PI        B1 (2)
    7   139          -0.5006458611         -13.6232664737      PI        B2 (3)
  +++++++++++++++++++++++++++++++++++++++++++++++++++++++++++++++++++++++++++++
    8   140          -0.0039216093          -0.1067124151      PI        B2 (3)
    9    88          -0.0039216093          -0.1067124151      PI        B1 (2)
   10     6           0.0594262302           1.6170699334     SG+        A1 (1)
   11     7           0.0690159755           1.8780201710     SG+        A1 (1)
   12   141           0.0817759543           2.2252368445      PI        B2 (3)
   13    89           0.0817759543           2.2252368445      PI        B1 (2)
   14     8           0.1574315756           4.2839309632     SG+        A1 (1)
   15   142           0.1795482805           4.8857570989      PI        B2 (3)
   16    90           0.1795482805           4.8857570989      PI        B1 (2)
   17     9           0.2013032406           5.4777396583     SG+        A1 (1)
   18    10           0.2219403573           6.0393041538      DE        A1 (1)
   19   191           0.2219403573           6.0393041538      DE        A2 (4)
   20   143           0.2855147433           7.7692511457      PI        B2 (3)
   21    91           0.2855147433           7.7692511457      PI        B1 (2)
   22    11           0.3009128367           8.1882545702     SG+        A1 (1)
   23    12           0.3160259636           8.5995036588     SG+        A1 (1)
   24   144           0.4045016176          11.0070486025      PI        B2 (3)
   25    92           0.4045016176          11.0070486025      PI        B1 (2)
   26    13           0.4220347794          11.4841501904     SG+        A1 (1)
   27    14           0.5135579293          13.9746217122     SG+        A1 (1)
   28   192           0.5499629000          14.9652513271      DE        A2 (4)
   29    15           0.5499629000          14.9652513271      DE        A1 (1)
   30    93           0.6234833018          16.9658431699      PI        B1 (2)
   31   145           0.6234833018          16.9658431699      PI        B2 (3)
   32    16           0.7061972242          19.2166034238     SG+        A1 (1)
   33    94           0.7318841643          19.9155806002      PH        B1 (2)
   34   146           0.7318841643          19.9155806002      PH        B2 (3)
   35   193           0.7392279163          20.1154142511      DE        A2 (4)
   36    17           0.7392279163          20.1154142511      DE        A1 (1)
   37   147           0.7769353821          21.1414865603      PI        B2 (3)
   38    95           0.7769353821          21.1414865603      PI        B1 (2)
   39    18           0.8196123535          22.3027859904     SG+        A1 (1)
   40   194           0.8600429202          23.4029576423      DE        A2 (4)
   41    19           0.8600429202          23.4029576423      DE        A1 (1)
   42    20           0.8835965822          24.0438853700     SG+        A1 (1)
   43    96           0.8854231491          24.0935887823      PI        B1 (2)
   44   148           0.8854231491          24.0935887824      PI        B2 (3)
   45    97           1.0389468326          28.2711805946      PI        B1 (2)
   46   149           1.0389468326          28.2711805946      PI        B2 (3)
   47    21           1.1321482869          30.8073211013     SG+        A1 (1)
   48    22           1.3630846873          37.0914200337     SG+        A1 (1)
   49   150           1.4213337672          38.6764580776      PH        B2 (3)
   50    98           1.4213337672          38.6764580776      PH        B1 (2)
   51    99           1.4922935241          40.6073712301      PI        B1 (2)
   52   151           1.4922935241          40.6073712301      PI        B2 (3)
   53    23           1.5841260687          43.1062618105      DE        A1 (1)
   54   195           1.5841260687          43.1062618105      DE        A2 (4)
   55    24           1.5928057202          43.3424471341     SG+        A1 (1)
   56   100           1.6385241900          44.5865099438      PI        B1 (2)
   57   152           1.6385241900          44.5865099438      PI        B2 (3)
   58    25           1.6792506792          45.6947340573      DE        A1 (1)
   59   196           1.6792506792          45.6947340573      DE        A2 (4)
   60    26           1.9184957007          52.2049220635     SG+        A1 (1)
   61    27           1.9546245421          53.1880378184     SG+        A1 (1)
   62   197           2.0685022081          56.2868066482      PI        A2 (4)
   63    28           2.0685022081          56.2868066482      PI        A1 (1)
   64   101           2.0736037757          56.4256273599      PI        B1 (2)
   65   153           2.0736037757          56.4256273599      PI        B2 (3)
   66    29           2.1268977761          57.8758308387      DE        A1 (1)
   67   198           2.1268977761          57.8758308387      DE        A2 (4)
   68   102           2.2040516452          59.9752943510      PH        B1 (2)
   69   154           2.2040516452          59.9752943510      PH        B2 (3)
   70   155           2.2126005655          60.2079222983      PH        B2 (3)
   71   103           2.2126005655          60.2079222983      PH        B1 (2)
   72    30           2.2222198360          60.4696759577     SG+        A1 (1)
   73   104           2.2249932240          60.5451436819      PI        B1 (2)
   74   156           2.2249932240          60.5451436819      PI        B2 (3)
   75    31           2.2850575482          62.1795770360      DE        A1 (1)
   76   199           2.2850575482          62.1795770360      DE        A2 (4)
   77    32           2.4019288339          65.3598063999     SG+        A1 (1)
   78   157           2.5104105088          68.3117428452      PI        B2 (3)
   79   105           2.5104105088          68.3117428452      PI        B1 (2)
   80   106           2.5943461931          70.5957489329      PI        B1 (2)
   81   158           2.5943461931          70.5957489330      PI        B2 (3)
   82    33           2.6323582374          71.6301092442     SG+        A1 (1)
   83    34           2.6449776353          71.9735005179      DE        A1 (1)
   84   200           2.6449776353          71.9735005179      DE        A2 (4)
   85    35           2.9376933794          79.9387008574     SG+        A1 (1)
   86   107           3.3961050657          92.4127170086      PI        B1 (2)
   87   159           3.3961050657          92.4127170086      PI        B2 (3)
   88    36           3.7085169336         100.9138761256      PI        A1 (1)
   89   201           3.7085169336         100.9138761256      PI        A2 (4)
   90    37           3.8955142754         106.0023324871     SG+        A1 (1)
   91   160           3.9183732073         106.6243556478      PH        B2 (3)
   92   108           3.9183732073         106.6243556478      PH        B1 (2)
   93    38           4.1242672915         112.2270185128     SG+        A1 (1)
   94   109           4.1383359419         112.6098459523      PH        B1 (2)
   95   161           4.1383359419         112.6098459523      PH        B2 (3)
   96   110           4.1566816159         113.1090571210      PI        B1 (2)
   97   162           4.1566816159         113.1090571211      PI        B2 (3)
   98   202           4.1839472671         113.8509932109      DE        A2 (4)
   99    39           4.1839472671         113.8509932109      DE        A1 (1)
  100    40           4.2922199194         116.7972418647      DE        A1 (1)
  101   203           4.2922199194         116.7972418647      DE        A2 (4)
  102    41           4.4070764952         119.9226481834     SG+        A1 (1)
  103   111           4.5375886622         123.4740647991      PI        B1 (2)
  104   163           4.5375886622         123.4740647991      PI        B2 (3)
  105   204           4.6814718427         127.3893251873      DE        A2 (4)
  106    42           4.6814718427         127.3893251873      DE        A1 (1)
  107    43           4.7748149237         129.9293195525     SG+        A1 (1)
  108   164           5.1582245763         140.3624266095      PI        B2 (3)
  109   112           5.1582245763         140.3624266095      PI        B1 (2)
  110    44           5.2255116949         142.1934021906     SG+        A1 (1)
  111   113           5.3439620418         145.4165999935      PI        B1 (2)
  112   165           5.3439620418         145.4165999936      PI        B2 (3)
  113   205           5.8279163736         158.5856668658      PI        A2 (4)
  114    45           5.8279163736         158.5856668658      PI        A1 (1)
  115   166           5.8999105527         160.5447280766      PH        B2 (3)
  116   114           5.8999105528         160.5447280766      PH        B1 (2)
  117    46           6.0411141788         164.3870740831     SG+        A1 (1)
  118    47           6.1019149405         166.0415469203      DE        A1 (1)
  119   206           6.1019149405         166.0415469203      DE        A2 (4)
  120   115           6.1298723903         166.8023078050      PI        B1 (2)
  121   167           6.1298723903         166.8023078050      PI        B2 (3)
  122    48           6.1853985921         168.3132525711     SG+        A1 (1)
  123   207           6.3157066261         171.8591144451      DE        A2 (4)
  124    49           6.3157066261         171.8591144451      DE        A1 (1)
  125   168           6.3545942795         172.9173012907      PH        B2 (3)
  126   116           6.3545942795         172.9173012907      PH        B1 (2)
  127   208           6.4886657560         176.5655716406      DE        A2 (4)
  128    50           6.4886657560         176.5655716406      DE        A1 (1)
  129   117           6.7895704875         184.7536056564      PI        B1 (2)
  130   169           6.7895704875         184.7536056564      PI        B2 (3)
  131    51           7.0952086073         193.0704417157     SG+        A1 (1)
  132   170           7.2575584282         197.4882049372      PI        B2 (3)
  133   118           7.2575584282         197.4882049373      PI        B1 (2)
  134    52           7.8212013285         212.8257079982     SG+        A1 (1)
  135    53           9.5594070822         260.1246911895     SG+        A1 (1)
  136   171           9.7336243973         264.8653853459      PI        B2 (3)
  137   119           9.7336243973         264.8653853461      PI        B1 (2)
  138   209          10.6544524516         289.9223905762      PI        A2 (4)
  139    54          10.6544524516         289.9223905762      PI        A1 (1)
  140    55          10.6835009556         290.7128405576     SG+        A1 (1)
  141   172          10.7371321363         292.1722191781      PH        B2 (3)
  142   120          10.7371321363         292.1722191781      PH        B1 (2)
  143   210          10.9630603405         298.3200381621      DE        A2 (4)
  144    56          10.9630603405         298.3200381621      DE        A1 (1)
  145   121          10.9760366797         298.6731423035      PI        B1 (2)
  146   173          10.9760366797         298.6731423035      PI        B2 (3)
  147    57          11.1610436720         303.7074385031     SG+        A1 (1)
  148   122          11.8916060513         323.5870515044      PH        B1 (2)
  149   174          11.8916060513         323.5870515044      PH        B2 (3)
  150    58          11.9919704613         326.3181059441      DE        A1 (1)
  151   211          11.9919704613         326.3181059441      DE        A2 (4)
  152   175          12.3554426554         336.2086871733      PI        B2 (3)
  153   123          12.3554426554         336.2086871733      PI        B1 (2)
  154    59          12.5910802037         342.6207108440     SG+        A1 (1)
  155   212          12.7282859476         346.3542689457      DE        A2 (4)
  156    60          12.7282859476         346.3542689458      DE        A1 (1)
  157   176          13.1042628440         356.5851204219      PI        B2 (3)
  158   124          13.1042628440         356.5851204219      PI        B1 (2)
  159    61          13.5176050357         367.8327332772     SG+        A1 (1)
  160    62          17.3464492884         472.0208822146     SG+        A1 (1)
  161   125          18.7230289829         509.4795200623      PI        B1 (2)
  162   177          18.7230289829         509.4795200626      PI        B2 (3)
  163    63          19.6790904344         535.4952747742     SG+        A1 (1)
  164    64          26.2593258282         714.5525829379      DE        A1 (1)
  165   213          26.2593258282         714.5525829379      DE        A2 (4)
  166   126          26.5604407462         722.7463364179      PI        B1 (2)
  167   178          26.5604407462         722.7463364179      PI        B2 (3)
  168    65          27.0286296150         735.4864032307     SG+        A1 (1)
  169   179          33.4308841757         909.7006067072      PI        B2 (3)
  170   127          33.4308841758         909.7006067074      PI        B1 (2)
  171    66          34.3174436095         933.8251153670     SG+        A1 (1)
  172    67          35.5889043054         968.4233198398     SG+        A1 (1)
  173   214          47.0732470699        1280.9281739009      DE        A2 (4)
  174    68          47.0732470699        1280.9281739010      DE        A1 (1)
  175   128          47.2616759412        1286.0555841615      PI        B1 (2)
  176   180          47.2616759412        1286.0555841616      PI        B2 (3)
  177    69          47.5004846435        1292.5538993212     SG+        A1 (1)
  178    70          63.7671962432        1735.1936253164     SG+        A1 (1)
  179   129          66.3067809619        1804.2992387752      PI        B1 (2)
  180   181          66.3067809619        1804.2992387754      PI        B2 (3)
  181    71          67.0084060640        1823.3914284302     SG+        A1 (1)
  182   182          98.5103181562        2680.6020362030      PH        B2 (3)
  183   130          98.5103181562        2680.6020362030      PH        B1 (2)
  184   215          98.5239690938        2680.9734971007      DE        A2 (4)
  185    72          98.5239690938        2680.9734971007      DE        A1 (1)
  186   131          98.5370711666        2681.3300226265      PI        B1 (2)
  187   183          98.5370711666        2681.3300226265      PI        B2 (3)
  188    73          98.5474528057        2681.6125213902     SG+        A1 (1)
  189   132         103.3101052080        2811.2108819084      PH        B1 (2)
  190   184         103.3101052080        2811.2108819084      PH        B2 (3)
  191   216         103.3103963228        2811.2188035448      DE        A2 (4)
  192    74         103.3103963229        2811.2188035474      DE        A1 (1)
  193   133         103.3374692775        2811.9554960960      PI        B1 (2)
  194   185         103.3374692775        2811.9554960960      PI        B2 (3)
  195    75         103.3449924926        2812.1602131854     SG+        A1 (1)
  196   217         114.9619893903        3128.2747697266      DE        A2 (4)
  197    76         114.9619893903        3128.2747697266      DE        A1 (1)
  198   186         115.1081793333        3132.2528003156      PI        B2 (3)
  199   134         115.1081793333        3132.2528003156      PI        B1 (2)
  200    77         115.3295408200        3138.2763525993     SG+        A1 (1)
  201   135         116.7338558539        3176.4897074011      PI        B1 (2)
  202   187         116.7338558539        3176.4897074012      PI        B2 (3)
  203    78         117.4507093077        3195.9962815732     SG+        A1 (1)
  204    79         121.8646852537        3316.1066733579     SG+        A1 (1)
  205   218         198.5548334870        5402.9516999370      DE        A2 (4)
  206    80         198.5548334870        5402.9516999371      DE        A1 (1)
  207   136         198.6576165704        5405.7485698260      PI        B1 (2)
  208   188         198.6576165704        5405.7485698261      PI        B2 (3)
  209    81         198.7802009172        5409.0842594883     SG+        A1 (1)
  210    82         216.2916814025        5885.5958688753     SG+        A1 (1)
  211   137         224.7880614646        6116.7941242572      PI        B1 (2)
  212   189         224.7880614646        6116.7941242573      PI        B2 (3)
  213    83         225.3404339892        6131.8249448029     SG+        A1 (1)
  214   138         395.2619532739       10755.6245539689      PI        B1 (2)
  215   190         395.2619532739       10755.6245539693      PI        B2 (3)
  216    84         395.8270597200       10771.0018821361     SG+        A1 (1)
  217    85         508.5962613701       13839.6078639486     SG+        A1 (1)
  218    86         895.1068144452       24357.0947118223     SG+        A1 (1)


  VSCF finished.

 @CHECKOUT-I, Total execution time (CPU/WALL):       54.51/      13.25 seconds.
--executable xvscf finished with status     0 in       13.28 seconds (walltime).
 --invoking executable--
/nfs/workspaces/public/cfour_mpi/bin/xvtran
 @GETMEM-I,  Allocated    3814 MB of main memory.
  Full RHF integral transformation
  Transformation of IIII integrals :
  1 pass through the AO integral file was required.
     4439157 AO integrals were read.
     8610478 MO integrals were written to HF2.
  Transformation of IIJJ integrals :
  1 pass through the AO integral file was required.
    10083863 AO integrals were read.
    14367149 MO integrals were written to HF2.
  Transformation of IJIJ integrals :
  1 pass through the AO integral file was required.
    19151769 AO integrals were read.
    26661805 MO integrals were written to HF2.
  Transformation of IJKL integrals :
  1 pass through the AO integral file was required.
    14156321 AO integrals were read.
    18045091 MO integrals were written to HF2.
  Summary of active molecular orbitals: 
------------------------------------------------------------------------
 
  Index      Eigenvalue    Symmetry    Index      Eigenvalue    Symmetry
------------------------------------------------------------------------
     1       -20.6471069        1       110         4.1383359        2
     2       -11.5189067        1       111         4.1566816        2
     3        -1.2831493        1       112         4.5375887        2
     4        -0.8038948        1       113         5.1582246        2
     5        -0.5342879        1       114         5.3439620        2
     6        -0.5006459        2       115         5.8999106        2
     7        -0.5006459        3       116         6.1298724        2
     8         0.0594262        1       117         6.3545943        2
     9         0.0690160        1       118         6.7895705        2
    10         0.1574316        1       119         7.2575584        2
    11         0.2013032        1       120         9.7336244        2
    12         0.2219404        1       121        10.7371321        2
    13         0.3009128        1       122        10.9760367        2
    14         0.3160260        1       123        11.8916061        2
    15         0.4220348        1       124        12.3554427        2
    16         0.5135579        1       125        13.1042628        2
    17         0.5499629        1       126        18.7230290        2
    18         0.7061972        1       127        26.5604407        2
    19         0.7392279        1       128        33.4308842        2
    20         0.8196124        1       129        47.2616759        2
    21         0.8600429        1       130        66.3067810        2
    22         0.8835966        1       131        98.5103182        2
    23         1.1321483        1       132        98.5370712        2
    24         1.3630847        1       133       103.3101052        2
    25         1.5841261        1       134       103.3374693        2
    26         1.5928057        1       135       115.1081793        2
    27         1.6792507        1       136       116.7338559        2
    28         1.9184957        1       137       198.6576166        2
    29         1.9546245        1       138       224.7880615        2
    30         2.0685022        1       139       395.2619533        2
    31         2.1268978        1       140        -0.0039216        3
    32         2.2222198        1       141         0.0817760        3
    33         2.2850575        1       142         0.1795483        3
    34         2.4019288        1       143         0.2855147        3
    35         2.6323582        1       144         0.4045016        3
    36         2.6449776        1       145         0.6234833        3
    37         2.9376934        1       146         0.7318842        3
    38         3.7085169        1       147         0.7769354        3
    39         3.8955143        1       148         0.8854231        3
    40         4.1242673        1       149         1.0389468        3
    41         4.1839473        1       150         1.4213338        3
    42         4.2922199        1       151         1.4922935        3
    43         4.4070765        1       152         1.6385242        3
    44         4.6814718        1       153         2.0736038        3
    45         4.7748149        1       154         2.2040516        3
    46         5.2255117        1       155         2.2126006        3
    47         5.8279164        1       156         2.2249932        3
    48         6.0411142        1       157         2.5104105        3
    49         6.1019149        1       158         2.5943462        3
    50         6.1853986        1       159         3.3961051        3
    51         6.3157066        1       160         3.9183732        3
    52         6.4886658        1       161         4.1383359        3
    53         7.0952086        1       162         4.1566816        3
    54         7.8212013        1       163         4.5375887        3
    55         9.5594071        1       164         5.1582246        3
    56        10.6544525        1       165         5.3439620        3
    57        10.6835010        1       166         5.8999106        3
    58        10.9630603        1       167         6.1298724        3
    59        11.1610437        1       168         6.3545943        3
    60        11.9919705        1       169         6.7895705        3
    61        12.5910802        1       170         7.2575584        3
    62        12.7282859        1       171         9.7336244        3
    63        13.5176050        1       172        10.7371321        3
    64        17.3464493        1       173        10.9760367        3
    65        19.6790904        1       174        11.8916061        3
    66        26.2593258        1       175        12.3554427        3
    67        27.0286296        1       176        13.1042628        3
    68        34.3174436        1       177        18.7230290        3
    69        35.5889043        1       178        26.5604407        3
    70        47.0732471        1       179        33.4308842        3
    71        47.5004846        1       180        47.2616759        3
    72        63.7671962        1       181        66.3067810        3
    73        67.0084061        1       182        98.5103182        3
    74        98.5239691        1       183        98.5370712        3
    75        98.5474528        1       184       103.3101052        3
    76       103.3103963        1       185       103.3374693        3
    77       103.3449925        1       186       115.1081793        3
    78       114.9619894        1       187       116.7338559        3
    79       115.3295408        1       188       198.6576166        3
    80       117.4507093        1       189       224.7880615        3
    81       121.8646853        1       190       395.2619533        3
    82       198.5548335        1       191         0.2219404        4
    83       198.7802009        1       192         0.5499629        4
    84       216.2916814        1       193         0.7392279        4
    85       225.3404340        1       194         0.8600429        4
    86       395.8270597        1       195         1.5841261        4
    87       508.5962614        1       196         1.6792507        4
    88       895.1068144        1       197         2.0685022        4
    89        -0.0039216        2       198         2.1268978        4
    90         0.0817760        2       199         2.2850575        4
    91         0.1795483        2       200         2.6449776        4
    92         0.2855147        2       201         3.7085169        4
    93         0.4045016        2       202         4.1839473        4
    94         0.6234833        2       203         4.2922199        4
    95         0.7318842        2       204         4.6814718        4
    96         0.7769354        2       205         5.8279164        4
    97         0.8854231        2       206         6.1019149        4
    98         1.0389468        2       207         6.3157066        4
    99         1.4213338        2       208         6.4886658        4
   100         1.4922935        2       209        10.6544525        4
   101         1.6385242        2       210        10.9630603        4
   102         2.0736038        2       211        11.9919705        4
   103         2.2040516        2       212        12.7282859        4
   104         2.2126006        2       213        26.2593258        4
   105         2.2249932        2       214        47.0732471        4
   106         2.5104105        2       215        98.5239691        4
   107         2.5943462        2       216       103.3103963        4
   108         3.3961051        2       217       114.9619894        4
   109         3.9183732        2       218       198.5548335        4
------------------------------------------------------------------------
  -20.6471069118718       -11.5189066617588       -1.28314925369690     
 -0.803894785377715      -0.534287945161332      -0.500645861086923     
 -0.500645861086922       5.942623017764924E-002  6.901597553299632E-002
  0.157431575608620       0.201303240551197       0.221940357278883     
  0.300912836729888       0.316025963561187       0.422034779401824     
  0.513557929295699       0.549962899979992       0.706197224203078     
  0.739227916324777       0.819612353498585       0.860042920209711     
  0.883596582229357        1.13214828692892        1.36308468733520     
   1.58412606874279        1.59280572019923        1.67925067923322     
   1.91849570071950        1.95462454210904        2.06850220809488     
   2.12689777612483        2.22221983604563        2.28505754823012     
   2.40192883394194        2.63235823740442        2.64497763527359     
   2.93769337936035        3.70851693359939        3.89551427536218     
   4.12426729148891        4.18394726711860        4.29221991942884     
   4.40707649517699        4.68147184267240        4.77481492368613     
   5.22551169488061        5.82791637362464        6.04111417882247     
   6.10191494050541        6.18539859208868        6.31570662611393     
   6.48866575598632        7.09520860728157        7.82120132849073     
[...]
 Convergence information after    13 iterations: 
 Largest element of residual vector : -0.19122934E-05.
 Largest element of DIIS residual   : -0.14940096E-05.
 Convergence information after    14 iterations: 
 Largest element of residual vector : -0.96033251E-06.
 Largest element of DIIS residual   : -0.86510382E-06.
 Convergence information after    15 iterations: 
 Largest element of residual vector : -0.40505614E-06.
 Largest element of DIIS residual   : -0.28470134E-06.
 Convergence information after    16 iterations: 
 Largest element of residual vector : -0.26081875E-06.
 Largest element of DIIS residual   : -0.14611816E-06.
 Convergence information after    17 iterations: 
 Largest element of residual vector : -0.12359107E-06.
 Largest element of DIIS residual   : -0.79730052E-07.
 Perturbed amplitude equations converged in    17 iterations.
  Dominant contributions to perturbed wavefunction:
    7    7  140   45  -0.2349443180 ABAB
    7    7   45  140  -0.2349443180 ABAB
    7    7  140   22  -0.2168857714 ABAB
    7    7   22  140  -0.2168857714 ABAB
    7    7  140   39  -0.2048348592 ABAB
    7    7   39  140  -0.2048348592 ABAB
    7    7  140   28   0.1900797960 ABAB
    7    7   28  140   0.1900797960 ABAB
    7    0   35    0   0.1749829876 AA  
    7    7  140   29  -0.1611871431 ABAB
    7    7   29  140  -0.1611871431 ABAB
    7    7  140   57  -0.1601781414 ABAB
    7    7   57  140  -0.1601781414 ABAB
    7    6   45   89  -0.1466325380 ABAB
    6    7   89   45  -0.1466325380 ABAB
    7    0   39    0   0.1436136567 AA  
    7    7  140   32  -0.1429457579 ABAB
    7    7   32  140  -0.1429457579 ABAB
    7    0   45    0   0.1425783647 AA  
    7    7  140   54   0.1411914280 ABAB
  norm of converged amps    1.67413877355136     
 Starting iterative solution of the perturbed Lambda equations.
 The DIIS procedure is used to accelerate convergence.
 Convergence criterion is 10**(-7).
 Maximum number of iterations is 100.
 Convergence information after     1 iterations: 
 Largest element of residual vector :  0.78093310E-01.
 Largest element of DIIS residual   :  0.78093310E-01.
 Convergence information after     2 iterations: 
 Largest element of residual vector :  0.16427132E-01.
 Largest element of DIIS residual   :  0.12386281E-01.
 Convergence information after     3 iterations: 
 Largest element of residual vector :  0.65875161E-02.
 Largest element of DIIS residual   : -0.62479968E-02.
 Convergence information after     4 iterations: 
 Largest element of residual vector : -0.37903127E-02.
 Largest element of DIIS residual   : -0.34355594E-02.
 Convergence information after     5 iterations: 
 Largest element of residual vector : -0.32646222E-02.
 Largest element of DIIS residual   : -0.25912224E-02.
 Convergence information after     6 iterations: 
 Largest element of residual vector : -0.16904479E-02.
 Largest element of DIIS residual   : -0.75021168E-03.
 Convergence information after     7 iterations: 
 Largest element of residual vector : -0.78185991E-03.
 Largest element of DIIS residual   : -0.37959516E-03.
 Convergence information after     8 iterations: 
 Largest element of residual vector : -0.27206158E-03.
 Largest element of DIIS residual   : -0.17446631E-03.
 Convergence information after     9 iterations: 
 Largest element of residual vector : -0.11634454E-03.
 Largest element of DIIS residual   : -0.59280779E-04.
 Convergence information after    10 iterations: 
 Largest element of residual vector : -0.52917748E-04.
 Largest element of DIIS residual   : -0.24213764E-04.
 Convergence information after    11 iterations: 
 Largest element of residual vector : -0.11462691E-04.
 Largest element of DIIS residual   : -0.56635714E-05.
 Convergence information after    12 iterations: 
 Largest element of residual vector : -0.34526294E-05.
 Largest element of DIIS residual   : -0.21301653E-05.
 Convergence information after    13 iterations: 
 Largest element of residual vector : -0.16933143E-05.
 Largest element of DIIS residual   : -0.14673214E-05.
 Convergence information after    14 iterations: 
 Largest element of residual vector : -0.68783067E-06.
 Largest element of DIIS residual   : -0.56353063E-06.
 Convergence information after    15 iterations: 
 Largest element of residual vector : -0.41019945E-06.
 Largest element of DIIS residual   : -0.19343360E-06.
 Convergence information after    16 iterations: 
 Largest element of residual vector : -0.16008654E-06.
 Largest element of DIIS residual   : -0.98625701E-07.
 Perturbed Lambda equations converged in    16 iterations.
  Dominant contributions to perturbed wavefunction:
    7    7  140   45  -0.1940719273 ABAB
    7    7   45  140  -0.1940719273 ABAB
    7    7  140   22  -0.1786321609 ABAB
    7    7   22  140  -0.1786321609 ABAB
    7    7  140   39  -0.1673680805 ABAB
    7    7   39  140  -0.1673680805 ABAB
    7    7  140   28   0.1593199881 ABAB
    7    7   28  140   0.1593199881 ABAB
    7    7  140   57  -0.1312391446 ABAB
    7    7   57  140  -0.1312391446 ABAB
    7    7  140   29  -0.1298429976 ABAB
    7    7   29  140  -0.1298429976 ABAB
    7    6   45   89  -0.1198296892 ABAB
    6    7   89   45  -0.1198296892 ABAB
    7    7  140   32  -0.1182919382 ABAB
    7    7   32  140  -0.1182919382 ABAB
    7    7  140   54   0.1167438340 ABAB
    7    7   54  140   0.1167438340 ABAB
    7    6   22   89  -0.1094529610 ABAB
    6    7   89   22  -0.1094529610 ABAB
        The DBOC first-order density matrix is being calculated 
             (Symmetry block 3, perturbation   2)
 term   2.94885226269724     
 final tnorm  0.797378633370857     
  norm contr. I: |<0|L dT/dx|0>|^2   0.000000000000000E+000
  norm contr. II: <0|[nabla(1+L)e-T][nabla e^T]|0>   2.94885226269724     
  total norm contribution   2.94885226269724     
 oo  9.222945748082150E-003
 vv  -22.0688518521752     
 vo  6.573991115843413E-002
  Correlated perturbed 1-el contribution to DBOC  -21.9938889952686       cm**-1
  SUM_I |dc_I/dx|^2 contribution to DBOC   11.1015724442208       cm**-1
 
 
  The total diagonal Born-Oppenheimer correction (DBOC) is:      0.0040095152 a.u.
  The total diagonal Born-Oppenheimer correction (DBOC) is:        879.986868 cm-1
 
 Total CC energy including DBOC  -113.086525141212     
 First-order density matrix is being calculated  (Symmetry block 3, perturbation   2)
 Calculation of the contributions of <pq||rs> to dI(i,j)/dx required   3.7 seconds.
 Calculation of the contributions of <pq||rs> to dI(a,b)/dx required  17.0 seconds.
 Calculation of the contributions of <pq||rs> to dI(i,a)/dx required   9.8 seconds.
 First-order Z-vector equations are solved for 1 perturbation.
 Convergence reached after  19 iterations.
        U*G(pq,rs) contribution is being calculated
             (Symmetry block 3, perturbation   2)

 CCSD contribution to force constants 

        0.0000000000        0.0000000000        0.0000000000
        0.0000000000        0.0000000000        0.0000000000
        0.0000000000        0.0000000000        0.0000000000
        0.0000000000        0.0000000000        0.0000000000
        0.0000000000        0.0000000000        0.0000000000
        0.0000000000        0.0000000000        0.0000000000
        0.0000000000        0.0000000000        0.0000000000
        0.0000000000        0.0000000000        0.0000000000
        0.0000000000        0.0000000000        0.0000000000
        0.0000000000        0.0000000000        0.0000000000
        0.0000000000        0.0000000000        0.0000000000
        0.0000000000       -4.1598807643        4.1598807643

 CCSD contribution to dipole derivatives 

        0.0000000000        0.0000000000        0.0000000000
        0.0000000000        0.0000000000        0.0000000000
        0.0000000000        0.0000000000        0.0000000000
        0.0000000000        0.0000000000       -0.0572855925
        0.0000000000        0.0000000000        0.0000000000
        0.0000000000        0.0000000000        0.0000000000
 @CHECKOUT-I, Total execution time (CPU/WALL):     1297.96/     526.33 seconds.
--executable xsdcc finished with status     0 in      526.57 seconds (walltime).
 --invoking executable--
/nfs/workspaces/public/cfour_mpi/bin/xanti
 @GETMEM-I,  Allocated    3814 MB of main memory.
 CCSD MO derivative gammas will be sorted to Mulliken order.
 @CHECKOUT-I, Total execution time (CPU/WALL):       12.33/      22.89 seconds.
--executable xanti finished with status     0 in       23.03 seconds (walltime).
 --invoking executable--
/nfs/workspaces/public/cfour_mpi/bin/xbcktrn
 @GETMEM-I,  Allocated    3814 MB of main memory.
 CCSD MO derivative gammas will be transformed to the AO basis.
 @CHECKOUT-I, Total execution time (CPU/WALL):       31.94/      15.02 seconds.
--executable xbcktrn finished with status     0 in       15.08 seconds (walltime).
 --invoking executable--
/nfs/workspaces/public/cfour_mpi/bin/xvdint
 @GETMEM-I,  Allocated    3814 MB of main memory.
 One- and two-electron integral derivatives are calculated
 for RHF-CC/MBPT hessians and dipole derivatives.
 Spherical gaussians are used.
  magnet F F
                    8722  records have been written to the Sort file.
  Total length of Sort file :             178609116  words.
 Evaluation of 2el integral derivatives

                      Two-electron integral gradient
                      ------------------------------

                         C #1 z     0.0000000000
                         O #2 z     0.0000000000


 C #1       0.0000000000            0.0683674214            0.0000000000
 O #2       0.0000000000           -0.0683674214            0.0000000000


 Evaluation of 2e integral derivatives required  345.92 seconds.
  contribution to Hessian
        0.0000000000        0.0000000000        0.0000000000
        0.0000000000        0.0683674214       -0.0683674214
 @CHECKOUT-I, Total execution time (CPU/WALL):      345.91/      70.08 seconds.
--executable xvdint finished with status     0 in       70.24 seconds (walltime).
 --invoking executable--
/nfs/workspaces/public/cfour_mpi/bin/xanti
 @GETMEM-I,  Allocated    3814 MB of main memory.
 CCSD MO gammas will be sorted to Mulliken order.
 @CHECKOUT-I, Total execution time (CPU/WALL):       16.59/      46.55 seconds.
--executable xanti finished with status     0 in       47.17 seconds (walltime).
 --invoking executable--
/nfs/workspaces/public/cfour_mpi/bin/xbcktrn
 @GETMEM-I,  Allocated    3814 MB of main memory.
 CCSD MO gammas will be transformed to the AO basis.
 @CHECKOUT-I, Total execution time (CPU/WALL):       35.70/       8.81 seconds.
--executable xbcktrn finished with status     0 in        8.88 seconds (walltime).
 --invoking executable--
/nfs/workspaces/public/cfour_mpi/bin/xvdint
 @GETMEM-I,  Allocated    3814 MB of main memory.
 One- and two-electron integral derivatives are calculated
 for RHF-CC/MBPT hessians and dipole derivatives.
 Spherical gaussians are used.
  magnet F F

                     Kinetic energy integral gradient
                     --------------------------------

                         C #1 z    -0.5480857761
                         O #2 z     0.5480857761


 C #1       0.0000000000            0.0000000000           -0.5480857761
 O #2       0.0000000000            0.0000000000            0.5480857761



                   Nuclear attraction integral gradient
                   ------------------------------------

                         C #1 z    13.9170435430
                         O #2 z   -13.9170435430


 C #1       0.0000000000            0.0000000000           13.9170435430
 O #2       0.0000000000            0.0000000000          -13.9170435430



                      Reorthonormalization gradient
                      -----------------------------

                         C #1 z     0.0000000000
                         O #2 z     0.0000000000


 C #1       0.0000000000            0.0000000000            0.0000000000
 O #2       0.0000000000            0.0000000000            0.0000000000



                     Kinetic energy integral Hessian
                     -------------------------------


           Symmetry 1

           C #1 z      O #2 z

 C #1 z    0.575609
 O #2 z   -0.575609    0.575609


           Symmetry 2

           C #1 x      O #2 x

 C #1 x   -0.423442
 O #2 x    0.423442   -0.423442


           Symmetry 3

           C #1 y      O #2 y

 C #1 y   -0.423442
 O #2 y    0.423442   -0.423442




           C #1 x      C #1 y      C #1 z      O #2 x      O #2 y      O #2 z

 C #1 x   -0.423442
 C #1 y    0.000000   -0.423442
 C #1 z    0.000000    0.000000    0.575609

 O #2 x    0.423442    0.000000    0.000000   -0.423442
 O #2 y    0.000000    0.423442    0.000000    0.000000   -0.423442
 O #2 z    0.000000    0.000000   -0.575609    0.000000    0.000000    0.575609




                   Nuclear attraction integral Hessian
                   -----------------------------------


           Symmetry 1

           C #1 z      O #2 z

 C #1 z   -8.477171
 O #2 z    8.477171   -8.477171


           Symmetry 2

           C #1 x      O #2 x

 C #1 x    7.533258
 O #2 x   -7.533258    7.533258


           Symmetry 3

           C #1 y      O #2 y

 C #1 y    7.533258
 O #2 y   -7.533258    7.533258




           C #1 x      C #1 y      C #1 z      O #2 x      O #2 y      O #2 z

 C #1 x    7.533258
 C #1 y    0.000000    7.533258
 C #1 z    0.000000    0.000000   -8.477171

 O #2 x   -7.533258    0.000000    0.000000    7.533258
 O #2 y    0.000000   -7.533258    0.000000    0.000000    7.533258
 O #2 z    0.000000    0.000000    8.477171    0.000000    0.000000   -8.477171




                Highest order reorthonormalization Hessian
                ------------------------------------------


           Symmetry 1

           C #1 z      O #2 z

 C #1 z    0.000000
 O #2 z    0.000000    0.000000


           Symmetry 2

           C #1 x      O #2 x

 C #1 x    0.000000
 O #2 x    0.000000    0.000000


           Symmetry 3

           C #1 y      O #2 y

 C #1 y    0.000000
 O #2 y    0.000000    0.000000




           C #1 x      C #1 y      C #1 z      O #2 x      O #2 y      O #2 z




                Electronic contributions to dipole moment
                -----------------------------------------

                               au             Debye

                    z      1.29292694      3.28629305

  Conversion factor used: 1 a.u. =   2.54174691 Debye 



   Electronic contributions to static part of dipole moment derivatives
   --------------------------------------------------------------------


                     Total dipole moment derivatives
                     -------------------------------


           Symmetry 1
                              Ez

               C #1 z    -5.67892584
               O #2 z    -8.32107416

           Symmetry 2
                              Ex

               C #1 x    -5.67413456
               O #2 x    -8.32586544

           Symmetry 3
                              Ey

               C #1 y    -5.67413456
               O #2 y    -8.32586544



                       Ex          Ey          Ez

      C #1    x   -5.674135    0.000000    0.000000
      C #1    y    0.000000   -5.674135    0.000000
      C #1    z    0.000000    0.000000   -5.678926

      O #2    x   -8.325865    0.000000    0.000000
      O #2    y    0.000000   -8.325865    0.000000
      O #2    z    0.000000    0.000000   -8.321074

 Evaluation of 1e integral derivatives required    1.88 seconds.
                    8815  records have been written to the Sort file.
  Total length of Sort file :             180513570  words.
 Evaluation of 2el integral derivatives

                      Two-electron integral gradient
                      ------------------------------

                         C #1 z    -7.4098210099
                         O #2 z     7.4098210099


 C #1       0.0000000000            0.0000000000           -7.4098210099
 O #2       0.0000000000            0.0000000000            7.4098210099


 Evaluation of 2e integral derivatives required  712.14 seconds.

                            Molecular gradient
                            ------------------

                         C #1 z     0.5935904671
                         O #2 z    -0.5935904671


 C #1       0.0000000000            0.0000000000            0.5935904671
 O #2       0.0000000000            0.0000000000           -0.5935904671


  Molecular gradient norm 0.839E+00

                            Molecular hessian
                            -----------------


           Symmetry 1

           C #1 z      O #2 z

 C #1 z   16.597280
 O #2 z  -16.597280   16.597280


           Symmetry 2

           C #1 x      O #2 x

 C #1 x    4.345831
 O #2 x   -4.345831    4.345831


           Symmetry 3

           C #1 y      O #2 y

 C #1 y    4.345831
 O #2 y   -4.345831    4.345831




           C #1 x      C #1 y      C #1 z      O #2 x      O #2 y      O #2 z

 C #1 x    4.345831
 C #1 y    0.000000    4.345831
 C #1 z    0.000000    0.000000   16.597280

 O #2 x   -4.345831    0.000000    0.000000    4.345831
 O #2 y    0.000000   -4.345831    0.000000    0.000000    4.345831
 O #2 z    0.000000    0.000000  -16.597280    0.000000    0.000000   16.597280




                           Total dipole moment
                           -------------------

                               au             Debye

                    z      0.46186414      1.17394176

  Conversion factor used: 1 a.u. =   2.54174691 Debye 



                     Total dipole moment derivatives
                     -------------------------------


           Symmetry 1
                              Ez

               C #1 z     0.58683475
               O #2 z    -0.58683475

           Symmetry 2
                              Ex

               C #1 x     0.16290702
               O #2 x    -0.16290702

           Symmetry 3
                              Ey

               C #1 y     0.16290702
               O #2 y    -0.16290702



                       Ex          Ey          Ez

      C #1    x    0.162907    0.000000    0.000000
      C #1    y    0.000000    0.162907    0.000000
      C #1    z    0.000000    0.000000    0.586835

      O #2    x   -0.162907    0.000000    0.000000
      O #2    y    0.000000   -0.162907    0.000000
      O #2    z    0.000000    0.000000   -0.586835

 @CHECKOUT-I, Total execution time (CPU/WALL):      714.01/     165.72 seconds.
--executable xvdint finished with status     0 in      166.02 seconds (walltime).
 --invoking executable--
/nfs/workspaces/public/cfour_mpi/bin/xjoda
  @GTFLGS-I, Hessian will be transformed to curvilinear coordinates.
  @GTFLGS-I, Hessian will be transformed to curvilinear coordinates.
  igrd and ihes are                      0                     1
  gradient from JOBARC 
   0.000000000000000   0.000000000000000   0.593590467134385
   0.000000000000000   0.000000000000000  -0.593590467134385
 
  @PROJFCM-I, Projecting force constant matrix onto totally symmetric subspace.
  Largest difference between matrix elements of symmetrized
  and unsymmetrized FCM :    -0.3055333764E-12.
  read isotopes from ZMAT file 
 
  Summary of diagonal Born-Oppenheimer correction at the correlated level
  The total diagonal Born-Oppenheimer correction (DBOC) is:      0.0040095152 a.u.
  The total diagonal Born-Oppenheimer correction (DBOC) is:        879.986868 cm-1
  The total diagonal Born-Oppenheimer correction (DBOC) is:            10.527 kJ/mole
  hellooooooo 
  readis is  F
 
 @CHECKOUT-I, Total execution time (CPU/WALL):        0.03/       0.10 seconds.
--executable xjoda finished with status     0 in        0.17 seconds (walltime).
  The final electronic energy is      -113.086525141212348 a.u. 
  This computation required                         4701.81 seconds (walltime).
