 --invoking executable--
/nfs/workspaces/public/cfour_mpi/bin/xjoda


   *************************************************************************
         <<<     CCCCCC     CCCCCC   |||     CCCCCC     CCCCCC   >>>
       <<<      CCC        CCC       |||    CCC        CCC         >>>
      <<<      CCC        CCC        |||   CCC        CCC            >>>
    <<<        CCC        CCC        |||   CCC        CCC              >>>
      <<<      CCC        CCC        |||   CCC        CCC            >>>
       <<<      CCC        CCC       |||    CCC        CCC         >>>
         <<<     CCCCCC     CCCCCC   |||     CCCCCC     CCCCCC   >>>
   *************************************************************************

     ****************************************************************
     * CFOUR Coupled-Cluster techniques for Computational Chemistry *
     ****************************************************************
 

   Department of Chemistry                Institut fuer Physikalische Chemie
   University of Florida                  Universitaet Mainz
   Gainesville, FL 32611, USA             D-55099 Mainz, Germany

   Department of Chemistry                Fakultaet fuer Chemie und Biowiss.
   Johns Hopkins University               Karlsruher Institut fuer Technologie
   Baltimore, MD 21218, USA               D-76131 Karlsruhe, Germany

   Department of Chemistry                Department of Physical Chemistry
   Southern Methodist University          Eotvos Lorand University
   Dallas, TX 75275, USA                  H-1053 Budapest, Hungary

 
                       Version 2.1
 
                     vincent.theory.phys.ucl.ac.uk                     
                     Wed 26 Feb 16:14:48 GMT 2025                      
                     integer*8 version is running
 
********************************************************************************
*                          Input from ZMAT file                                *
********************************************************************************
Carbon Monoxide DBOC calculation                                                
C                                                                               
O 1 r                                                                           
                                                                                
r=0.993103448275862                                                             
                                                                                
                                                                                
*CFOUR(CALC=CCSD,BASIS=AUG-PCVQZ,SCF_CONV=10                                    
CC_CONV=14,DBOC=ON,MEMORY=500000000                                             
ZFIELD=200)                                                                     
                                                                                
%isotopes                                                                       
13                                                                              
16                                                                              
********************************************************************************
  @GTFLGS-I, Hessian will be transformed to curvilinear coordinates.
    -------------------------------------------------------------------
                    CFOUR Control Parameters 
    -------------------------------------------------------------------
        External           Internal           Value            Units
          Name               Name
    -------------------------------------------------------------------
       ABCDTYPE             IABCDT         STANDARD    [  0]    ***   
       ANHARMONIC           IANHAR         OFF         [  0]    ***   
       ANH_ALGORIT          IANALG         STANDARD    [  0]    ***   
       ANH_DERIVAT          IANDER         SECOND      [  1]    ***   
       ANH_MODE             ANHMOD         VIBRATION   [  0]    ***   
       ANH_STEPSIZ          ICUBST             50000          x 10-6  
       ANH_SYMMETR          IANHSM         ABELIAN     [  0]    ***   
       AO_LADDERS           IAOLAD         SINGLEPASS  [  1]    ***   
       AV_SCF               IAVSCF         OFF         [  0]    ***   
       BASIS                IBASIS         AUG-PCVQZ   [ 52]    ***   
       BOTHVECTORS          BOTHVC         OFF         [  0]    ***   
       BOX_POTENT           IPIAB          OFF         [  0]    ***   
       BREIT                IBREIT         OFF         [  0]    ***   
       BRUCK_CONV           IBRTOL          10D-  4             ***   
       BRUECKNER            IBRKNR         OFF         [  0]    ***   
       BUFFERSIZE           IBUFFS              4096            ***   
       CACHE_RECS           ICHREC             10               ***   
       CALCLEVEL            ICLLVL         CCSD        [ 10]    ***   
       CCORBOPT             ICCORB         OFF         [  0]  x 0.01  
       CC_CONV              ICCCNV          10D- 14             ***   
       CC_EXPORDER          ICCEOR              5               ***   
       CC_EXTRAPOL          ICCEXT         DIIS        [  1]    ***   
       CC_GUESS             ICCGES         MP2         [  0]    ***   
       CC_MAXCYC            ICCCYC            100              cycles 
       CC_PROGRAM           ICCPRO         VCC         [  0]    ***   
       CHARGE               ICHRGE              0               ***   
       CHOLESKY             ICHOLE         OFF         [  0]    ***   
       CIS_CONV             ICISTL              5               ***   
       COMM_SIZE            IPSIZE            ***               ***   
       CONSTANT             ICONST         OLD         [  1]    ***   
       CONTINUUM            ICONTU         NONE        [  0]    ***   
       CONTRACTION          ICNTYP         GENERAL     [  1]    ***   
       COORDINATES          ICOORD         INTERNAL    [  0]    ***   
       CPHF_CONVER          ICPHFT          10D- 16             ***   
       CPHF_MAXCYC          ICPHFC             64              cycles 
       CUBIC                ICUBIC         OFF         [  0]    ***   
       CURVILINEAR          ICURVY         ON          [  1]    ***   
       DBOC                 IDBOC          ON          [  1]    ***   
       DCT                  IDCT           OFF         [  0]    ***   
       DERIV_LEV            IDRLVL         SECOND      [  2]    ***   
       DEVMEM_SIZE          IDVMEM          50000000           MByte  
       DIAG_MRCC            IEOMST          10D-  0             ***   
       DIFF_TYPE            IDIFTY         RELAXED     [  0]    ***   
       DIRECT               IDIRCT         OFF         [  0]    ***   
       DROPMO               IDRPMO      NONE         
       ECP                  IECP           OFF         [  0]    ***   
       EIGENVECTOR          IVEC                1               ***   
       EL_ANHARM            IELANH         OFF         [  0]    ***   
       EOMFOLLOW            IEOMSR         ENERGY      [  0]    ***   
       EOMIP                IEOMIP         OFF         [  0]    ***   
       EOMLEVEL             HBARFM         SAME        [  0]    ***   
       EOM_MRCC             IMRCCE         NEW         [  1]    ***   
       EOM_NONIT            EOMNON         OFF         [  0]    ***   
       EOM_NSING            IEOMSI          10D-  0             ***   
       EOM_NSTATES          IMRCCD         DAVIDSON    [  0]    ***   
       EOM_NTRIP            IEOMTR          10D-  0             ***   
       EOM_ORDER            IEXORD         ENERGY      [  0]    ***   
       EOM_PROPSTA          IEOMST              0               ***   
       ESTATE_CONV          IEXTOL          10D-  5             ***   
       ESTATE_DIAG          IEXDIG         ITERATIVE   [  0]    ***   
       ESTATE_LOCK          IESLOC         ON          [  1]    ***   
       ESTATE_MAXC          IEXMXC             40               ***   
       ESTATE_PROP          IEXPRP         OFF         [  0]    ***   
       EVAL_HESS            IRECAL              0            # of cyc.
       EXCITATION           IEXCIT              0               ***   
       EXCITE               IEXCIT         NONE        [  0]    ***   
       EXTERN_POT           IEXPOT         OFF         [  0]    ***   
       FCGRADNEW            IFCGNW         OFF         [  0]    ***   
       FC_FIELD             IFINFC              0             x 10-6  
       FD_CALTYPE           IFDCAL         GRADONLY    [  0]    ***   
       FD_PROJECT           IFDPRJ         OFF         [  1]    ***   
       FD_STEPSIZE          IDISFD              0            10-4 bohr
       FD_USEGROUP          IFDGRP         FULL        [  0]    ***   
       FILE_RECSIZ          IFLREC              4096           words  
       FINITE_PERT          IFIPER              0             x 10-6  
       FIXGEOM              IFIXGM         OFF         [  0]    ***   
       FOCK                 IFOCK          AO          [  1]    ***   
       FREQ_ALGORI          IVIALG         STANDARD    [  0]    ***   
       FROZEN_CORE          IFROCO         OFF         [  0]    ***   
       GAMMA_ABCD           IGABCD         STORE       [  0]    ***   
       GAMMA_ABCI           IGABCI         STORE       [  0]    ***   
       GENBAS_1             IGNBS1              0               ***   
       GENBAS_2             IGNBS2              0               ***   
       GENBAS_3             IGNBS3              0               ***   
       GENBAS_4             IGNBS4              0               ***   
       GEO_CONV             ICONTL              5              H/bohr 
       GEO_MAXCYC           IOPTCY             50               ***   
       GEO_MAXSTEP          IMXSTP            300            millibohr
       GEO_METHOD           INR            SINGLE_POINT[  5]    ***   
       GIAO                 IGIAO          OFF         [  1]    ***   
       GIMIC                IGIMIC         OFF         [  0]    ***   
       GRID                 IGRID          OFF         [  0]    ***   
       GRID_ALGO            IGALGO         SERIAL      [  0]    ***   
       GUESS                IGUESS         MOREAD      [  0]    ***   
       HBAR                 IHBAR          OFF         [  0]    ***   
       HESS_TYPE            IHESTP         SCF         [  0]    ***   
       HF2_FILE             IHF2Fl         USE         [  1]    ***   
       HFSTABILITY          ISTABL         OFF         [  0]    ***   
       INCORE               INCORE         OFF         [  0]    ***   
       INPUT_MRCC           IMRCC          ON          [  1]    ***   
       INTEGRALS            INTTYP         VMOL        [  1]    ***   
       JODA_PRINT           IJPRNT              0               ***   
       KEYWORD_OUT          IDMPKW         NO          [  0]    ***   
       LINDEP_TOL           ILINDP              8               ***   
       LINEQ_CONV           IZTACN          10D-  7           cycles  
       LINEQ_EXPOR          ILMAXD              5               ***   
       LINEQ_MAXCY          ILMAXC            100               ***   
       LINEQ_TYPE           ILTYPE         DIIS        [  1]    ***   
       LOCK_ORBOCC          ILOCOC         OFF         [  0]    ***   
       MEMORY_SIZE          IMEMSZ         500000000           words  
       MEM_UNIT             IMEMU          INTEGERWORDS[  0]    ***   
       MRCC                 IMRCCC         OFF         [  0]    ***   
       MULTIPLICTY          IMULTP              1               ***   
       NACOUPLING           IVCOUP         OFF         [  0]    ***   
       NEGEVAL              IDIE           ABORT       [  0]    ***   
       NEWNORM              INEWNO         OFF         [  0]    ***   
       NON-HF               INONHF         OFF         [  0]    ***   
       NTOP_TAMP            ITOPT2             15               ***   
       NUC_MODEL            INUCMO         POINT       [  0]    ***   
       OCCUPATION           IOCCU   ESTIMATED BY SCF 
       OPEN-SHELL           IOPEN          SPIN-ORBITAL[  0]    ***   
       OPTVIB               IOPTVB         OFF         [  0]    ***   
       ORBITALS             IORBTP         STANDARD    [  0]    ***   
       PARALLEL             IPARAL         ON          [  1]    ***   
       PARA_INT             IPINTS         ON          [  1]    ***   
       PARA_PRINT           IPPRIN              0               ***   
       PERT_ORB             IPTORB         STANDARD    [  0]    ***   
       POINTS               IGRDFD              0               ***   
       PRINT                IPRNT               0               ***   
       PROPS                IPROPS         OFF         [  0]    ***   
       PROP_INTEGR          IINTYP         INTERNAL    [  0]    ***   
       PSI                  IPSI           OFF         [  0]    ***   
       QC_ALG               IQCALG         FLM         [  0]    ***   
       QC_LINALG            IQCLIN         TRIDIAG     [  2]    ***   
       QC_MAXCYC            IQCMAX          10D-100           cycles  
       QC_MAXSCFCY          IQCMSC          10D- 15           cycles  
       QC_RTRUST            IQCRTR          10D-  0           x 10-3  
       QC_SKIPSCF           IQCSKI         OFF         [  0]    ***   
       QC_START             IQCSTA          10D-  1             ***   
       QRHFGUESS            IQGUES         OFF         [  0]    ***   
       QUARTIC              IQUART         OFF         [  0]    ***   
       RAMAN_INT            IRAMIN         OFF         [  0]    ***   
       RAMAN_ORB            IRAMRE         UNRELAXED   [  0]    ***   
       RDO                  IRDOFM         ON          [  1]    ***   
       REDUCE_REPR          REDREP         Ir          [  0]    ***   
       REFERENCE            IREFNC         RHF         [  0]    ***   
       RELATIVIST           IRELAT         OFF         [  0]    ***   
       RELAX_DENS           IRDENS         ON          [  1]    ***   
       RESET_FLAGS          IRESET         OFF         [  0]    ***   
       RESTART_CC           ICCRES         OFF         [  0]    ***   
       ROT_EVEC             ROTVEC              0               ***   
       SAVE_INTS            ISVINT         OFF         [  0]    ***   
       SCALE_ON             ISTCRT              0               ***   
       SCF_CONV             ISCFCV          10D- 10             ***   
       SCF_DAMPING          IDAMP               0             x 10-3  
       SCF_EXPORDE          IRPPOR              6               ***   
       SCF_EXPSTAR          IRPPLS              8               ***   
       SCF_EXTRAPO          IRPP           ON          [  1]    ***   
       SCF_MAXCYC           ISCFCY            150              cycles 
       SCF_NOSTOP           ISCFST         OFF         [  0]    ***   
       SCF_PRINT            ISCFPR              0               ***   
       SCF_PROG             ISCFPR         SCF         [  0]    ***   
       SD_FIELD             IFINSD              0             x 10-6  
       SOPERT               IPERSO         OFF         [  0]    ***   
       SPHERICAL            IDFGHI         ON          [  1]    ***   
       SPINORBIT            ISOCAL         OFF         [  0]    ***   
       SPINROTATIO          ISRCON         OFF         [  0]    ***   
       SPIN_FLIP            ISPFLP         OFF         [  0]    ***   
       SPIN_ORBIT           ISPORB         OFF         [  0]    ***   
       SPIN_SCAL            ISCSMP         OFF         [  0]    ***   
       STEEPSCALE           ISTPSC              1000          x 10-3  
       SUBGROUP             ISUBGP         DEFAULT     [  0]    ***   
       SUBGRPAXIS           ISBXYZ         X           [  0]    ***   
       SYMMETRY             ISYM           ON          [  0]    ***   
       SYM_CHECK            ISYMCK         OVERRIDE    [  1]    ***   
       T3_EXTRAPOL          IT3EXT         OFF         [  0]    ***   
       T4_EXTRAPOL          IT4EXP         OFF         [  0]    ***   
       TAMP_SUM             IEVERY              5               ***   
       TESTSUITE            ITESTS         OFF         [  0]    ***   
       THERMOCH             ITHERM         OFF         [  0]    ***   
       TOL_CHOLESK          ITOLCH          10D-  4             ***   
       TRANGRAD             IRESRM         OFF         [  0]    ***   
       TRANS_INV            ITRAIN         IGNORE      [  1]    ***   
       TREAT_PERT           ITREAT         SIMULTANEOUS[  0]    ***   
       TRIP_ALGORI          ITRALG         NORMAL      [  0]    ***   
       UIJ_THRESHO          IUIJTH              1               ***   
       UNITS                IUNITS         ANGSTROM    [  0]    ***   
       UNOS                 IUNOS          OFF         [  0]    ***   
       UPDATE_HESS          IHUPDT         ON          [  1]    ***   
       VIBPHASE             ISETPH         STANDARD    [  0]    ***   
       VIBRATION            IVIB           ANALYTIC    [  1]    ***   
       VIB_ALGORIT          IGEALG         STANDARD    [  0]    ***   
       VNATORB              IVNORB         OFF         [  0]    ***   
       VTRAN                IVTRAN         FULL/PARTIAL[  0]    ***   
       XFIELD               IXEFLD              0             x 10-6  
       XFORM_TOL            IXFTOL          10D- 11             ***   
       YFIELD               IYEFLD              0             x 10-6  
       ZFIELD               IZEFLD            200             x 10-6  
       ZSCALE_EXP           IZEXPS         OFF         [  0]    ***   
    -------------------------------------------------------------------
   2 entries found in Z-matrix 
   Job Title : Carbon Monoxide DBOC calculation                                                
   There are  1 unique internal coordinates.
   Of these,  0 will be optimized.
   User supplied Z-matrix: 
--------------------------------------------------------------------------------
       SYMBOL    BOND      LENGTH    ANGLE     ANGLE     DIHED     ANGLE
                  TO      (ANGST)    WRT      (DEG)      WRT      (DEG)
--------------------------------------------------------------------------------
        C    
        O          1         r    
                  *Initial values for internal coordinates* 
                      Name             Value
                        r               0.9931034483
--------------------------------------------------------------------------------
  read isotopes from ZMAT file 
   Rotational constants (in cm-1): 
          2.3831002742             2.3831002742
   Rotational constants (in MHz): 
      71443.5588961297         71443.5588961297
********************************************************************************
   The full molecular point group is CXv .
   The largest Abelian subgroup of the full molecular point group is C2v .
   The computational point group is C2v .
********************************************************************************
--------------------------------------------------------------------------------
   Analysis of internal coordinates specified by Z-matrix 
--------------------------------------------------------------------------------
   *The nuclear repulsion energy is   25.576893166666665 a.u.
   *There is   1 degree of freedom within the tot. symm. molecular subspace.
   *Z-matrix requests optimization of   0 coordinates.
   *The optimization is constrained.
   *The following   1 parameters can have non-zero 
    derivatives within the totally symmetric subspace:
             r    [ 1]
   *The following   0 parameters are to be optimized:

   *The following coordinates must be varied in an  unconstrained optimization.
             r    [ 1]
--------------------------------------------------------------------------------


 ----------------------------------------------------------------
         Coordinates used in calculation (QCOMP) 
 ----------------------------------------------------------------
 Z-matrix   Atomic            Coordinates (in bohr)
  Symbol    Number           X              Y              Z
 ----------------------------------------------------------------
     C         6        -0.00000000     0.00000000     1.03515002
     O         8         0.00000000     0.00000000    -0.84154391
 ----------------------------------------------------------------
 
   Interatomic distance matrix (Angstroms) 
 
                 C             O    
                [ 1]        [ 2]
  C    [ 1]     0.00000
  O    [ 2]     0.99310     0.00000
 rotcon2
   Rotational constants (in cm-1): 
          2.3831002742             0.0000000000
   Rotational constants (in MHz): 
      71443.5588961297             0.0000000000
  ECPDATA file not present.   Using default ECPDATA. 
  @GTFLGS-I, Hessian will be transformed to curvilinear coordinates.
  There are  218 basis functions.
 @CHECKOUT-I, Total execution time (CPU/WALL):        0.10/       0.16 seconds.
--executable xjoda finished with status     0 in        0.18 seconds (walltime).
 --invoking executable--
/nfs/workspaces/public/cfour_mpi/bin/xvmol
 SERIAL VERSION OF MOLECULE STARTED
********************************************************************************
                    INPUT FROM MOL FILE
********************************************************************************
INTGRL        1    0    1    0    0    0    0    0    0                         
         *** CFOUR Program System (Release V0.1) ***                            
Carbon Monoxide DBOC calculation                                                
    2    2 X  Y       0.10E-08              0    0                              
   9999.00      3.00                                                            
          6.00000000    1    5    1    1    1    1    1                         
C #1  -0.000000000000000   0.000000000000000   1.035150016318759                
   16    9                                                                      
   33980.0000000000       9.100000000000000E-005 -1.900000000000000E-005        
  0.000000000000000E+000  0.000000000000000E+000  0.000000000000000E+000        
  0.000000000000000E+000  0.000000000000000E+000  0.000000000000000E+000        
  0.000000000000000E+000                                                        
   5089.00000000000       7.040000000000000E-004 -1.510000000000000E-004        
  0.000000000000000E+000  0.000000000000000E+000  0.000000000000000E+000        
  0.000000000000000E+000  0.000000000000000E+000  0.000000000000000E+000        
  0.000000000000000E+000                                                        
   1157.00000000000       3.693000000000000E-003 -7.850000000000000E-004        
  0.000000000000000E+000  0.000000000000000E+000  0.000000000000000E+000        
  0.000000000000000E+000  0.000000000000000E+000  0.000000000000000E+000        
  0.000000000000000E+000                                                        
   326.600000000000       1.536000000000000E-002 -3.324000000000000E-003        
  0.000000000000000E+000  0.000000000000000E+000  0.000000000000000E+000        
  0.000000000000000E+000  0.000000000000000E+000  0.000000000000000E+000        
  0.000000000000000E+000                                                        
   106.100000000000       5.292900000000000E-002 -1.151200000000000E-002        
  0.000000000000000E+000  0.000000000000000E+000  0.000000000000000E+000        
  0.000000000000000E+000  0.000000000000000E+000  0.000000000000000E+000        
  0.000000000000000E+000                                                        
   38.1100000000000       0.147043000000000      -3.416000000000000E-002        
  0.000000000000000E+000  0.000000000000000E+000  0.000000000000000E+000        
  0.000000000000000E+000  0.000000000000000E+000  0.000000000000000E+000        
  0.000000000000000E+000                                                        
   14.7500000000000       0.305631000000000      -7.717300000000001E-002        
  0.000000000000000E+000  0.000000000000000E+000  0.000000000000000E+000        
  0.000000000000000E+000  0.000000000000000E+000  0.000000000000000E+000        
  0.000000000000000E+000                                                        
   6.03500000000000       0.399345000000000      -0.141493000000000             
  0.000000000000000E+000  0.000000000000000E+000  0.000000000000000E+000        
  0.000000000000000E+000  0.000000000000000E+000  0.000000000000000E+000        
  0.000000000000000E+000                                                        
   2.53000000000000       0.217051000000000      -0.118019000000000             
  0.000000000000000E+000  0.000000000000000E+000  0.000000000000000E+000        
  0.000000000000000E+000  0.000000000000000E+000  0.000000000000000E+000        
  0.000000000000000E+000                                                        
  0.735500000000000       1.589400000000000E-002  0.273806000000000             
   1.00000000000000       0.000000000000000E+000  0.000000000000000E+000        
  0.000000000000000E+000  0.000000000000000E+000  0.000000000000000E+000        
  0.000000000000000E+000                                                        
  0.290500000000000      -3.084000000000000E-003  0.586510000000000             
  0.000000000000000E+000   1.00000000000000       0.000000000000000E+000        
  0.000000000000000E+000  0.000000000000000E+000  0.000000000000000E+000        
  0.000000000000000E+000                                                        
  0.111100000000000       9.779999999999999E-004  0.285430000000000             
  0.000000000000000E+000  0.000000000000000E+000   1.00000000000000             
  0.000000000000000E+000  0.000000000000000E+000  0.000000000000000E+000        
  0.000000000000000E+000                                                        
   7.21600000000000       0.000000000000000E+000  0.000000000000000E+000        
  0.000000000000000E+000  0.000000000000000E+000  0.000000000000000E+000        
   1.00000000000000       0.000000000000000E+000  0.000000000000000E+000        
  0.000000000000000E+000                                                        
   19.5700000000000       0.000000000000000E+000  0.000000000000000E+000        
  0.000000000000000E+000  0.000000000000000E+000  0.000000000000000E+000        
  0.000000000000000E+000   1.00000000000000       0.000000000000000E+000        
  0.000000000000000E+000                                                        
   53.0730000000000       0.000000000000000E+000  0.000000000000000E+000        
  0.000000000000000E+000  0.000000000000000E+000  0.000000000000000E+000        
  0.000000000000000E+000  0.000000000000000E+000   1.00000000000000             
  0.000000000000000E+000                                                        
  4.145000000000000E-002  0.000000000000000E+000  0.000000000000000E+000        
  0.000000000000000E+000  0.000000000000000E+000  0.000000000000000E+000        
  0.000000000000000E+000  0.000000000000000E+000  0.000000000000000E+000        
   1.00000000000000                                                             
   10    8                                                                      
   34.5100000000000       5.378000000000000E-003  0.000000000000000E+000        
  0.000000000000000E+000  0.000000000000000E+000  0.000000000000000E+000        
  0.000000000000000E+000  0.000000000000000E+000  0.000000000000000E+000        
   7.91500000000000       3.613200000000000E-002  0.000000000000000E+000        
  0.000000000000000E+000  0.000000000000000E+000  0.000000000000000E+000        
  0.000000000000000E+000  0.000000000000000E+000  0.000000000000000E+000        
   2.36800000000000       0.142493000000000       0.000000000000000E+000        
  0.000000000000000E+000  0.000000000000000E+000  0.000000000000000E+000        
  0.000000000000000E+000  0.000000000000000E+000  0.000000000000000E+000        
  0.813200000000000       0.342150000000000        1.00000000000000             
  0.000000000000000E+000  0.000000000000000E+000  0.000000000000000E+000        
  0.000000000000000E+000  0.000000000000000E+000  0.000000000000000E+000        
  0.289000000000000       0.463864000000000       0.000000000000000E+000        
   1.00000000000000       0.000000000000000E+000  0.000000000000000E+000        
  0.000000000000000E+000  0.000000000000000E+000  0.000000000000000E+000        
  0.100700000000000       0.250028000000000       0.000000000000000E+000        
  0.000000000000000E+000   1.00000000000000       0.000000000000000E+000        
  0.000000000000000E+000  0.000000000000000E+000  0.000000000000000E+000        
   8.18200000000000       0.000000000000000E+000  0.000000000000000E+000        
  0.000000000000000E+000  0.000000000000000E+000   1.00000000000000             
  0.000000000000000E+000  0.000000000000000E+000  0.000000000000000E+000        
   24.1860000000000       0.000000000000000E+000  0.000000000000000E+000        
  0.000000000000000E+000  0.000000000000000E+000  0.000000000000000E+000        
   1.00000000000000       0.000000000000000E+000  0.000000000000000E+000        
   71.4940000000000       0.000000000000000E+000  0.000000000000000E+000        
  0.000000000000000E+000  0.000000000000000E+000  0.000000000000000E+000        
  0.000000000000000E+000   1.00000000000000       0.000000000000000E+000        
  3.218000000000000E-002  0.000000000000000E+000  0.000000000000000E+000        
  0.000000000000000E+000  0.000000000000000E+000  0.000000000000000E+000        
  0.000000000000000E+000  0.000000000000000E+000   1.00000000000000             
    6    6                                                                      
   1.84800000000000        1.00000000000000       0.000000000000000E+000        
  0.000000000000000E+000  0.000000000000000E+000  0.000000000000000E+000        
  0.000000000000000E+000                                                        
  0.649000000000000       0.000000000000000E+000   1.00000000000000             
  0.000000000000000E+000  0.000000000000000E+000  0.000000000000000E+000        
  0.000000000000000E+000                                                        
  0.228000000000000       0.000000000000000E+000  0.000000000000000E+000        
   1.00000000000000       0.000000000000000E+000  0.000000000000000E+000        
  0.000000000000000E+000                                                        
   8.65600000000000       0.000000000000000E+000  0.000000000000000E+000        
  0.000000000000000E+000   1.00000000000000       0.000000000000000E+000        
  0.000000000000000E+000                                                        
   33.2130000000000       0.000000000000000E+000  0.000000000000000E+000        
  0.000000000000000E+000  0.000000000000000E+000   1.00000000000000             
  0.000000000000000E+000                                                        
  7.660000000000000E-002  0.000000000000000E+000  0.000000000000000E+000        
  0.000000000000000E+000  0.000000000000000E+000  0.000000000000000E+000        
   1.00000000000000                                                             
    4    4                                                                      
   1.41900000000000        1.00000000000000       0.000000000000000E+000        
  0.000000000000000E+000  0.000000000000000E+000                                
  0.485000000000000       0.000000000000000E+000   1.00000000000000             
  0.000000000000000E+000  0.000000000000000E+000                                
   24.6940000000000       0.000000000000000E+000  0.000000000000000E+000        
   1.00000000000000       0.000000000000000E+000                                
  0.187000000000000       0.000000000000000E+000  0.000000000000000E+000        
  0.000000000000000E+000   1.00000000000000                                     
    2    2                                                                      
   1.01100000000000        1.00000000000000       0.000000000000000E+000        
  0.424000000000000       0.000000000000000E+000   1.00000000000000             
          8.00000000    1    5    1    1    1    1    1                         
O #2   0.000000000000000   0.000000000000000  -0.841543907654637                
   16    9                                                                      
   61420.0000000000       9.000000000000001E-005 -2.000000000000000E-005        
  0.000000000000000E+000  0.000000000000000E+000  0.000000000000000E+000        
  0.000000000000000E+000  0.000000000000000E+000  0.000000000000000E+000        
  0.000000000000000E+000                                                        
   9199.00000000000       6.980000000000001E-004 -1.590000000000000E-004        
  0.000000000000000E+000  0.000000000000000E+000  0.000000000000000E+000        
  0.000000000000000E+000  0.000000000000000E+000  0.000000000000000E+000        
  0.000000000000000E+000                                                        
   2091.00000000000       3.664000000000000E-003 -8.290000000000000E-004        
  0.000000000000000E+000  0.000000000000000E+000  0.000000000000000E+000        
  0.000000000000000E+000  0.000000000000000E+000  0.000000000000000E+000        
  0.000000000000000E+000                                                        
   590.900000000000       1.521800000000000E-002 -3.508000000000000E-003        
  0.000000000000000E+000  0.000000000000000E+000  0.000000000000000E+000        
  0.000000000000000E+000  0.000000000000000E+000  0.000000000000000E+000        
  0.000000000000000E+000                                                        
   192.300000000000       5.242300000000000E-002 -1.215600000000000E-002        
  0.000000000000000E+000  0.000000000000000E+000  0.000000000000000E+000        
  0.000000000000000E+000  0.000000000000000E+000  0.000000000000000E+000        
  0.000000000000000E+000                                                        
   69.3200000000000       0.145921000000000      -3.626100000000000E-002        
  0.000000000000000E+000  0.000000000000000E+000  0.000000000000000E+000        
  0.000000000000000E+000  0.000000000000000E+000  0.000000000000000E+000        
  0.000000000000000E+000                                                        
   26.9700000000000       0.305258000000000      -8.299200000000000E-002        
  0.000000000000000E+000  0.000000000000000E+000  0.000000000000000E+000        
  0.000000000000000E+000  0.000000000000000E+000  0.000000000000000E+000        
  0.000000000000000E+000                                                        
   11.1000000000000       0.398508000000000      -0.152090000000000             
  0.000000000000000E+000  0.000000000000000E+000  0.000000000000000E+000        
  0.000000000000000E+000  0.000000000000000E+000  0.000000000000000E+000        
  0.000000000000000E+000                                                        
   4.68200000000000       0.216980000000000      -0.115331000000000             
  0.000000000000000E+000  0.000000000000000E+000  0.000000000000000E+000        
  0.000000000000000E+000  0.000000000000000E+000  0.000000000000000E+000        
  0.000000000000000E+000                                                        
   1.42800000000000       1.759400000000000E-002  0.288979000000000             
   1.00000000000000       0.000000000000000E+000  0.000000000000000E+000        
  0.000000000000000E+000  0.000000000000000E+000  0.000000000000000E+000        
  0.000000000000000E+000                                                        
  0.554700000000000      -2.502000000000000E-003  0.586128000000000             
  0.000000000000000E+000   1.00000000000000       0.000000000000000E+000        
  0.000000000000000E+000  0.000000000000000E+000  0.000000000000000E+000        
  0.000000000000000E+000                                                        
  0.206700000000000       9.540000000000000E-004  0.277624000000000             
  0.000000000000000E+000  0.000000000000000E+000   1.00000000000000             
  0.000000000000000E+000  0.000000000000000E+000  0.000000000000000E+000        
  0.000000000000000E+000                                                        
   12.9740000000000       0.000000000000000E+000  0.000000000000000E+000        
  0.000000000000000E+000  0.000000000000000E+000  0.000000000000000E+000        
   1.00000000000000       0.000000000000000E+000  0.000000000000000E+000        
  0.000000000000000E+000                                                        
   34.9000000000000       0.000000000000000E+000  0.000000000000000E+000        
  0.000000000000000E+000  0.000000000000000E+000  0.000000000000000E+000        
  0.000000000000000E+000   1.00000000000000       0.000000000000000E+000        
  0.000000000000000E+000                                                        
   93.8810000000000       0.000000000000000E+000  0.000000000000000E+000        
  0.000000000000000E+000  0.000000000000000E+000  0.000000000000000E+000        
  0.000000000000000E+000  0.000000000000000E+000   1.00000000000000             
  0.000000000000000E+000                                                        
  6.959000000000000E-002  0.000000000000000E+000  0.000000000000000E+000        
  0.000000000000000E+000  0.000000000000000E+000  0.000000000000000E+000        
  0.000000000000000E+000  0.000000000000000E+000  0.000000000000000E+000        
   1.00000000000000                                                             
   10    8                                                                      
   63.4200000000000       6.044000000000000E-003  0.000000000000000E+000        
  0.000000000000000E+000  0.000000000000000E+000  0.000000000000000E+000        
  0.000000000000000E+000  0.000000000000000E+000  0.000000000000000E+000        
   14.6600000000000       4.179900000000000E-002  0.000000000000000E+000        
  0.000000000000000E+000  0.000000000000000E+000  0.000000000000000E+000        
  0.000000000000000E+000  0.000000000000000E+000  0.000000000000000E+000        
   4.45900000000000       0.161143000000000       0.000000000000000E+000        
  0.000000000000000E+000  0.000000000000000E+000  0.000000000000000E+000        
  0.000000000000000E+000  0.000000000000000E+000  0.000000000000000E+000        
   1.53100000000000       0.356731000000000        1.00000000000000             
  0.000000000000000E+000  0.000000000000000E+000  0.000000000000000E+000        
  0.000000000000000E+000  0.000000000000000E+000  0.000000000000000E+000        
  0.530200000000000       0.448309000000000       0.000000000000000E+000        
   1.00000000000000       0.000000000000000E+000  0.000000000000000E+000        
  0.000000000000000E+000  0.000000000000000E+000  0.000000000000000E+000        
  0.175000000000000       0.244940000000000       0.000000000000000E+000        
  0.000000000000000E+000   1.00000000000000       0.000000000000000E+000        
  0.000000000000000E+000  0.000000000000000E+000  0.000000000000000E+000        
   14.4750000000000       0.000000000000000E+000  0.000000000000000E+000        
  0.000000000000000E+000  0.000000000000000E+000   1.00000000000000             
  0.000000000000000E+000  0.000000000000000E+000  0.000000000000000E+000        
   42.7300000000000       0.000000000000000E+000  0.000000000000000E+000        
  0.000000000000000E+000  0.000000000000000E+000  0.000000000000000E+000        
   1.00000000000000       0.000000000000000E+000  0.000000000000000E+000        
   126.140000000000       0.000000000000000E+000  0.000000000000000E+000        
  0.000000000000000E+000  0.000000000000000E+000  0.000000000000000E+000        
  0.000000000000000E+000   1.00000000000000       0.000000000000000E+000        
  5.348000000000000E-002  0.000000000000000E+000  0.000000000000000E+000        
  0.000000000000000E+000  0.000000000000000E+000  0.000000000000000E+000        
  0.000000000000000E+000  0.000000000000000E+000   1.00000000000000             
    6    6                                                                      
   3.77500000000000        1.00000000000000       0.000000000000000E+000        
  0.000000000000000E+000  0.000000000000000E+000  0.000000000000000E+000        
  0.000000000000000E+000                                                        
   1.30000000000000       0.000000000000000E+000   1.00000000000000             
  0.000000000000000E+000  0.000000000000000E+000  0.000000000000000E+000        
  0.000000000000000E+000                                                        
  0.444000000000000       0.000000000000000E+000  0.000000000000000E+000        
   1.00000000000000       0.000000000000000E+000  0.000000000000000E+000        
  0.000000000000000E+000                                                        
   14.9270000000000       0.000000000000000E+000  0.000000000000000E+000        
  0.000000000000000E+000   1.00000000000000       0.000000000000000E+000        
  0.000000000000000E+000                                                        
   57.5440000000000       0.000000000000000E+000  0.000000000000000E+000        
  0.000000000000000E+000  0.000000000000000E+000   1.00000000000000             
  0.000000000000000E+000                                                        
  0.154000000000000       0.000000000000000E+000  0.000000000000000E+000        
  0.000000000000000E+000  0.000000000000000E+000  0.000000000000000E+000        
   1.00000000000000                                                             
    4    4                                                                      
   2.66600000000000        1.00000000000000       0.000000000000000E+000        
  0.000000000000000E+000  0.000000000000000E+000                                
  0.859000000000000       0.000000000000000E+000   1.00000000000000             
  0.000000000000000E+000  0.000000000000000E+000                                
   26.4830000000000       0.000000000000000E+000  0.000000000000000E+000        
   1.00000000000000       0.000000000000000E+000                                
  0.324000000000000       0.000000000000000E+000  0.000000000000000E+000        
  0.000000000000000E+000   1.00000000000000                                     
    2    2                                                                      
   1.84600000000000        1.00000000000000       0.000000000000000E+000        
  0.714000000000000       0.000000000000000E+000   1.00000000000000             
FINISH                                                                          
 
********************************************************************************
 ONE- AND TWO-ELECTRON INTEGRALS OVER SYMMETRY-ADAPTED AOS ARE CALCULATED.

  SPHERICAL HARMONICS ARE USED.
  
  INTEGRALS LESS THAN  0.10E-13 ARE NEGLECTED.

  NUCLEAR REPULSION ENERGY :   25.5768931667 A.U.
  @MOLECU-I, ONE ELECTRON INTEGRALS (CPU/WALL):        0.06/       0.08 SECONDS.
  @TWOEL-I,    4668550 INTEGRALS OF SYMMETRY TYPE  I I I I
  @TWOEL-I,   19975035 INTEGRALS OF SYMMETRY TYPE  I J I J
  @TWOEL-I,   10534114 INTEGRALS OF SYMMETRY TYPE  I I J J
  @TWOEL-I,   14757758 INTEGRALS OF SYMMETRY TYPE  I J K L
  @TWOEL-I, TOTAL NUMBER OF 2-E INTEGRALS   49935457.
  @MOLECU-I, TWO ELECTRON INTEGRALS (CPU/WALL):      197.01/      27.54 SECONDS.
 @CHECKOUT-I, Total execution time (CPU/WALL):      197.09/      27.64 seconds.

Running with 14 threads/proc

--executable xvmol finished with status     0 in       27.68 seconds (walltime).
 --invoking executable--
/nfs/workspaces/public/cfour_mpi/bin/xvmol2ja
 @GETMEM-I,  Allocated    3814 MB of main memory.
 @CHECKOUT-I, Total execution time (CPU/WALL):        0.41/       0.10 seconds.
--executable xvmol2ja finished with status     0 in        0.12 seconds (walltime).
 --invoking executable--
/nfs/workspaces/public/cfour_mpi/bin/xvprop
 @GETMEM-I,  Allocated    3814 MB of main memory.
   Property integrals will be calculated.
    --------------------------------------------------------------
                                   Property evaluated at 
    Property type                X             Y             Z
    --------------------------------------------------------------
    Dipole moment               ----          ----          ----  
    Quadrupole moment           ----          ----          ----  
    Octopole moment             ----          ----          ----  
    Relativisitic corr.         ----          ----          ----  
    Second moment            0.0000000     0.0000000     0.0000000
    Electron density         0.0000000     0.0000000     1.0351500
    Electron density         0.0000000     0.0000000    -0.8415439
    Field gradient           0.0000000     0.0000000     1.0351500
    Field gradient           0.0000000     0.0000000    -0.8415439
    Potential                0.0000000     0.0000000     1.0351500
    Potential                0.0000000     0.0000000    -0.8415439
    --------------------------------------------------------------
 @CHECKOUT-I, Total execution time (CPU/WALL):        1.40/       1.44 seconds.
--executable xvprop finished with status     0 in        1.47 seconds (walltime).
 --invoking executable--
/nfs/workspaces/public/cfour_mpi/bin/xvscf
  There are  218 functions in the AO basis.

  There are 4 irreducible representations.

       Irrep        # of functions
         1                 86
         2                 52
         3                 52
         4                 28


  Parameters for SCF calculation: 
        SCF reference function:  RHF  
  Maximum number of iterations:  150
     Full symmetry point group: CXv 
     Computational point group: C2v 
        Initial density matrix: MOREAD                 
     SCF convergence tolerance: 10**(-10)
  DIIS convergence acceleration:  ON
          Latest start for DIIS:   8
                     DIIS order:   6

  Memory information:    2523578 words required.
  Fock matrices are constructed from AO integral file.
 @GETMEM-I,  Allocated      19 MB of main memory.
  Initialization and symmetry analysis required      0.001 seconds.

  Adding electric field perturbation to one-electron Hamiltonian.
  Field direction     : Z
  Field strength      :  0.0002000 a.u.

  @INITGES-I, Occupancies from core Hamiltonian:

          Alpha population by irrep:   5    1    1    0
           Beta population by irrep:   5    1    1    0


 total no. of electrons in initial guess :  0.000000000000000E+000
  --------------------------------------------------------------------
  Iteration         Total Energy            Largest Density Difference
  --------------------------------------------------------------------
       0            25.576997456899065              0.0000000000D+00
   current occupation vector 
     5  1  1  0
     5  1  1  0
       1           -90.496521939177342              0.1986166763D+02
   current occupation vector 
     5  1  1  0
     5  1  1  0
       2           -93.019423578927430              0.1001784156D+03
   current occupation vector 
     5  1  1  0
     5  1  1  0
       3          -103.458194273313708              0.1001655588D+03
   current occupation vector 
     5  1  1  0
     5  1  1  0
       4          -100.880799746794253              0.1406886089D+02
   current occupation vector 
     5  1  1  0
     5  1  1  0
       5          -105.763350538221360              0.1409097496D+02
   current occupation vector 
     5  1  1  0
     5  1  1  0
       6          -103.132449770339676              0.9164932201D+01
   current occupation vector 
     5  1  1  0
     5  1  1  0
       7          -104.726558281323619              0.8931462911D+01
   current occupation vector 
     5  1  1  0
     5  1  1  0
       8          -102.094044201539248              0.5136677661D+01
   current occupation vector 
     5  1  1  0
     5  1  1  0
       9          -111.711096724327675              0.3373027103D+01
   current occupation vector 
     5  1  1  0
     5  1  1  0
      10          -112.611834823993163              0.8401597663D+00
   current occupation vector 
     5  1  1  0
     5  1  1  0
      11          -112.747849095738289              0.3180414746D+00
   current occupation vector 
     5  1  1  0
     5  1  1  0
      12          -112.749282449217489              0.3176967037D-01
   current occupation vector 
     5  1  1  0
     5  1  1  0
      13          -112.749343756953621              0.1192359884D-01
   current occupation vector 
     5  1  1  0
     5  1  1  0
      14          -112.749347546703902              0.2817195290D-02
   current occupation vector 
     5  1  1  0
     5  1  1  0
      15          -112.749347664303244              0.3713007568D-03
   current occupation vector 
     5  1  1  0
     5  1  1  0
      16          -112.749347667111053              0.4329099559D-04
   current occupation vector 
     5  1  1  0
     5  1  1  0
      17          -112.749347667253787              0.1716387169D-04
   current occupation vector 
     5  1  1  0
     5  1  1  0
      18          -112.749347667266605              0.2404490355D-05
   current occupation vector 
     5  1  1  0
     5  1  1  0
      19          -112.749347667265667              0.5600191517D-06
   current occupation vector 
     5  1  1  0
     5  1  1  0
      20          -112.749347667264928              0.6262839336D-07
   current occupation vector 
     5  1  1  0
     5  1  1  0
      21          -112.749347667265809              0.2256549492D-07
   current occupation vector 
     5  1  1  0
     5  1  1  0
      22          -112.749347667264587              0.4687901178D-08
   current occupation vector 
     5  1  1  0
     5  1  1  0
      23          -112.749347667265297              0.8521255923D-09
   current occupation vector 
     5  1  1  0
     5  1  1  0
      24          -112.749347667266122              0.2272266819D-09
   current occupation vector 
     5  1  1  0
     5  1  1  0
      25          -112.749347667264189              0.1301531105D-09
   current occupation vector 
     5  1  1  0
     5  1  1  0

  SCF has converged.

 Density matrix saved to file den.dat
 total electron number:   13.9999999999999     
     E(SCF)=      -112.749347667265525              0.6531464258D-10

  Eigenvector printing suppressed.

 @PUTMOS-I, Writing converged MOs to NEWMOS. 
 @PUTMOS-I, Symmetry   1 Full Blocks 21 Partial Blocksize   2
 @PUTMOS-I, Symmetry   2 Full Blocks 13 Partial Blocksize   0
 @PUTMOS-I, Symmetry   3 Full Blocks 13 Partial Blocksize   0
 @PUTMOS-I, Symmetry   4 Full Blocks  7 Partial Blocksize   0
 @PUTFOCK-I, Writing converged Fock matrix to NEWFOCK. 
 @PUTFOCK-I, Symmetry   1 Full Blocks 21 Partial Blocksize   2
 @PUTFOCK-I, Symmetry   2 Full Blocks 13 Partial Blocksize   0
 @PUTFOCK-I, Symmetry   3 Full Blocks 13 Partial Blocksize   0
 @PUTFOCK-I, Symmetry   4 Full Blocks  7 Partial Blocksize   0


 
  ORBITAL EIGENVALUES (ALPHA)  (1H = 27.2113834 eV)

       MO #        E(hartree)               E(eV)           FULLSYM    COMPSYM
       ----   --------------------   --------------------   -------   ---------
    1     1         -20.6557372795        -562.0711865233     SG+        A1 (1)
    2     2         -11.2981739020        -307.4389417682     SG+        A1 (1)
    3     3          -1.6178516260         -44.0239808787     SG+        A1 (1)
    4     4          -0.8165355069         -22.2190607371     SG+        A1 (1)
    5   139          -0.7064874518         -19.2245009189      PI        B2 (3)
    6    87          -0.7064874518         -19.2245009189      PI        B1 (2)
    7     5          -0.5355171072         -14.5721613226     SG+        A1 (1)
  +++++++++++++++++++++++++++++++++++++++++++++++++++++++++++++++++++++++++++++
    8     6           0.0571274074           1.5545157849     SG+        A1 (1)
    9   140           0.0652512514           1.7755768197      PI        B2 (3)
   10    88           0.0652512514           1.7755768197      PI        B1 (2)
   11     7           0.0776669868           2.1134261549     SG+        A1 (1)
   12    89           0.1542968567           4.1986309239      PI        B1 (2)
   13   141           0.1542968567           4.1986309240      PI        B2 (3)
   14     8           0.1558459049           4.2407826703     SG+        A1 (1)
   15    90           0.1911432140           5.2012712806      PI        B1 (2)
   16   142           0.1911432140           5.2012712806      PI        B2 (3)
   17     9           0.2267556593           6.1703351830     SG+        A1 (1)
   18   191           0.2278226679           6.1993699646      DE        A2 (4)
   19    10           0.2278226679           6.1993699646      DE        A1 (1)
   20    11           0.3027333338           8.2377928135     SG+        A1 (1)
   21    91           0.3380158795           9.1978796928      PI        B1 (2)
   22   143           0.3380158795           9.1978796928      PI        B2 (3)
   23    12           0.3973079013          10.8112976306     SG+        A1 (1)
   24    92           0.4020476085          10.9402716192      PI        B1 (2)
   25   144           0.4020476085          10.9402716192      PI        B2 (3)
   26    13           0.5075632340          13.8114977601     SG+        A1 (1)
   27   192           0.5241821585          14.2637216872      DE        A2 (4)
   28    14           0.5241821585          14.2637216872      DE        A1 (1)
   29   145           0.6183942905          16.8273641307      PI        B2 (3)
   30    93           0.6183942905          16.8273641307      PI        B1 (2)
   31    15           0.6616010118          18.0030787893     SG+        A1 (1)
   32   146           0.7504619234          20.4211071260      PH        B2 (3)
   33    94           0.7504619234          20.4211071260      PH        B1 (2)
   34   193           0.7708283427          20.9753055678      DE        A2 (4)
   35    16           0.7708283427          20.9753055678      DE        A1 (1)
   36    17           0.7893754416          21.4799977866     SG+        A1 (1)
   37    95           0.8414046389          22.8957842236      PI        B1 (2)
   38   147           0.8414046389          22.8957842236      PI        B2 (3)
   39    96           0.8723367547          23.7374898852      PI        B1 (2)
   40   148           0.8723367547          23.7374898853      PI        B2 (3)
   41    18           0.8775832884          23.8802553263     SG+        A1 (1)
   42   194           0.9025824896          24.5605181749      DE        A2 (4)
   43    19           0.9025824896          24.5605181749      DE        A1 (1)
   44    20           0.9560706190          26.0160041704     SG+        A1 (1)
   45    97           1.1129734773          30.2855480041      PI        B1 (2)
   46   149           1.1129734773          30.2855480042      PI        B2 (3)
   47    21           1.3183103558          35.8730485310     SG+        A1 (1)
   48   150           1.4565436020          39.6345663925      PH        B2 (3)
   49    98           1.4565436020          39.6345663925      PH        B1 (2)
   50   195           1.5000858465          40.8194111013      DE        A2 (4)
   51    22           1.5000858465          40.8194111013      DE        A1 (1)
   52   151           1.5317048745          41.6798085958      PI        B2 (3)
   53    99           1.5317048745          41.6798085958      PI        B1 (2)
   54    23           1.5471059300          42.0988926221     SG+        A1 (1)
   55    24           1.6545528366          45.0226715934     SG+        A1 (1)
   56    25           1.7549052311          47.7533990744     SG+        A1 (1)
   57   196           1.7764270360          48.3390371600      DE        A2 (4)
   58    26           1.7764270361          48.3390371602      DE        A1 (1)
   59   100           1.8702114806          50.8910416366      PI        B1 (2)
   60   152           1.8702114806          50.8910416366      PI        B2 (3)
   61   101           1.9679165104          53.5497306630      PI        B1 (2)
   62   153           1.9679165104          53.5497306630      PI        B2 (3)
   63   197           2.1138082077          57.5196455746      PI        A2 (4)
   64    27           2.1138082077          57.5196455746      PI        A1 (1)
   65    28           2.2134850866          60.2319913415     SG+        A1 (1)
   66   198           2.2277014471          60.6188381771      DE        A2 (4)
   67    29           2.2277014471          60.6188381771      DE        A1 (1)
   68   102           2.2619403391          61.5505257942      PH        B1 (2)
   69   154           2.2619403391          61.5505257942      PH        B2 (3)
   70    30           2.3376116019          63.6096455402     SG+        A1 (1)
   71   103           2.3501817467          63.9516965685      PI        B1 (2)
   72   155           2.3501817467          63.9516965685      PI        B2 (3)
   73   199           2.3845515101          64.8869453791      DE        A2 (4)
   74    31           2.3845515101          64.8869453791      DE        A1 (1)
   75   104           2.4153543690          65.7251337807      PH        B1 (2)
   76   156           2.4153543690          65.7251337808      PH        B2 (3)
   77    32           2.5664783116          69.8374253248     SG+        A1 (1)
   78   157           2.6112286110          71.0551428783      PI        B2 (3)
   79   105           2.6112286110          71.0551428783      PI        B1 (2)
   80   106           2.9837153121          81.1910213145      PI        B1 (2)
   81   158           2.9837153121          81.1910213145      PI        B2 (3)
   82   200           3.1171059835          84.8207660163      DE        A2 (4)
   83    33           3.1171059835          84.8207660166      DE        A1 (1)
   84    34           3.1195026761          84.8859833354     SG+        A1 (1)
   85    35           3.3983271549          92.4731831308     SG+        A1 (1)
   86   159           3.7570628623         102.2348780039      PI        B2 (3)
   87   107           3.7570628623         102.2348780039      PI        B1 (2)
   88    36           3.7574007185         102.2440715386      PI        A1 (1)
   89   201           3.7574007185         102.2440715386      PI        A2 (4)
   90    37           3.9900641791         108.5751661671     SG+        A1 (1)
   91   160           4.0675225140         110.6829146168      PH        B2 (3)
   92   108           4.0675225140         110.6829146168      PH        B1 (2)
   93   202           4.1794592810         113.7288689011      DE        A2 (4)
   94    38           4.1794592810         113.7288689011      DE        A1 (1)
   95   109           4.2112233500         114.5932131609      PI        B1 (2)
   96   161           4.2112233500         114.5932131609      PI        B2 (3)
   97    39           4.3239080663         117.6595201775     SG+        A1 (1)
   98   203           4.4422050973         120.8785460433      DE        A2 (4)
   99    40           4.4422050973         120.8785460434      DE        A1 (1)
  100   110           4.4455651455         120.9699776045      PH        B1 (2)
  101   162           4.4455651455         120.9699776045      PH        B2 (3)
  102    41           4.6867369029         127.5325947591     SG+        A1 (1)
  103   163           4.8487881055         131.9422321647      PI        B2 (3)
  104   111           4.8487881055         131.9422321647      PI        B1 (2)
  105    42           5.0343419014         136.9914076467     SG+        A1 (1)
  106   204           5.1996973488         141.4909581212      DE        A2 (4)
  107    43           5.1996973488         141.4909581214      DE        A1 (1)
  108   112           5.3017739725         144.2686042645      PI        B1 (2)
  109   164           5.3017739725         144.2686042646      PI        B2 (3)
  110    44           5.9220384564         161.1468589459      PI        A1 (1)
  111   205           5.9220384564         161.1468589459      PI        A2 (4)
  112   113           5.9641982769         162.2940859868      PI        B1 (2)
  113   165           5.9641982769         162.2940859870      PI        B2 (3)
  114    45           6.1710991369         167.9241446130     SG+        A1 (1)
  115   166           6.2772386355         170.8123472044      PH        B2 (3)
  116   114           6.2772386355         170.8123472044      PH        B1 (2)
  117    46           6.2868114155         171.0728357896     SG+        A1 (1)
  118   206           6.3347710272         172.3778831715      DE        A2 (4)
  119    47           6.3347710272         172.3778831715      DE        A1 (1)
  120   115           6.3814380802         173.6477582445      PI        B1 (2)
  121   167           6.3814380802         173.6477582445      PI        B2 (3)
  122   168           6.4931395191         176.6873089242      PH        B2 (3)
  123   116           6.4931395191         176.6873089242      PH        B1 (2)
  124   207           6.7081898958         182.5391271746      DE        A2 (4)
  125    48           6.7081898958         182.5391271746      DE        A1 (1)
  126    49           7.1375424634         194.2224045066     SG+        A1 (1)
  127   169           7.8461864422         213.5055875061      PI        B2 (3)
  128   117           7.8461864422         213.5055875061      PI        B1 (2)
  129   208           7.9272104723         215.7103634541      DE        A2 (4)
  130    50           7.9272104723         215.7103634542      DE        A1 (1)
  131    51           8.3161853443         226.2949078287     SG+        A1 (1)
  132    52           8.7624831855         238.4392894960     SG+        A1 (1)
  133   118           8.8793663297         241.6198415456      PI        B1 (2)
  134   170           8.8793663297         241.6198415458      PI        B2 (3)
  135    53           9.9164815681         269.8411819284     SG+        A1 (1)
  136   171          10.1530776707         276.2792891885      PI        B2 (3)
  137   119          10.1530776707         276.2792891887      PI        B1 (2)
  138    54          10.6029199535         288.5201200149      PI        A1 (1)
  139   209          10.6029199535         288.5201200149      PI        A2 (4)
  140   120          11.0045873965         299.4500468052      PH        B1 (2)
  141   172          11.0045873965         299.4500468052      PH        B2 (3)
  142   210          11.2989283193         307.4594705061      DE        A2 (4)
  143    55          11.2989283193         307.4594705061      DE        A1 (1)
  144    56          11.3381297090         308.5261945516     SG+        A1 (1)
  145   121          11.4378810492         311.2405665126      PI        B1 (2)
  146   173          11.4378810492         311.2405665126      PI        B2 (3)
  147   174          11.8657067468         322.8822955998      PH        B2 (3)
  148   122          11.8657067468         322.8822955998      PH        B1 (2)
  149   211          12.4298370546         338.2330616918      DE        A2 (4)
  150    57          12.4298370546         338.2330616922      DE        A1 (1)
  151    58          12.5496273411         341.4927211064     SG+        A1 (1)
  152   175          13.0493547097         355.0909941290      PI        B2 (3)
  153   123          13.0493547097         355.0909941290      PI        B1 (2)
  154   212          13.0514076715         355.1468580576      DE        A2 (4)
  155    59          13.0514076715         355.1468580577      DE        A1 (1)
  156    60          13.9763527197         380.3158923900     SG+        A1 (1)
  157   124          14.9592352610         407.0614860583      PI        B1 (2)
  158   176          14.9592352610         407.0614860583      PI        B2 (3)
  159    61          15.7264397905         427.9381826563     SG+        A1 (1)
  160    62          18.6372370116         507.1450018387     SG+        A1 (1)
  161   125          19.6346984467         534.2873073773      PI        B1 (2)
  162   177          19.6346984468         534.2873073780      PI        B2 (3)
  163    63          21.3408642660         580.7144396286     SG+        A1 (1)
  164   213          26.7048294376         726.6753524582      DE        A2 (4)
  165    64          26.7048294376         726.6753524582      DE        A1 (1)
  166   126          27.5678208420         750.1585424330      PI        B1 (2)
  167   178          27.5678208420         750.1585424330      PI        B2 (3)
  168    65          28.8252853124         784.3758902509     SG+        A1 (1)
  169   179          33.9264749220         923.1863165118      PI        B2 (3)
  170   127          33.9264749220         923.1863165123      PI        B1 (2)
  171    66          35.7825083882         973.6915547644     SG+        A1 (1)
  172    67          37.4097564284        1017.9712250731     SG+        A1 (1)
  173    68          47.1878549948        1284.0468140861      DE        A1 (1)
  174   214          47.1878549948        1284.0468140861      DE        A2 (4)
  175   180          48.1020374367        1308.9229830123      PI        B2 (3)
  176   128          48.1020374367        1308.9229830124      PI        B1 (2)
  177    69          48.7770295598        1327.2904524636     SG+        A1 (1)
  178    70          64.7200711401        1761.1226694690     SG+        A1 (1)
  179   129          67.0656949016        1824.9503369550      PI        B1 (2)
  180   181          67.0656949016        1824.9503369553      PI        B2 (3)
  181    71          68.3409120617        1859.6507600179     SG+        A1 (1)
  182   182          98.7481137689        2687.0727837922      PH        B2 (3)
  183   130          98.7481137689        2687.0727837922      PH        B1 (2)
  184    72          98.7898021466        2688.2071822222      DE        A1 (1)
  185   215          98.7898021466        2688.2071822222      DE        A2 (4)
  186   183          98.8591036717        2690.0929725904      PI        B2 (3)
  187   131          98.8591036717        2690.0929725904      PI        B1 (2)
  188    73          98.8956784081        2691.0882217648     SG+        A1 (1)
  189   184         103.2962289358        2810.8332893473      PH        B2 (3)
  190   132         103.2962289358        2810.8332893473      PH        B1 (2)
  191   216         103.3633983319        2812.6610615358      DE        A2 (4)
  192    74         103.3633983319        2812.6610615369      DE        A1 (1)
  193   133         103.4232210682        2814.2889209489      PI        B1 (2)
  194   185         103.4232210682        2814.2889209490      PI        B2 (3)
  195    75         103.5204970720        2816.9359355846     SG+        A1 (1)
  196   217         115.3151257023        3137.8840973053      DE        A2 (4)
  197    76         115.3151257023        3137.8840973053      DE        A1 (1)
  198   134         115.7356522501        3149.3272064259      PI        B1 (2)
  199   186         115.7356522501        3149.3272064259      PI        B2 (3)
  200    77         116.2511978295        3163.3559148489     SG+        A1 (1)
  201   187         117.1585722153        3188.0468271467      PI        B2 (3)
  202   135         117.1585722153        3188.0468271473      PI        B1 (2)
  203    78         118.9142824890        3235.8221325444     SG+        A1 (1)
  204    79         123.2946799493        3355.0188072798     SG+        A1 (1)
  205    80         198.6266467205        5404.9058373679      DE        A1 (1)
  206   218         198.6266467205        5404.9058373679      DE        A2 (4)
  207   188         199.1302441050        5418.6094188754      PI        B2 (3)
  208   136         199.1302441050        5418.6094188756      PI        B1 (2)
  209    81         199.5012278700        5428.7044003408     SG+        A1 (1)
  210    82         217.1416498110        5908.7246851167     SG+        A1 (1)
  211   137         225.4608263463        6135.1009873906      PI        B1 (2)
  212   189         225.4608263463        6135.1009873908      PI        B2 (3)
  213    83         226.4924832062        6163.1737977421     SG+        A1 (1)
  214   190         395.5936750595       10764.6511626581      PI        B2 (3)
  215   138         395.5936750595       10764.6511626590      PI        B1 (2)
  216    84         396.8737377209       10799.4834385146     SG+        A1 (1)
  217    85         509.7304197974       13870.4698837502     SG+        A1 (1)
  218    86         895.9957283874       24381.2832899106     SG+        A1 (1)


  VSCF finished.

 @CHECKOUT-I, Total execution time (CPU/WALL):       47.36/       9.76 seconds.
--executable xvscf finished with status     0 in        9.79 seconds (walltime).
 --invoking executable--
/nfs/workspaces/public/cfour_mpi/bin/xvtran
 @GETMEM-I,  Allocated    3814 MB of main memory.
  Full RHF integral transformation
  Transformation of IIII integrals :
  1 pass through the AO integral file was required.
     4668550 AO integrals were read.
     8878088 MO integrals were written to HF2.
  Transformation of IIJJ integrals :
  1 pass through the AO integral file was required.
    10534114 AO integrals were read.
    14694286 MO integrals were written to HF2.
  Transformation of IJIJ integrals :
  1 pass through the AO integral file was required.
    19975035 AO integrals were read.
    27752060 MO integrals were written to HF2.
  Transformation of IJKL integrals :
  1 pass through the AO integral file was required.
    14757758 AO integrals were read.
    18746935 MO integrals were written to HF2.
  Summary of active molecular orbitals: 
------------------------------------------------------------------------
 
  Index      Eigenvalue    Symmetry    Index      Eigenvalue    Symmetry
------------------------------------------------------------------------
     1       -20.6557373        1       110         4.2112234        2
     2       -11.2981739        1       111         4.4455651        2
     3        -1.6178516        1       112         4.8487881        2
     4        -0.8165355        1       113         5.3017740        2
     5        -0.5355171        1       114         5.9641983        2
     6        -0.7064875        2       115         6.2772386        2
     7        -0.7064875        3       116         6.3814381        2
     8         0.0571274        1       117         6.4931395        2
     9         0.0776670        1       118         7.8461864        2
    10         0.1558459        1       119         8.8793663        2
    11         0.2267557        1       120        10.1530777        2
    12         0.2278227        1       121        11.0045874        2
    13         0.3027333        1       122        11.4378810        2
    14         0.3973079        1       123        11.8657067        2
    15         0.5075632        1       124        13.0493547        2
    16         0.5241822        1       125        14.9592353        2
    17         0.6616010        1       126        19.6346984        2
    18         0.7708283        1       127        27.5678208        2
    19         0.7893754        1       128        33.9264749        2
    20         0.8775833        1       129        48.1020374        2
    21         0.9025825        1       130        67.0656949        2
    22         0.9560706        1       131        98.7481138        2
    23         1.3183104        1       132        98.8591037        2
    24         1.5000858        1       133       103.2962289        2
    25         1.5471059        1       134       103.4232211        2
    26         1.6545528        1       135       115.7356523        2
    27         1.7549052        1       136       117.1585722        2
    28         1.7764270        1       137       199.1302441        2
    29         2.1138082        1       138       225.4608263        2
    30         2.2134851        1       139       395.5936751        2
    31         2.2277014        1       140         0.0652513        3
    32         2.3376116        1       141         0.1542969        3
    33         2.3845515        1       142         0.1911432        3
    34         2.5664783        1       143         0.3380159        3
    35         3.1171060        1       144         0.4020476        3
    36         3.1195027        1       145         0.6183943        3
    37         3.3983272        1       146         0.7504619        3
    38         3.7574007        1       147         0.8414046        3
    39         3.9900642        1       148         0.8723368        3
    40         4.1794593        1       149         1.1129735        3
    41         4.3239081        1       150         1.4565436        3
    42         4.4422051        1       151         1.5317049        3
    43         4.6867369        1       152         1.8702115        3
    44         5.0343419        1       153         1.9679165        3
    45         5.1996973        1       154         2.2619403        3
    46         5.9220385        1       155         2.3501817        3
    47         6.1710991        1       156         2.4153544        3
    48         6.2868114        1       157         2.6112286        3
    49         6.3347710        1       158         2.9837153        3
    50         6.7081899        1       159         3.7570629        3
    51         7.1375425        1       160         4.0675225        3
    52         7.9272105        1       161         4.2112234        3
    53         8.3161853        1       162         4.4455651        3
    54         8.7624832        1       163         4.8487881        3
    55         9.9164816        1       164         5.3017740        3
    56        10.6029200        1       165         5.9641983        3
    57        11.2989283        1       166         6.2772386        3
    58        11.3381297        1       167         6.3814381        3
    59        12.4298371        1       168         6.4931395        3
    60        12.5496273        1       169         7.8461864        3
    61        13.0514077        1       170         8.8793663        3
    62        13.9763527        1       171        10.1530777        3
    63        15.7264398        1       172        11.0045874        3
    64        18.6372370        1       173        11.4378810        3
    65        21.3408643        1       174        11.8657067        3
    66        26.7048294        1       175        13.0493547        3
    67        28.8252853        1       176        14.9592353        3
    68        35.7825084        1       177        19.6346984        3
    69        37.4097564        1       178        27.5678208        3
    70        47.1878550        1       179        33.9264749        3
    71        48.7770296        1       180        48.1020374        3
    72        64.7200711        1       181        67.0656949        3
    73        68.3409121        1       182        98.7481138        3
    74        98.7898021        1       183        98.8591037        3
    75        98.8956784        1       184       103.2962289        3
    76       103.3633983        1       185       103.4232211        3
    77       103.5204971        1       186       115.7356523        3
    78       115.3151257        1       187       117.1585722        3
    79       116.2511978        1       188       199.1302441        3
    80       118.9142825        1       189       225.4608263        3
    81       123.2946799        1       190       395.5936751        3
    82       198.6266467        1       191         0.2278227        4
    83       199.5012279        1       192         0.5241822        4
    84       217.1416498        1       193         0.7708283        4
    85       226.4924832        1       194         0.9025825        4
    86       396.8737377        1       195         1.5000858        4
    87       509.7304198        1       196         1.7764270        4
    88       895.9957284        1       197         2.1138082        4
    89         0.0652513        2       198         2.2277014        4
    90         0.1542969        2       199         2.3845515        4
    91         0.1911432        2       200         3.1171060        4
    92         0.3380159        2       201         3.7574007        4
    93         0.4020476        2       202         4.1794593        4
    94         0.6183943        2       203         4.4422051        4
    95         0.7504619        2       204         5.1996973        4
    96         0.8414046        2       205         5.9220385        4
    97         0.8723368        2       206         6.3347710        4
    98         1.1129735        2       207         6.7081899        4
    99         1.4565436        2       208         7.9272105        4
   100         1.5317049        2       209        10.6029200        4
   101         1.8702115        2       210        11.2989283        4
   102         1.9679165        2       211        12.4298371        4
   103         2.2619403        2       212        13.0514077        4
   104         2.3501817        2       213        26.7048294        4
   105         2.4153544        2       214        47.1878550        4
   106         2.6112286        2       215        98.7898021        4
   107         2.9837153        2       216       103.3633983        4
   108         3.7570629        2       217       115.3151257        4
   109         4.0675225        2       218       198.6266467        4
------------------------------------------------------------------------
  -20.6557372795435       -11.2981739020383       -1.61785162597436     
 -0.816535506868826      -0.535517107248133      -0.706487451824569     
 -0.706487451824598       5.712740738009845E-002  7.766698678464812E-002
  0.155845904926252       0.226755659286045       0.227822667943764     
  0.302733333783669       0.397307901318139       0.507563234001163     
  0.524182158530674       0.661601011776898       0.770828342663224     
  0.789375441552125       0.877583288407693       0.902582489610779     
  0.956070618975117        1.31831035576903        1.50008584647325     
   1.54710593001509        1.65455283664209        1.75490523110947     
   1.77642703605252        2.11380820773015        2.21348508659504     
   2.22770144707482        2.33761160192240        2.38455151012818     
   2.56647831160301        3.11710598354360        3.11950267605387     
   3.39832715490749        3.75740071850190        3.99006417906455     
   4.17945928104213        4.32390806626364        4.44220509727376     
   4.68673690287593        5.03434190143762        5.19969734877081     
   5.92203845637341        6.17109913687740        6.28681141546063     
   6.33477102716863        6.70818989579904        7.13754246344392     
   7.92721047229992        8.31618534428066        8.76248318547323     
   9.91648156809360        10.6029199535262        11.2989283193198     
   11.3381297090410        12.4298370545988        12.5496273411220     
   13.0514076714554        13.9763527197228        15.7264397904980     
   18.6372370115759        21.3408642659682        26.7048294376008     
   28.8252853124306        35.7825083881788        37.4097564283734     
   47.1878549947625        48.7770295597555        64.7200711401153     
   68.3409120617466        98.7898021466333        98.8956784080600     
[...]
 Convergence information after     7 iterations: 
 Largest element of residual vector : -0.72388259E-04.
 Largest element of DIIS residual   : -0.31602124E-04.
 Convergence information after     8 iterations: 
 Largest element of residual vector : -0.19172927E-04.
 Largest element of DIIS residual   :  0.13193378E-04.
 Convergence information after     9 iterations: 
 Largest element of residual vector :  0.64723469E-05.
 Largest element of DIIS residual   :  0.30924581E-05.
 Convergence information after    10 iterations: 
 Largest element of residual vector :  0.25082883E-05.
 Largest element of DIIS residual   :  0.14554078E-05.
 Convergence information after    11 iterations: 
 Largest element of residual vector :  0.73644374E-06.
 Largest element of DIIS residual   :  0.39012783E-06.
 Convergence information after    12 iterations: 
 Largest element of residual vector :  0.30361344E-06.
 Largest element of DIIS residual   :  0.19720595E-06.
 Convergence information after    13 iterations: 
 Largest element of residual vector :  0.12606505E-06.
 Largest element of DIIS residual   :  0.10580733E-06.
 Convergence information after    14 iterations: 
 Largest element of residual vector :  0.74691311E-07.
 Largest element of DIIS residual   :  0.54930285E-07.
 Perturbed amplitude equations converged in    14 iterations.
  Dominant contributions to perturbed wavefunction:
    7    7  142   37   0.2624670909 ABAB
    7    7   37  142   0.2624670909 ABAB
    7    7  142   63   0.2125120892 ABAB
    7    7   63  142   0.2125120892 ABAB
    7    7  142   27   0.2026309884 ABAB
    7    7   27  142   0.2026309884 ABAB
    7    6   37   91   0.1793470072 ABAB
    6    7   91   37   0.1793470072 ABAB
    7    7  142   55   0.1713451796 ABAB
    7    7   55  142   0.1713451796 ABAB
    5    5  142   43   0.1699273697 ABAB
    5    5   43  142   0.1699273697 ABAB
    7    7  142   48   0.1606834182 ABAB
    7    7   48  142   0.1606834182 ABAB
    7    7  142   43   0.1570641345 ABAB
    7    7   43  142   0.1570641345 ABAB
    7    7  143   37   0.1529474953 ABAB
    7    7   37  143   0.1529474953 ABAB
    5    5  142   54   0.1441194452 ABAB
    5    5   54  142   0.1441194452 ABAB
  norm of converged amps    2.83818536830266     
 Starting iterative solution of the perturbed Lambda equations.
 The DIIS procedure is used to accelerate convergence.
 Convergence criterion is 10**(-7).
 Maximum number of iterations is 100.
 Convergence information after     1 iterations: 
 Largest element of residual vector : -0.61787161E-01.
 Largest element of DIIS residual   : -0.61787161E-01.
 Convergence information after     2 iterations: 
 Largest element of residual vector :  0.59792615E-02.
 Largest element of DIIS residual   :  0.61375070E-02.
 Convergence information after     3 iterations: 
 Largest element of residual vector : -0.37398292E-02.
 Largest element of DIIS residual   : -0.33325389E-02.
 Convergence information after     4 iterations: 
 Largest element of residual vector : -0.23302154E-02.
 Largest element of DIIS residual   : -0.17574236E-02.
 Convergence information after     5 iterations: 
 Largest element of residual vector : -0.12392697E-02.
 Largest element of DIIS residual   : -0.55412932E-03.
 Convergence information after     6 iterations: 
 Largest element of residual vector : -0.38329826E-03.
 Largest element of DIIS residual   : -0.92270854E-04.
 Convergence information after     7 iterations: 
 Largest element of residual vector : -0.63835449E-04.
 Largest element of DIIS residual   : -0.27624357E-04.
 Convergence information after     8 iterations: 
 Largest element of residual vector : -0.15272226E-04.
 Largest element of DIIS residual   :  0.11370746E-04.
 Convergence information after     9 iterations: 
 Largest element of residual vector :  0.56727441E-05.
 Largest element of DIIS residual   :  0.26929007E-05.
 Convergence information after    10 iterations: 
 Largest element of residual vector :  0.21620993E-05.
 Largest element of DIIS residual   :  0.12783129E-05.
 Convergence information after    11 iterations: 
 Largest element of residual vector :  0.66130117E-06.
 Largest element of DIIS residual   :  0.36996300E-06.
 Convergence information after    12 iterations: 
 Largest element of residual vector :  0.27959573E-06.
 Largest element of DIIS residual   :  0.18259772E-06.
 Convergence information after    13 iterations: 
 Largest element of residual vector :  0.11743498E-06.
 Largest element of DIIS residual   :  0.96107285E-07.
 Perturbed Lambda equations converged in    13 iterations.
  Dominant contributions to perturbed wavefunction:
    7    7  142   37   0.2522211900 ABAB
    7    7   37  142   0.2522211900 ABAB
    7    7  142   63   0.2039582145 ABAB
    7    7   63  142   0.2039582145 ABAB
    7    7  142   27   0.1940145314 ABAB
    7    7   27  142   0.1940145314 ABAB
    7    6   37   91   0.1705818588 ABAB
    6    7   91   37   0.1705818588 ABAB
    7    7  142   55   0.1636926577 ABAB
    7    7   55  142   0.1636926577 ABAB
    5    5  142   43   0.1630414329 ABAB
    5    5   43  142   0.1630414329 ABAB
    7    7  142   48   0.1543250760 ABAB
    7    7   48  142   0.1543250760 ABAB
    7    7  142   43   0.1492808629 ABAB
    7    7   43  142   0.1492808629 ABAB
    7    7  143   37   0.1476642669 ABAB
    7    7   37  143   0.1476642669 ABAB
    5    5  142   54   0.1382672929 ABAB
    5    5   54  142   0.1382672929 ABAB
        The DBOC first-order density matrix is being calculated 
             (Symmetry block 3, perturbation   2)
 term   9.60949399430273     
 final tnorm  0.903112684972740     
  norm contr. I: |<0|L dT/dx|0>|^2   0.000000000000000E+000
  norm contr. II: <0|[nabla(1+L)e-T][nabla e^T]|0>   9.60949399430273     
  total norm contribution   9.60949399430273     
 oo  1.363709458986300E-002
 vv  -72.1828539188196     
 vo  2.424511944984455E-002
  Correlated perturbed 1-el contribution to DBOC  -72.1449717047799       cm**-1
  SUM_I |dc_I/dx|^2 contribution to DBOC   36.1769543627385       cm**-1
 
 
  The total diagonal Born-Oppenheimer correction (DBOC) is:      0.0040241197 a.u.
  The total diagonal Born-Oppenheimer correction (DBOC) is:        883.192179 cm-1
 
 Total CC energy including DBOC  -113.228890892304     
 First-order density matrix is being calculated  (Symmetry block 3, perturbation   2)
 Calculation of the contributions of <pq||rs> to dI(i,j)/dx required   4.2 seconds.
 Calculation of the contributions of <pq||rs> to dI(a,b)/dx required  14.7 seconds.
 Calculation of the contributions of <pq||rs> to dI(i,a)/dx required   9.4 seconds.
 First-order Z-vector equations are solved for 1 perturbation.
 Convergence reached after  17 iterations.
        U*G(pq,rs) contribution is being calculated
             (Symmetry block 3, perturbation   2)

 CCSD contribution to force constants 

        0.0000000000        0.0000000000        0.0000000000
        0.0000000000        0.0000000000        0.0000000000
        0.0000000000        0.0000000000        0.0000000000
        0.0000000000        0.0000000000        0.0000000000
        0.0000000000        0.0000000000        0.0000000000
        0.0000000000        0.0000000000        0.0000000000
        0.0000000000        0.0000000000        0.0000000000
        0.0000000000        0.0000000000        0.0000000000
        0.0000000000        0.0000000000        0.0000000000
        0.0000000000        0.0000000000        0.0000000000
        0.0000000000        0.0000000000        0.0000000000
        0.0000000000      -11.4989071869       11.4989071869

 CCSD contribution to dipole derivatives 

        0.0000000000        0.0000000000        0.0000000000
        0.0000000000        0.0000000000        0.0000000000
        0.0000000000        0.0000000000        0.0000000000
        0.0000000000        0.0000000000       -0.0386311760
        0.0000000000        0.0000000000        0.0000000000
        0.0000000000        0.0000000000        0.0000000000
 @CHECKOUT-I, Total execution time (CPU/WALL):     1296.15/     487.80 seconds.
--executable xsdcc finished with status     0 in      487.88 seconds (walltime).
 --invoking executable--
/nfs/workspaces/public/cfour_mpi/bin/xanti
 @GETMEM-I,  Allocated    3814 MB of main memory.
 CCSD MO derivative gammas will be sorted to Mulliken order.
 @CHECKOUT-I, Total execution time (CPU/WALL):        8.99/      16.83 seconds.
--executable xanti finished with status     0 in       16.87 seconds (walltime).
 --invoking executable--
/nfs/workspaces/public/cfour_mpi/bin/xbcktrn
 @GETMEM-I,  Allocated    3814 MB of main memory.
 CCSD MO derivative gammas will be transformed to the AO basis.
 @CHECKOUT-I, Total execution time (CPU/WALL):       36.42/      10.21 seconds.
--executable xbcktrn finished with status     0 in       10.23 seconds (walltime).
 --invoking executable--
/nfs/workspaces/public/cfour_mpi/bin/xvdint
 @GETMEM-I,  Allocated    3814 MB of main memory.
 One- and two-electron integral derivatives are calculated
 for RHF-CC/MBPT hessians and dipole derivatives.
 Spherical gaussians are used.
  magnet F F
                    8722  records have been written to the Sort file.
  Total length of Sort file :             178609116  words.
 Evaluation of 2el integral derivatives

                      Two-electron integral gradient
                      ------------------------------

                         C #1 z     0.0000000000
                         O #2 z     0.0000000000


 C #1       0.0000000000           -1.4541837128            0.0000000000
 O #2       0.0000000000            1.4541837128            0.0000000000


 Evaluation of 2e integral derivatives required  416.55 seconds.
  contribution to Hessian
        0.0000000000        0.0000000000        0.0000000000
        0.0000000000       -1.4541837128        1.4541837128
 @CHECKOUT-I, Total execution time (CPU/WALL):      416.55/     133.54 seconds.
--executable xvdint finished with status     0 in      133.60 seconds (walltime).
 --invoking executable--
/nfs/workspaces/public/cfour_mpi/bin/xanti
 @GETMEM-I,  Allocated    3814 MB of main memory.
 CCSD MO gammas will be sorted to Mulliken order.
 @CHECKOUT-I, Total execution time (CPU/WALL):       12.22/      14.69 seconds.
--executable xanti finished with status     0 in       14.72 seconds (walltime).
 --invoking executable--
/nfs/workspaces/public/cfour_mpi/bin/xbcktrn
 @GETMEM-I,  Allocated    3814 MB of main memory.
 CCSD MO gammas will be transformed to the AO basis.
 @CHECKOUT-I, Total execution time (CPU/WALL):       61.62/      15.87 seconds.
--executable xbcktrn finished with status     0 in       15.90 seconds (walltime).
 --invoking executable--
/nfs/workspaces/public/cfour_mpi/bin/xvdint
 @GETMEM-I,  Allocated    3814 MB of main memory.
 One- and two-electron integral derivatives are calculated
 for RHF-CC/MBPT hessians and dipole derivatives.
 Spherical gaussians are used.
  magnet F F

                     Kinetic energy integral gradient
                     --------------------------------

                         C #1 z    -1.9013699768
                         O #2 z     1.9013699768


 C #1       0.0000000000            0.0000000000           -1.9013699768
 O #2       0.0000000000            0.0000000000            1.9013699768



                   Nuclear attraction integral gradient
                   ------------------------------------

                         C #1 z    27.1768974232
                         O #2 z   -27.1768974232


 C #1       0.0000000000            0.0000000000           27.1768974232
 O #2       0.0000000000            0.0000000000          -27.1768974232



                      Reorthonormalization gradient
                      -----------------------------

                         C #1 z     0.0000000000
                         O #2 z     0.0000000000


 C #1       0.0000000000            0.0000000000            0.0000000000
 O #2       0.0000000000            0.0000000000            0.0000000000



                     Kinetic energy integral Hessian
                     -------------------------------


           Symmetry 1

           C #1 z      O #2 z

 C #1 z    0.729758
 O #2 z   -0.729758    0.729758


           Symmetry 2

           C #1 x      O #2 x

 C #1 x   -3.246474
 O #2 x    3.246474   -3.246474


           Symmetry 3

           C #1 y      O #2 y

 C #1 y   -3.246474
 O #2 y    3.246474   -3.246474




           C #1 x      C #1 y      C #1 z      O #2 x      O #2 y      O #2 z

 C #1 x   -3.246474
 C #1 y    0.000000   -3.246474
 C #1 z    0.000000    0.000000    0.729758

 O #2 x    3.246474    0.000000    0.000000   -3.246474
 O #2 y    0.000000    3.246474    0.000000    0.000000   -3.246474
 O #2 z    0.000000    0.000000   -0.729758    0.000000    0.000000    0.729758




                   Nuclear attraction integral Hessian
                   -----------------------------------


           Symmetry 1

           C #1 z      O #2 z

 C #1 z  -12.868241
 O #2 z   12.868241  -12.868241


           Symmetry 2

           C #1 x      O #2 x

 C #1 x   29.818420
 O #2 x  -29.818420   29.818420


           Symmetry 3

           C #1 y      O #2 y

 C #1 y   29.818420
 O #2 y  -29.818420   29.818420




           C #1 x      C #1 y      C #1 z      O #2 x      O #2 y      O #2 z

 C #1 x   29.818420
 C #1 y    0.000000   29.818420
 C #1 z    0.000000    0.000000  -12.868241

 O #2 x  -29.818420    0.000000    0.000000   29.818420
 O #2 y    0.000000  -29.818420    0.000000    0.000000   29.818420
 O #2 z    0.000000    0.000000   12.868241    0.000000    0.000000  -12.868241




                Highest order reorthonormalization Hessian
                ------------------------------------------


           Symmetry 1

           C #1 z      O #2 z

 C #1 z    0.000000
 O #2 z    0.000000    0.000000


           Symmetry 2

           C #1 x      O #2 x

 C #1 x    0.000000
 O #2 x    0.000000    0.000000


           Symmetry 3

           C #1 y      O #2 y

 C #1 y    0.000000
 O #2 y    0.000000    0.000000




           C #1 x      C #1 y      C #1 z      O #2 x      O #2 y      O #2 z




                Electronic contributions to dipole moment
                -----------------------------------------

                               au             Debye

                    z      0.30323726      0.77075237

  Conversion factor used: 1 a.u. =   2.54174691 Debye 



   Electronic contributions to static part of dipole moment derivatives
   --------------------------------------------------------------------


                     Total dipole moment derivatives
                     -------------------------------


           Symmetry 1
                              Ez

               C #1 z    -5.82251848
               O #2 z    -8.17748152

           Symmetry 2
                              Ex

               C #1 x    -5.88002289
               O #2 x    -8.11997711

           Symmetry 3
                              Ey

               C #1 y    -5.88002289
               O #2 y    -8.11997711



                       Ex          Ey          Ez

      C #1    x   -5.880023    0.000000    0.000000
      C #1    y    0.000000   -5.880023    0.000000
      C #1    z    0.000000    0.000000   -5.822518

      O #2    x   -8.119977    0.000000    0.000000
      O #2    y    0.000000   -8.119977    0.000000
      O #2    z    0.000000    0.000000   -8.177482

 Evaluation of 1e integral derivatives required    1.13 seconds.
                    8815  records have been written to the Sort file.
  Total length of Sort file :             180513570  words.
 Evaluation of 2el integral derivatives

                      Two-electron integral gradient
                      ------------------------------

                         C #1 z   -11.8516230111
                         O #2 z    11.8516230111


 C #1       0.0000000000            0.0000000000          -11.8516230111
 O #2       0.0000000000            0.0000000000           11.8516230111


 Evaluation of 2e integral derivatives required  792.09 seconds.

                            Molecular gradient
                            ------------------

                         C #1 z    -0.2047927326
                         O #2 z     0.2047927326


 C #1       0.0000000000            0.0000000000           -0.2047927326
 O #2       0.0000000000            0.0000000000            0.2047927326


  Molecular gradient norm 0.290E+00

                            Molecular hessian
                            -----------------


           Symmetry 1

           C #1 z      O #2 z

 C #1 z   94.276880
 O #2 z  -94.276880   94.276880


           Symmetry 2

           C #1 x      O #2 x

 C #1 x   12.320981
 O #2 x  -12.320981   12.320981


           Symmetry 3

           C #1 y      O #2 y

 C #1 y   12.320981
 O #2 y  -12.320981   12.320981




           C #1 x      C #1 y      C #1 z      O #2 x      O #2 y      O #2 z

 C #1 x   12.320981
 C #1 y    0.000000   12.320981
 C #1 z    0.000000    0.000000   94.276880

 O #2 x  -12.320981    0.000000    0.000000   12.320981
 O #2 y    0.000000  -12.320981    0.000000    0.000000   12.320981
 O #2 z    0.000000    0.000000  -94.276880    0.000000    0.000000   94.276880




                           Total dipole moment
                           -------------------

                               au             Debye

                    z     -0.21821390     -0.55464451

  Conversion factor used: 1 a.u. =   2.54174691 Debye 



                     Total dipole moment derivatives
                     -------------------------------


           Symmetry 1
                              Ez

               C #1 z     0.67196090
               O #2 z    -0.67196090

           Symmetry 2
                              Ex

               C #1 x    -0.11966091
               O #2 x     0.11966091

           Symmetry 3
                              Ey

               C #1 y    -0.11966091
               O #2 y     0.11966091



                       Ex          Ey          Ez

      C #1    x   -0.119661    0.000000    0.000000
      C #1    y    0.000000   -0.119661    0.000000
      C #1    z    0.000000    0.000000    0.671961

      O #2    x    0.119661    0.000000    0.000000
      O #2    y    0.000000    0.119661    0.000000
      O #2    z    0.000000    0.000000   -0.671961

 @CHECKOUT-I, Total execution time (CPU/WALL):      793.21/     231.28 seconds.
--executable xvdint finished with status     0 in      231.33 seconds (walltime).
 --invoking executable--
/nfs/workspaces/public/cfour_mpi/bin/xjoda
  @GTFLGS-I, Hessian will be transformed to curvilinear coordinates.
  @GTFLGS-I, Hessian will be transformed to curvilinear coordinates.
  igrd and ihes are                      0                     1
  gradient from JOBARC 
   0.000000000000000   0.000000000000000  -0.204792732648917
   0.000000000000000   0.000000000000000   0.204792732648917
 
  @PROJFCM-I, Projecting force constant matrix onto totally symmetric subspace.
  Largest difference between matrix elements of symmetrized
  and unsymmetrized FCM :     0.3413447303E-10.
  read isotopes from ZMAT file 
 
  Summary of diagonal Born-Oppenheimer correction at the correlated level
  The total diagonal Born-Oppenheimer correction (DBOC) is:      0.0040241197 a.u.
  The total diagonal Born-Oppenheimer correction (DBOC) is:        883.192179 cm-1
  The total diagonal Born-Oppenheimer correction (DBOC) is:            10.565 kJ/mole
  hellooooooo 
  readis is  F
 
 @CHECKOUT-I, Total execution time (CPU/WALL):        0.01/       0.03 seconds.
--executable xjoda finished with status     0 in        0.07 seconds (walltime).
  The final electronic energy is      -113.228890892303610 a.u. 
  This computation required                         3641.48 seconds (walltime).
