 --invoking executable--
/nfs/workspaces/public/cfour_mpi/bin/xjoda


   *************************************************************************
         <<<     CCCCCC     CCCCCC   |||     CCCCCC     CCCCCC   >>>
       <<<      CCC        CCC       |||    CCC        CCC         >>>
      <<<      CCC        CCC        |||   CCC        CCC            >>>
    <<<        CCC        CCC        |||   CCC        CCC              >>>
      <<<      CCC        CCC        |||   CCC        CCC            >>>
       <<<      CCC        CCC       |||    CCC        CCC         >>>
         <<<     CCCCCC     CCCCCC   |||     CCCCCC     CCCCCC   >>>
   *************************************************************************

     ****************************************************************
     * CFOUR Coupled-Cluster techniques for Computational Chemistry *
     ****************************************************************
 

   Department of Chemistry                Institut fuer Physikalische Chemie
   University of Florida                  Universitaet Mainz
   Gainesville, FL 32611, USA             D-55099 Mainz, Germany

   Department of Chemistry                Fakultaet fuer Chemie und Biowiss.
   Johns Hopkins University               Karlsruher Institut fuer Technologie
   Baltimore, MD 21218, USA               D-76131 Karlsruhe, Germany

   Department of Chemistry                Department of Physical Chemistry
   Southern Methodist University          Eotvos Lorand University
   Dallas, TX 75275, USA                  H-1053 Budapest, Hungary

 
                       Version 2.1
 
                     vincent.theory.phys.ucl.ac.uk                     
                     Thu 27 Feb 00:47:16 GMT 2025                      
                     integer*8 version is running
 
********************************************************************************
*                          Input from ZMAT file                                *
********************************************************************************
Carbon Monoxide DBOC calculation                                                
C                                                                               
O 1 r                                                                           
                                                                                
r=1.1172413793103448                                                            
                                                                                
                                                                                
*CFOUR(CALC=CCSD,BASIS=AUG-PCVQZ,SCF_CONV=10                                    
CC_CONV=14,DBOC=ON,MEMORY=500000000                                             
ZFIELD=-200)                                                                    
                                                                                
%isotopes                                                                       
13                                                                              
16                                                                              
********************************************************************************
  @GTFLGS-I, Hessian will be transformed to curvilinear coordinates.
    -------------------------------------------------------------------
                    CFOUR Control Parameters 
    -------------------------------------------------------------------
        External           Internal           Value            Units
          Name               Name
    -------------------------------------------------------------------
       ABCDTYPE             IABCDT         STANDARD    [  0]    ***   
       ANHARMONIC           IANHAR         OFF         [  0]    ***   
       ANH_ALGORIT          IANALG         STANDARD    [  0]    ***   
       ANH_DERIVAT          IANDER         SECOND      [  1]    ***   
       ANH_MODE             ANHMOD         VIBRATION   [  0]    ***   
       ANH_STEPSIZ          ICUBST             50000          x 10-6  
       ANH_SYMMETR          IANHSM         ABELIAN     [  0]    ***   
       AO_LADDERS           IAOLAD         SINGLEPASS  [  1]    ***   
       AV_SCF               IAVSCF         OFF         [  0]    ***   
       BASIS                IBASIS         AUG-PCVQZ   [ 52]    ***   
       BOTHVECTORS          BOTHVC         OFF         [  0]    ***   
       BOX_POTENT           IPIAB          OFF         [  0]    ***   
       BREIT                IBREIT         OFF         [  0]    ***   
       BRUCK_CONV           IBRTOL          10D-  4             ***   
       BRUECKNER            IBRKNR         OFF         [  0]    ***   
       BUFFERSIZE           IBUFFS              4096            ***   
       CACHE_RECS           ICHREC             10               ***   
       CALCLEVEL            ICLLVL         CCSD        [ 10]    ***   
       CCORBOPT             ICCORB         OFF         [  0]  x 0.01  
       CC_CONV              ICCCNV          10D- 14             ***   
       CC_EXPORDER          ICCEOR              5               ***   
       CC_EXTRAPOL          ICCEXT         DIIS        [  1]    ***   
       CC_GUESS             ICCGES         MP2         [  0]    ***   
       CC_MAXCYC            ICCCYC            100              cycles 
       CC_PROGRAM           ICCPRO         VCC         [  0]    ***   
       CHARGE               ICHRGE              0               ***   
       CHOLESKY             ICHOLE         OFF         [  0]    ***   
       CIS_CONV             ICISTL              5               ***   
       COMM_SIZE            IPSIZE            ***               ***   
       CONSTANT             ICONST         OLD         [  1]    ***   
       CONTINUUM            ICONTU         NONE        [  0]    ***   
       CONTRACTION          ICNTYP         GENERAL     [  1]    ***   
       COORDINATES          ICOORD         INTERNAL    [  0]    ***   
       CPHF_CONVER          ICPHFT          10D- 16             ***   
       CPHF_MAXCYC          ICPHFC             64              cycles 
       CUBIC                ICUBIC         OFF         [  0]    ***   
       CURVILINEAR          ICURVY         ON          [  1]    ***   
       DBOC                 IDBOC          ON          [  1]    ***   
       DCT                  IDCT           OFF         [  0]    ***   
       DERIV_LEV            IDRLVL         SECOND      [  2]    ***   
       DEVMEM_SIZE          IDVMEM          50000000           MByte  
       DIAG_MRCC            IEOMST          10D-  0             ***   
       DIFF_TYPE            IDIFTY         RELAXED     [  0]    ***   
       DIRECT               IDIRCT         OFF         [  0]    ***   
       DROPMO               IDRPMO      NONE         
       ECP                  IECP           OFF         [  0]    ***   
       EIGENVECTOR          IVEC                1               ***   
       EL_ANHARM            IELANH         OFF         [  0]    ***   
       EOMFOLLOW            IEOMSR         ENERGY      [  0]    ***   
       EOMIP                IEOMIP         OFF         [  0]    ***   
       EOMLEVEL             HBARFM         SAME        [  0]    ***   
       EOM_MRCC             IMRCCE         NEW         [  1]    ***   
       EOM_NONIT            EOMNON         OFF         [  0]    ***   
       EOM_NSING            IEOMSI          10D-  0             ***   
       EOM_NSTATES          IMRCCD         DAVIDSON    [  0]    ***   
       EOM_NTRIP            IEOMTR          10D-  0             ***   
       EOM_ORDER            IEXORD         ENERGY      [  0]    ***   
       EOM_PROPSTA          IEOMST              0               ***   
       ESTATE_CONV          IEXTOL          10D-  5             ***   
       ESTATE_DIAG          IEXDIG         ITERATIVE   [  0]    ***   
       ESTATE_LOCK          IESLOC         ON          [  1]    ***   
       ESTATE_MAXC          IEXMXC             40               ***   
       ESTATE_PROP          IEXPRP         OFF         [  0]    ***   
       EVAL_HESS            IRECAL              0            # of cyc.
       EXCITATION           IEXCIT              0               ***   
       EXCITE               IEXCIT         NONE        [  0]    ***   
       EXTERN_POT           IEXPOT         OFF         [  0]    ***   
       FCGRADNEW            IFCGNW         OFF         [  0]    ***   
       FC_FIELD             IFINFC              0             x 10-6  
       FD_CALTYPE           IFDCAL         GRADONLY    [  0]    ***   
       FD_PROJECT           IFDPRJ         OFF         [  1]    ***   
       FD_STEPSIZE          IDISFD              0            10-4 bohr
       FD_USEGROUP          IFDGRP         FULL        [  0]    ***   
       FILE_RECSIZ          IFLREC              4096           words  
       FINITE_PERT          IFIPER              0             x 10-6  
       FIXGEOM              IFIXGM         OFF         [  0]    ***   
       FOCK                 IFOCK          AO          [  1]    ***   
       FREQ_ALGORI          IVIALG         STANDARD    [  0]    ***   
       FROZEN_CORE          IFROCO         OFF         [  0]    ***   
       GAMMA_ABCD           IGABCD         STORE       [  0]    ***   
       GAMMA_ABCI           IGABCI         STORE       [  0]    ***   
       GENBAS_1             IGNBS1              0               ***   
       GENBAS_2             IGNBS2              0               ***   
       GENBAS_3             IGNBS3              0               ***   
       GENBAS_4             IGNBS4              0               ***   
       GEO_CONV             ICONTL              5              H/bohr 
       GEO_MAXCYC           IOPTCY             50               ***   
       GEO_MAXSTEP          IMXSTP            300            millibohr
       GEO_METHOD           INR            SINGLE_POINT[  5]    ***   
       GIAO                 IGIAO          OFF         [  1]    ***   
       GIMIC                IGIMIC         OFF         [  0]    ***   
       GRID                 IGRID          OFF         [  0]    ***   
       GRID_ALGO            IGALGO         SERIAL      [  0]    ***   
       GUESS                IGUESS         MOREAD      [  0]    ***   
       HBAR                 IHBAR          OFF         [  0]    ***   
       HESS_TYPE            IHESTP         SCF         [  0]    ***   
       HF2_FILE             IHF2Fl         USE         [  1]    ***   
       HFSTABILITY          ISTABL         OFF         [  0]    ***   
       INCORE               INCORE         OFF         [  0]    ***   
       INPUT_MRCC           IMRCC          ON          [  1]    ***   
       INTEGRALS            INTTYP         VMOL        [  1]    ***   
       JODA_PRINT           IJPRNT              0               ***   
       KEYWORD_OUT          IDMPKW         NO          [  0]    ***   
       LINDEP_TOL           ILINDP              8               ***   
       LINEQ_CONV           IZTACN          10D-  7           cycles  
       LINEQ_EXPOR          ILMAXD              5               ***   
       LINEQ_MAXCY          ILMAXC            100               ***   
       LINEQ_TYPE           ILTYPE         DIIS        [  1]    ***   
       LOCK_ORBOCC          ILOCOC         OFF         [  0]    ***   
       MEMORY_SIZE          IMEMSZ         500000000           words  
       MEM_UNIT             IMEMU          INTEGERWORDS[  0]    ***   
       MRCC                 IMRCCC         OFF         [  0]    ***   
       MULTIPLICTY          IMULTP              1               ***   
       NACOUPLING           IVCOUP         OFF         [  0]    ***   
       NEGEVAL              IDIE           ABORT       [  0]    ***   
       NEWNORM              INEWNO         OFF         [  0]    ***   
       NON-HF               INONHF         OFF         [  0]    ***   
       NTOP_TAMP            ITOPT2             15               ***   
       NUC_MODEL            INUCMO         POINT       [  0]    ***   
       OCCUPATION           IOCCU   ESTIMATED BY SCF 
       OPEN-SHELL           IOPEN          SPIN-ORBITAL[  0]    ***   
       OPTVIB               IOPTVB         OFF         [  0]    ***   
       ORBITALS             IORBTP         STANDARD    [  0]    ***   
       PARALLEL             IPARAL         ON          [  1]    ***   
       PARA_INT             IPINTS         ON          [  1]    ***   
       PARA_PRINT           IPPRIN              0               ***   
       PERT_ORB             IPTORB         STANDARD    [  0]    ***   
       POINTS               IGRDFD              0               ***   
       PRINT                IPRNT               0               ***   
       PROPS                IPROPS         OFF         [  0]    ***   
       PROP_INTEGR          IINTYP         INTERNAL    [  0]    ***   
       PSI                  IPSI           OFF         [  0]    ***   
       QC_ALG               IQCALG         FLM         [  0]    ***   
       QC_LINALG            IQCLIN         TRIDIAG     [  2]    ***   
       QC_MAXCYC            IQCMAX          10D-100           cycles  
       QC_MAXSCFCY          IQCMSC          10D- 15           cycles  
       QC_RTRUST            IQCRTR          10D-  0           x 10-3  
       QC_SKIPSCF           IQCSKI         OFF         [  0]    ***   
       QC_START             IQCSTA          10D-  1             ***   
       QRHFGUESS            IQGUES         OFF         [  0]    ***   
       QUARTIC              IQUART         OFF         [  0]    ***   
       RAMAN_INT            IRAMIN         OFF         [  0]    ***   
       RAMAN_ORB            IRAMRE         UNRELAXED   [  0]    ***   
       RDO                  IRDOFM         ON          [  1]    ***   
       REDUCE_REPR          REDREP         Ir          [  0]    ***   
       REFERENCE            IREFNC         RHF         [  0]    ***   
       RELATIVIST           IRELAT         OFF         [  0]    ***   
       RELAX_DENS           IRDENS         ON          [  1]    ***   
       RESET_FLAGS          IRESET         OFF         [  0]    ***   
       RESTART_CC           ICCRES         OFF         [  0]    ***   
       ROT_EVEC             ROTVEC              0               ***   
       SAVE_INTS            ISVINT         OFF         [  0]    ***   
       SCALE_ON             ISTCRT              0               ***   
       SCF_CONV             ISCFCV          10D- 10             ***   
       SCF_DAMPING          IDAMP               0             x 10-3  
       SCF_EXPORDE          IRPPOR              6               ***   
       SCF_EXPSTAR          IRPPLS              8               ***   
       SCF_EXTRAPO          IRPP           ON          [  1]    ***   
       SCF_MAXCYC           ISCFCY            150              cycles 
       SCF_NOSTOP           ISCFST         OFF         [  0]    ***   
       SCF_PRINT            ISCFPR              0               ***   
       SCF_PROG             ISCFPR         SCF         [  0]    ***   
       SD_FIELD             IFINSD              0             x 10-6  
       SOPERT               IPERSO         OFF         [  0]    ***   
       SPHERICAL            IDFGHI         ON          [  1]    ***   
       SPINORBIT            ISOCAL         OFF         [  0]    ***   
       SPINROTATIO          ISRCON         OFF         [  0]    ***   
       SPIN_FLIP            ISPFLP         OFF         [  0]    ***   
       SPIN_ORBIT           ISPORB         OFF         [  0]    ***   
       SPIN_SCAL            ISCSMP         OFF         [  0]    ***   
       STEEPSCALE           ISTPSC              1000          x 10-3  
       SUBGROUP             ISUBGP         DEFAULT     [  0]    ***   
       SUBGRPAXIS           ISBXYZ         X           [  0]    ***   
       SYMMETRY             ISYM           ON          [  0]    ***   
       SYM_CHECK            ISYMCK         OVERRIDE    [  1]    ***   
       T3_EXTRAPOL          IT3EXT         OFF         [  0]    ***   
       T4_EXTRAPOL          IT4EXP         OFF         [  0]    ***   
       TAMP_SUM             IEVERY              5               ***   
       TESTSUITE            ITESTS         OFF         [  0]    ***   
       THERMOCH             ITHERM         OFF         [  0]    ***   
       TOL_CHOLESK          ITOLCH          10D-  4             ***   
       TRANGRAD             IRESRM         OFF         [  0]    ***   
       TRANS_INV            ITRAIN         IGNORE      [  1]    ***   
       TREAT_PERT           ITREAT         SIMULTANEOUS[  0]    ***   
       TRIP_ALGORI          ITRALG         NORMAL      [  0]    ***   
       UIJ_THRESHO          IUIJTH              1               ***   
       UNITS                IUNITS         ANGSTROM    [  0]    ***   
       UNOS                 IUNOS          OFF         [  0]    ***   
       UPDATE_HESS          IHUPDT         ON          [  1]    ***   
       VIBPHASE             ISETPH         STANDARD    [  0]    ***   
       VIBRATION            IVIB           ANALYTIC    [  1]    ***   
       VIB_ALGORIT          IGEALG         STANDARD    [  0]    ***   
       VNATORB              IVNORB         OFF         [  0]    ***   
       VTRAN                IVTRAN         FULL/PARTIAL[  0]    ***   
       XFIELD               IXEFLD              0             x 10-6  
       XFORM_TOL            IXFTOL          10D- 11             ***   
       YFIELD               IYEFLD              0             x 10-6  
       ZFIELD               IZEFLD            ***             x 10-6  
       ZSCALE_EXP           IZEXPS         OFF         [  0]    ***   
    -------------------------------------------------------------------
   2 entries found in Z-matrix 
   Job Title : Carbon Monoxide DBOC calculation                                                
   There are  1 unique internal coordinates.
   Of these,  0 will be optimized.
   User supplied Z-matrix: 
--------------------------------------------------------------------------------
       SYMBOL    BOND      LENGTH    ANGLE     ANGLE     DIHED     ANGLE
                  TO      (ANGST)    WRT      (DEG)      WRT      (DEG)
--------------------------------------------------------------------------------
        C    
        O          1         r    
                  *Initial values for internal coordinates* 
                      Name             Value
                        r               1.1172413793
--------------------------------------------------------------------------------
  read isotopes from ZMAT file 
   Rotational constants (in cm-1): 
          1.8829434265             1.8829434265
   Rotational constants (in MHz): 
      56449.2317203988         56449.2317203988
********************************************************************************
   The full molecular point group is CXv .
   The largest Abelian subgroup of the full molecular point group is C2v .
   The computational point group is C2v .
********************************************************************************
--------------------------------------------------------------------------------
   Analysis of internal coordinates specified by Z-matrix 
--------------------------------------------------------------------------------
   *The nuclear repulsion energy is   22.735016148148148 a.u.
   *There is   1 degree of freedom within the tot. symm. molecular subspace.
   *Z-matrix requests optimization of   0 coordinates.
   *The optimization is constrained.
   *The following   1 parameters can have non-zero 
    derivatives within the totally symmetric subspace:
             r    [ 1]
   *The following   0 parameters are to be optimized:

   *The following coordinates must be varied in an  unconstrained optimization.
             r    [ 1]
--------------------------------------------------------------------------------


 ----------------------------------------------------------------
         Coordinates used in calculation (QCOMP) 
 ----------------------------------------------------------------
 Z-matrix   Atomic            Coordinates (in bohr)
  Symbol    Number           X              Y              Z
 ----------------------------------------------------------------
     C         6        -0.00000000     0.00000000     1.16454377
     O         8         0.00000000     0.00000000    -0.94673690
 ----------------------------------------------------------------
 
   Interatomic distance matrix (Angstroms) 
 
                 C             O    
                [ 1]        [ 2]
  C    [ 1]     0.00000
  O    [ 2]     1.11724     0.00000
 rotcon2
   Rotational constants (in cm-1): 
          1.8829434265             0.0000000000
   Rotational constants (in MHz): 
      56449.2317203988             0.0000000000
  ECPDATA file not present.   Using default ECPDATA. 
  @GTFLGS-I, Hessian will be transformed to curvilinear coordinates.
  There are  218 basis functions.
 @CHECKOUT-I, Total execution time (CPU/WALL):        0.11/       0.17 seconds.
--executable xjoda finished with status     0 in        0.19 seconds (walltime).
 --invoking executable--
/nfs/workspaces/public/cfour_mpi/bin/xvmol
 SERIAL VERSION OF MOLECULE STARTED
********************************************************************************
                    INPUT FROM MOL FILE
********************************************************************************
INTGRL        1    0    1    0    0    0    0    0    0                         
         *** CFOUR Program System (Release V0.1) ***                            
Carbon Monoxide DBOC calculation                                                
    2    2 X  Y       0.10E-08              0    0                              
   9999.00      3.00                                                            
          6.00000000    1    5    1    1    1    1    1                         
C #1  -0.000000000000000   0.000000000000000   1.164543768358604                
   16    9                                                                      
   33980.0000000000       9.100000000000000E-005 -1.900000000000000E-005        
  0.000000000000000E+000  0.000000000000000E+000  0.000000000000000E+000        
  0.000000000000000E+000  0.000000000000000E+000  0.000000000000000E+000        
  0.000000000000000E+000                                                        
   5089.00000000000       7.040000000000000E-004 -1.510000000000000E-004        
  0.000000000000000E+000  0.000000000000000E+000  0.000000000000000E+000        
  0.000000000000000E+000  0.000000000000000E+000  0.000000000000000E+000        
  0.000000000000000E+000                                                        
   1157.00000000000       3.693000000000000E-003 -7.850000000000000E-004        
  0.000000000000000E+000  0.000000000000000E+000  0.000000000000000E+000        
  0.000000000000000E+000  0.000000000000000E+000  0.000000000000000E+000        
  0.000000000000000E+000                                                        
   326.600000000000       1.536000000000000E-002 -3.324000000000000E-003        
  0.000000000000000E+000  0.000000000000000E+000  0.000000000000000E+000        
  0.000000000000000E+000  0.000000000000000E+000  0.000000000000000E+000        
  0.000000000000000E+000                                                        
   106.100000000000       5.292900000000000E-002 -1.151200000000000E-002        
  0.000000000000000E+000  0.000000000000000E+000  0.000000000000000E+000        
  0.000000000000000E+000  0.000000000000000E+000  0.000000000000000E+000        
  0.000000000000000E+000                                                        
   38.1100000000000       0.147043000000000      -3.416000000000000E-002        
  0.000000000000000E+000  0.000000000000000E+000  0.000000000000000E+000        
  0.000000000000000E+000  0.000000000000000E+000  0.000000000000000E+000        
  0.000000000000000E+000                                                        
   14.7500000000000       0.305631000000000      -7.717300000000001E-002        
  0.000000000000000E+000  0.000000000000000E+000  0.000000000000000E+000        
  0.000000000000000E+000  0.000000000000000E+000  0.000000000000000E+000        
  0.000000000000000E+000                                                        
   6.03500000000000       0.399345000000000      -0.141493000000000             
  0.000000000000000E+000  0.000000000000000E+000  0.000000000000000E+000        
  0.000000000000000E+000  0.000000000000000E+000  0.000000000000000E+000        
  0.000000000000000E+000                                                        
   2.53000000000000       0.217051000000000      -0.118019000000000             
  0.000000000000000E+000  0.000000000000000E+000  0.000000000000000E+000        
  0.000000000000000E+000  0.000000000000000E+000  0.000000000000000E+000        
  0.000000000000000E+000                                                        
  0.735500000000000       1.589400000000000E-002  0.273806000000000             
   1.00000000000000       0.000000000000000E+000  0.000000000000000E+000        
  0.000000000000000E+000  0.000000000000000E+000  0.000000000000000E+000        
  0.000000000000000E+000                                                        
  0.290500000000000      -3.084000000000000E-003  0.586510000000000             
  0.000000000000000E+000   1.00000000000000       0.000000000000000E+000        
  0.000000000000000E+000  0.000000000000000E+000  0.000000000000000E+000        
  0.000000000000000E+000                                                        
  0.111100000000000       9.779999999999999E-004  0.285430000000000             
  0.000000000000000E+000  0.000000000000000E+000   1.00000000000000             
  0.000000000000000E+000  0.000000000000000E+000  0.000000000000000E+000        
  0.000000000000000E+000                                                        
   7.21600000000000       0.000000000000000E+000  0.000000000000000E+000        
  0.000000000000000E+000  0.000000000000000E+000  0.000000000000000E+000        
   1.00000000000000       0.000000000000000E+000  0.000000000000000E+000        
  0.000000000000000E+000                                                        
   19.5700000000000       0.000000000000000E+000  0.000000000000000E+000        
  0.000000000000000E+000  0.000000000000000E+000  0.000000000000000E+000        
  0.000000000000000E+000   1.00000000000000       0.000000000000000E+000        
  0.000000000000000E+000                                                        
   53.0730000000000       0.000000000000000E+000  0.000000000000000E+000        
  0.000000000000000E+000  0.000000000000000E+000  0.000000000000000E+000        
  0.000000000000000E+000  0.000000000000000E+000   1.00000000000000             
  0.000000000000000E+000                                                        
  4.145000000000000E-002  0.000000000000000E+000  0.000000000000000E+000        
  0.000000000000000E+000  0.000000000000000E+000  0.000000000000000E+000        
  0.000000000000000E+000  0.000000000000000E+000  0.000000000000000E+000        
   1.00000000000000                                                             
   10    8                                                                      
   34.5100000000000       5.378000000000000E-003  0.000000000000000E+000        
  0.000000000000000E+000  0.000000000000000E+000  0.000000000000000E+000        
  0.000000000000000E+000  0.000000000000000E+000  0.000000000000000E+000        
   7.91500000000000       3.613200000000000E-002  0.000000000000000E+000        
  0.000000000000000E+000  0.000000000000000E+000  0.000000000000000E+000        
  0.000000000000000E+000  0.000000000000000E+000  0.000000000000000E+000        
   2.36800000000000       0.142493000000000       0.000000000000000E+000        
  0.000000000000000E+000  0.000000000000000E+000  0.000000000000000E+000        
  0.000000000000000E+000  0.000000000000000E+000  0.000000000000000E+000        
  0.813200000000000       0.342150000000000        1.00000000000000             
  0.000000000000000E+000  0.000000000000000E+000  0.000000000000000E+000        
  0.000000000000000E+000  0.000000000000000E+000  0.000000000000000E+000        
  0.289000000000000       0.463864000000000       0.000000000000000E+000        
   1.00000000000000       0.000000000000000E+000  0.000000000000000E+000        
  0.000000000000000E+000  0.000000000000000E+000  0.000000000000000E+000        
  0.100700000000000       0.250028000000000       0.000000000000000E+000        
  0.000000000000000E+000   1.00000000000000       0.000000000000000E+000        
  0.000000000000000E+000  0.000000000000000E+000  0.000000000000000E+000        
   8.18200000000000       0.000000000000000E+000  0.000000000000000E+000        
  0.000000000000000E+000  0.000000000000000E+000   1.00000000000000             
  0.000000000000000E+000  0.000000000000000E+000  0.000000000000000E+000        
   24.1860000000000       0.000000000000000E+000  0.000000000000000E+000        
  0.000000000000000E+000  0.000000000000000E+000  0.000000000000000E+000        
   1.00000000000000       0.000000000000000E+000  0.000000000000000E+000        
   71.4940000000000       0.000000000000000E+000  0.000000000000000E+000        
  0.000000000000000E+000  0.000000000000000E+000  0.000000000000000E+000        
  0.000000000000000E+000   1.00000000000000       0.000000000000000E+000        
  3.218000000000000E-002  0.000000000000000E+000  0.000000000000000E+000        
  0.000000000000000E+000  0.000000000000000E+000  0.000000000000000E+000        
  0.000000000000000E+000  0.000000000000000E+000   1.00000000000000             
    6    6                                                                      
   1.84800000000000        1.00000000000000       0.000000000000000E+000        
  0.000000000000000E+000  0.000000000000000E+000  0.000000000000000E+000        
  0.000000000000000E+000                                                        
  0.649000000000000       0.000000000000000E+000   1.00000000000000             
  0.000000000000000E+000  0.000000000000000E+000  0.000000000000000E+000        
  0.000000000000000E+000                                                        
  0.228000000000000       0.000000000000000E+000  0.000000000000000E+000        
   1.00000000000000       0.000000000000000E+000  0.000000000000000E+000        
  0.000000000000000E+000                                                        
   8.65600000000000       0.000000000000000E+000  0.000000000000000E+000        
  0.000000000000000E+000   1.00000000000000       0.000000000000000E+000        
  0.000000000000000E+000                                                        
   33.2130000000000       0.000000000000000E+000  0.000000000000000E+000        
  0.000000000000000E+000  0.000000000000000E+000   1.00000000000000             
  0.000000000000000E+000                                                        
  7.660000000000000E-002  0.000000000000000E+000  0.000000000000000E+000        
  0.000000000000000E+000  0.000000000000000E+000  0.000000000000000E+000        
   1.00000000000000                                                             
    4    4                                                                      
   1.41900000000000        1.00000000000000       0.000000000000000E+000        
  0.000000000000000E+000  0.000000000000000E+000                                
  0.485000000000000       0.000000000000000E+000   1.00000000000000             
  0.000000000000000E+000  0.000000000000000E+000                                
   24.6940000000000       0.000000000000000E+000  0.000000000000000E+000        
   1.00000000000000       0.000000000000000E+000                                
  0.187000000000000       0.000000000000000E+000  0.000000000000000E+000        
  0.000000000000000E+000   1.00000000000000                                     
    2    2                                                                      
   1.01100000000000        1.00000000000000       0.000000000000000E+000        
  0.424000000000000       0.000000000000000E+000   1.00000000000000             
          8.00000000    1    5    1    1    1    1    1                         
O #2   0.000000000000000   0.000000000000000  -0.946736896111466                
   16    9                                                                      
   61420.0000000000       9.000000000000001E-005 -2.000000000000000E-005        
  0.000000000000000E+000  0.000000000000000E+000  0.000000000000000E+000        
  0.000000000000000E+000  0.000000000000000E+000  0.000000000000000E+000        
  0.000000000000000E+000                                                        
   9199.00000000000       6.980000000000001E-004 -1.590000000000000E-004        
  0.000000000000000E+000  0.000000000000000E+000  0.000000000000000E+000        
  0.000000000000000E+000  0.000000000000000E+000  0.000000000000000E+000        
  0.000000000000000E+000                                                        
   2091.00000000000       3.664000000000000E-003 -8.290000000000000E-004        
  0.000000000000000E+000  0.000000000000000E+000  0.000000000000000E+000        
  0.000000000000000E+000  0.000000000000000E+000  0.000000000000000E+000        
  0.000000000000000E+000                                                        
   590.900000000000       1.521800000000000E-002 -3.508000000000000E-003        
  0.000000000000000E+000  0.000000000000000E+000  0.000000000000000E+000        
  0.000000000000000E+000  0.000000000000000E+000  0.000000000000000E+000        
  0.000000000000000E+000                                                        
   192.300000000000       5.242300000000000E-002 -1.215600000000000E-002        
  0.000000000000000E+000  0.000000000000000E+000  0.000000000000000E+000        
  0.000000000000000E+000  0.000000000000000E+000  0.000000000000000E+000        
  0.000000000000000E+000                                                        
   69.3200000000000       0.145921000000000      -3.626100000000000E-002        
  0.000000000000000E+000  0.000000000000000E+000  0.000000000000000E+000        
  0.000000000000000E+000  0.000000000000000E+000  0.000000000000000E+000        
  0.000000000000000E+000                                                        
   26.9700000000000       0.305258000000000      -8.299200000000000E-002        
  0.000000000000000E+000  0.000000000000000E+000  0.000000000000000E+000        
  0.000000000000000E+000  0.000000000000000E+000  0.000000000000000E+000        
  0.000000000000000E+000                                                        
   11.1000000000000       0.398508000000000      -0.152090000000000             
  0.000000000000000E+000  0.000000000000000E+000  0.000000000000000E+000        
  0.000000000000000E+000  0.000000000000000E+000  0.000000000000000E+000        
  0.000000000000000E+000                                                        
   4.68200000000000       0.216980000000000      -0.115331000000000             
  0.000000000000000E+000  0.000000000000000E+000  0.000000000000000E+000        
  0.000000000000000E+000  0.000000000000000E+000  0.000000000000000E+000        
  0.000000000000000E+000                                                        
   1.42800000000000       1.759400000000000E-002  0.288979000000000             
   1.00000000000000       0.000000000000000E+000  0.000000000000000E+000        
  0.000000000000000E+000  0.000000000000000E+000  0.000000000000000E+000        
  0.000000000000000E+000                                                        
  0.554700000000000      -2.502000000000000E-003  0.586128000000000             
  0.000000000000000E+000   1.00000000000000       0.000000000000000E+000        
  0.000000000000000E+000  0.000000000000000E+000  0.000000000000000E+000        
  0.000000000000000E+000                                                        
  0.206700000000000       9.540000000000000E-004  0.277624000000000             
  0.000000000000000E+000  0.000000000000000E+000   1.00000000000000             
  0.000000000000000E+000  0.000000000000000E+000  0.000000000000000E+000        
  0.000000000000000E+000                                                        
   12.9740000000000       0.000000000000000E+000  0.000000000000000E+000        
  0.000000000000000E+000  0.000000000000000E+000  0.000000000000000E+000        
   1.00000000000000       0.000000000000000E+000  0.000000000000000E+000        
  0.000000000000000E+000                                                        
   34.9000000000000       0.000000000000000E+000  0.000000000000000E+000        
  0.000000000000000E+000  0.000000000000000E+000  0.000000000000000E+000        
  0.000000000000000E+000   1.00000000000000       0.000000000000000E+000        
  0.000000000000000E+000                                                        
   93.8810000000000       0.000000000000000E+000  0.000000000000000E+000        
  0.000000000000000E+000  0.000000000000000E+000  0.000000000000000E+000        
  0.000000000000000E+000  0.000000000000000E+000   1.00000000000000             
  0.000000000000000E+000                                                        
  6.959000000000000E-002  0.000000000000000E+000  0.000000000000000E+000        
  0.000000000000000E+000  0.000000000000000E+000  0.000000000000000E+000        
  0.000000000000000E+000  0.000000000000000E+000  0.000000000000000E+000        
   1.00000000000000                                                             
   10    8                                                                      
   63.4200000000000       6.044000000000000E-003  0.000000000000000E+000        
  0.000000000000000E+000  0.000000000000000E+000  0.000000000000000E+000        
  0.000000000000000E+000  0.000000000000000E+000  0.000000000000000E+000        
   14.6600000000000       4.179900000000000E-002  0.000000000000000E+000        
  0.000000000000000E+000  0.000000000000000E+000  0.000000000000000E+000        
  0.000000000000000E+000  0.000000000000000E+000  0.000000000000000E+000        
   4.45900000000000       0.161143000000000       0.000000000000000E+000        
  0.000000000000000E+000  0.000000000000000E+000  0.000000000000000E+000        
  0.000000000000000E+000  0.000000000000000E+000  0.000000000000000E+000        
   1.53100000000000       0.356731000000000        1.00000000000000             
  0.000000000000000E+000  0.000000000000000E+000  0.000000000000000E+000        
  0.000000000000000E+000  0.000000000000000E+000  0.000000000000000E+000        
  0.530200000000000       0.448309000000000       0.000000000000000E+000        
   1.00000000000000       0.000000000000000E+000  0.000000000000000E+000        
  0.000000000000000E+000  0.000000000000000E+000  0.000000000000000E+000        
  0.175000000000000       0.244940000000000       0.000000000000000E+000        
  0.000000000000000E+000   1.00000000000000       0.000000000000000E+000        
  0.000000000000000E+000  0.000000000000000E+000  0.000000000000000E+000        
   14.4750000000000       0.000000000000000E+000  0.000000000000000E+000        
  0.000000000000000E+000  0.000000000000000E+000   1.00000000000000             
  0.000000000000000E+000  0.000000000000000E+000  0.000000000000000E+000        
   42.7300000000000       0.000000000000000E+000  0.000000000000000E+000        
  0.000000000000000E+000  0.000000000000000E+000  0.000000000000000E+000        
   1.00000000000000       0.000000000000000E+000  0.000000000000000E+000        
   126.140000000000       0.000000000000000E+000  0.000000000000000E+000        
  0.000000000000000E+000  0.000000000000000E+000  0.000000000000000E+000        
  0.000000000000000E+000   1.00000000000000       0.000000000000000E+000        
  5.348000000000000E-002  0.000000000000000E+000  0.000000000000000E+000        
  0.000000000000000E+000  0.000000000000000E+000  0.000000000000000E+000        
  0.000000000000000E+000  0.000000000000000E+000   1.00000000000000             
    6    6                                                                      
   3.77500000000000        1.00000000000000       0.000000000000000E+000        
  0.000000000000000E+000  0.000000000000000E+000  0.000000000000000E+000        
  0.000000000000000E+000                                                        
   1.30000000000000       0.000000000000000E+000   1.00000000000000             
  0.000000000000000E+000  0.000000000000000E+000  0.000000000000000E+000        
  0.000000000000000E+000                                                        
  0.444000000000000       0.000000000000000E+000  0.000000000000000E+000        
   1.00000000000000       0.000000000000000E+000  0.000000000000000E+000        
  0.000000000000000E+000                                                        
   14.9270000000000       0.000000000000000E+000  0.000000000000000E+000        
  0.000000000000000E+000   1.00000000000000       0.000000000000000E+000        
  0.000000000000000E+000                                                        
   57.5440000000000       0.000000000000000E+000  0.000000000000000E+000        
  0.000000000000000E+000  0.000000000000000E+000   1.00000000000000             
  0.000000000000000E+000                                                        
  0.154000000000000       0.000000000000000E+000  0.000000000000000E+000        
  0.000000000000000E+000  0.000000000000000E+000  0.000000000000000E+000        
   1.00000000000000                                                             
    4    4                                                                      
   2.66600000000000        1.00000000000000       0.000000000000000E+000        
  0.000000000000000E+000  0.000000000000000E+000                                
  0.859000000000000       0.000000000000000E+000   1.00000000000000             
  0.000000000000000E+000  0.000000000000000E+000                                
   26.4830000000000       0.000000000000000E+000  0.000000000000000E+000        
   1.00000000000000       0.000000000000000E+000                                
  0.324000000000000       0.000000000000000E+000  0.000000000000000E+000        
  0.000000000000000E+000   1.00000000000000                                     
    2    2                                                                      
   1.84600000000000        1.00000000000000       0.000000000000000E+000        
  0.714000000000000       0.000000000000000E+000   1.00000000000000             
FINISH                                                                          
 
********************************************************************************
 ONE- AND TWO-ELECTRON INTEGRALS OVER SYMMETRY-ADAPTED AOS ARE CALCULATED.

  SPHERICAL HARMONICS ARE USED.
  
  INTEGRALS LESS THAN  0.10E-13 ARE NEGLECTED.

  NUCLEAR REPULSION ENERGY :   22.7350161481 A.U.
  @MOLECU-I, ONE ELECTRON INTEGRALS (CPU/WALL):        0.06/       0.07 SECONDS.
  @TWOEL-I,    4601759 INTEGRALS OF SYMMETRY TYPE  I I I I
  @TWOEL-I,   19745238 INTEGRALS OF SYMMETRY TYPE  I J I J
  @TWOEL-I,   10405972 INTEGRALS OF SYMMETRY TYPE  I I J J
  @TWOEL-I,   14608283 INTEGRALS OF SYMMETRY TYPE  I J K L
  @TWOEL-I, TOTAL NUMBER OF 2-E INTEGRALS   49361252.
  @MOLECU-I, TWO ELECTRON INTEGRALS (CPU/WALL):      197.09/      27.78 SECONDS.
 @CHECKOUT-I, Total execution time (CPU/WALL):      197.16/      27.86 seconds.

Running with 14 threads/proc

--executable xvmol finished with status     0 in       27.88 seconds (walltime).
 --invoking executable--
/nfs/workspaces/public/cfour_mpi/bin/xvmol2ja
 @GETMEM-I,  Allocated    3814 MB of main memory.
 @CHECKOUT-I, Total execution time (CPU/WALL):        0.15/       0.06 seconds.
--executable xvmol2ja finished with status     0 in        0.08 seconds (walltime).
 --invoking executable--
/nfs/workspaces/public/cfour_mpi/bin/xvprop
 @GETMEM-I,  Allocated    3814 MB of main memory.
   Property integrals will be calculated.
    --------------------------------------------------------------
                                   Property evaluated at 
    Property type                X             Y             Z
    --------------------------------------------------------------
    Dipole moment               ----          ----          ----  
    Quadrupole moment           ----          ----          ----  
    Octopole moment             ----          ----          ----  
    Relativisitic corr.         ----          ----          ----  
    Second moment            0.0000000     0.0000000     0.0000000
    Electron density         0.0000000     0.0000000     1.1645438
    Electron density         0.0000000     0.0000000    -0.9467369
    Field gradient           0.0000000     0.0000000     1.1645438
    Field gradient           0.0000000     0.0000000    -0.9467369
    Potential                0.0000000     0.0000000     1.1645438
    Potential                0.0000000     0.0000000    -0.9467369
    --------------------------------------------------------------
 @CHECKOUT-I, Total execution time (CPU/WALL):        1.31/       1.36 seconds.
--executable xvprop finished with status     0 in        1.37 seconds (walltime).
 --invoking executable--
/nfs/workspaces/public/cfour_mpi/bin/xvscf
  There are  218 functions in the AO basis.

  There are 4 irreducible representations.

       Irrep        # of functions
         1                 86
         2                 52
         3                 52
         4                 28


  Parameters for SCF calculation: 
        SCF reference function:  RHF  
  Maximum number of iterations:  150
     Full symmetry point group: CXv 
     Computational point group: C2v 
        Initial density matrix: MOREAD                 
     SCF convergence tolerance: 10**(-10)
  DIIS convergence acceleration:  ON
          Latest start for DIIS:   8
                     DIIS order:   6

  Memory information:    2523578 words required.
  Fock matrices are constructed from AO integral file.
 @GETMEM-I,  Allocated      19 MB of main memory.
  Initialization and symmetry analysis required      0.001 seconds.

  Adding electric field perturbation to one-electron Hamiltonian.
  Field direction     : Z
  Field strength      : -0.0002000 a.u.

  @INITGES-I, Occupancies from core Hamiltonian:

          Alpha population by irrep:   5    1    1    0
           Beta population by irrep:   5    1    1    0


 total no. of electrons in initial guess :  0.000000000000000E+000
  --------------------------------------------------------------------
  Iteration         Total Energy            Largest Density Difference
  --------------------------------------------------------------------
       0            22.734898821636701              0.0000000000D+00
   current occupation vector 
     5  1  1  0
     5  1  1  0
       1           -91.704470861692457              0.1878701377D+02
   current occupation vector 
     5  1  1  0
     5  1  1  0
       2           -96.209852225788026              0.2676496817D+02
   current occupation vector 
     5  1  1  0
     5  1  1  0
       3          -103.325727278833568              0.2675203207D+02
   current occupation vector 
     5  1  1  0
     5  1  1  0
       4          -100.451044944035857              0.7636095252D+01
   current occupation vector 
     5  1  1  0
     5  1  1  0
       5          -103.611703496735757              0.7611595644D+01
   current occupation vector 
     5  1  1  0
     5  1  1  0
       6          -100.701904267547121              0.5799809559D+01
   current occupation vector 
     5  1  1  0
     5  1  1  0
       7          -103.338763340453568              0.5556945583D+01
   current occupation vector 
     5  1  1  0
     5  1  1  0
       8          -100.405032343864519              0.5539273912D+01
   current occupation vector 
     5  1  1  0
     5  1  1  0
       9          -110.904819601039350              0.4136320595D+01
   current occupation vector 
     5  1  1  0
     5  1  1  0
      10          -112.341346709104670              0.9118968738D+00
   current occupation vector 
     5  1  1  0
     5  1  1  0
      11          -112.778016106988758              0.4843682713D+00
   current occupation vector 
     5  1  1  0
     5  1  1  0
      12          -112.789985561365427              0.9866800050D-01
   current occupation vector 
     5  1  1  0
     5  1  1  0
      13          -112.790356191268359              0.2121803108D-01
   current occupation vector 
     5  1  1  0
     5  1  1  0
      14          -112.790427274740438              0.1294325600D-01
   current occupation vector 
     5  1  1  0
     5  1  1  0
      15          -112.790429680934352              0.3098389040D-02
   current occupation vector 
     5  1  1  0
     5  1  1  0
      16          -112.790429708907510              0.2702335305D-03
   current occupation vector 
     5  1  1  0
     5  1  1  0
      17          -112.790429709562005              0.3212076830D-04
   current occupation vector 
     5  1  1  0
     5  1  1  0
      18          -112.790429709581105              0.5027814918D-05
   current occupation vector 
     5  1  1  0
     5  1  1  0
      19          -112.790429709583179              0.9858553041D-06
   current occupation vector 
     5  1  1  0
     5  1  1  0
      20          -112.790429709580650              0.1505340600D-06
   current occupation vector 
     5  1  1  0
     5  1  1  0
      21          -112.790429709582241              0.2851382153D-07
   current occupation vector 
     5  1  1  0
     5  1  1  0
      22          -112.790429709582867              0.6487216320D-08
   current occupation vector 
     5  1  1  0
     5  1  1  0
      23          -112.790429709581332              0.4232219686D-08
   current occupation vector 
     5  1  1  0
     5  1  1  0
      24          -112.790429709582156              0.1693973156D-09
   current occupation vector 
     5  1  1  0
     5  1  1  0
      25          -112.790429709580110              0.1102047342D-09
   current occupation vector 
     5  1  1  0
     5  1  1  0

  SCF has converged.

 Density matrix saved to file den.dat
 total electron number:   14.0000000000001     
     E(SCF)=      -112.790429709581844              0.9234524256D-10

  Eigenvector printing suppressed.

 @PUTMOS-I, Writing converged MOs to NEWMOS. 
 @PUTMOS-I, Symmetry   1 Full Blocks 21 Partial Blocksize   2
 @PUTMOS-I, Symmetry   2 Full Blocks 13 Partial Blocksize   0
 @PUTMOS-I, Symmetry   3 Full Blocks 13 Partial Blocksize   0
 @PUTMOS-I, Symmetry   4 Full Blocks  7 Partial Blocksize   0
 @PUTFOCK-I, Writing converged Fock matrix to NEWFOCK. 
 @PUTFOCK-I, Symmetry   1 Full Blocks 21 Partial Blocksize   2
 @PUTFOCK-I, Symmetry   2 Full Blocks 13 Partial Blocksize   0
 @PUTFOCK-I, Symmetry   3 Full Blocks 13 Partial Blocksize   0
 @PUTFOCK-I, Symmetry   4 Full Blocks  7 Partial Blocksize   0


 
  ORBITAL EIGENVALUES (ALPHA)  (1H = 27.2113834 eV)

       MO #        E(hartree)               E(eV)           FULLSYM    COMPSYM
       ----   --------------------   --------------------   -------   ---------
    1     1         -20.6648805893        -562.3199886305     SG+        A1 (1)
    2     2         -11.3554392342        -308.9972106770     SG+        A1 (1)
    3     3          -1.5294228193         -41.6177107155     SG+        A1 (1)
    4     4          -0.8055843852         -21.9210655663     SG+        A1 (1)
    5   139          -0.6452063023         -17.5569560647      PI        B2 (3)
    6    87          -0.6452063023         -17.5569560647      PI        B1 (2)
    7     5          -0.5538685797         -15.0715302744     SG+        A1 (1)
  +++++++++++++++++++++++++++++++++++++++++++++++++++++++++++++++++++++++++++++
    8     6           0.0603439885           1.6420434069     SG+        A1 (1)
    9   140           0.0626979104           1.7060968778      PI        B2 (3)
   10    88           0.0626979104           1.7060968778      PI        B1 (2)
   11     7           0.0738967552           2.0108329389     SG+        A1 (1)
   12   141           0.1437383977           3.9113206493      PI        B2 (3)
   13    89           0.1437383977           3.9113206493      PI        B1 (2)
   14     8           0.1566663300           4.2631075724     SG+        A1 (1)
   15    90           0.1673803623           4.5546512126      PI        B1 (2)
   16   142           0.1673803623           4.5546512126      PI        B2 (3)
   17   191           0.2276698864           6.1952125684      DE        A2 (4)
   18     9           0.2276698864           6.1952125684      DE        A1 (1)
   19    10           0.2280646357           6.2059542429     SG+        A1 (1)
   20    11           0.3010895313           8.1930626745     SG+        A1 (1)
   21    91           0.3215148337           8.7488634086      PI        B1 (2)
   22   143           0.3215148337           8.7488634086      PI        B2 (3)
   23    12           0.3917098425          10.6589667049     SG+        A1 (1)
   24    92           0.3960592143          10.7773191287      PI        B1 (2)
   25   144           0.3960592143          10.7773191288      PI        B2 (3)
   26    13           0.5085956130          13.8395902218     SG+        A1 (1)
   27    14           0.5339821251          14.5303923350      DE        A1 (1)
   28   192           0.5339821251          14.5303923350      DE        A2 (4)
   29    93           0.6230780111          16.9548146474      PI        B1 (2)
   30   145           0.6230780111          16.9548146474      PI        B2 (3)
   31    15           0.6481044019          17.6358173641     SG+        A1 (1)
   32   146           0.7487763731          20.3752409704      PH        B2 (3)
   33    94           0.7487763731          20.3752409704      PH        B1 (2)
   34   193           0.7687531634          20.9188370694      DE        A2 (4)
   35    16           0.7687531634          20.9188370694      DE        A1 (1)
   36    17           0.7802623388          21.2320176548     SG+        A1 (1)
   37    95           0.8244951050          22.4356524130      PI        B1 (2)
   38   147           0.8244951050          22.4356524130      PI        B2 (3)
   39    18           0.8728249286          23.7507737721     SG+        A1 (1)
   40    96           0.8802334956          23.9523711309      PI        B1 (2)
   41   148           0.8802334956          23.9523711309      PI        B2 (3)
   42    19           0.8917072565          24.2645880381      DE        A1 (1)
   43   194           0.8917072565          24.2645880381      DE        A2 (4)
   44    20           0.9156393193          24.9158125732     SG+        A1 (1)
   45    97           1.0792431970          29.3677004156      PI        B1 (2)
   46   149           1.0792431970          29.3677004157      PI        B2 (3)
   47    21           1.2045306189          32.7769444891     SG+        A1 (1)
   48    98           1.4484577681          39.4145396678      PH        B1 (2)
   49   150           1.4484577681          39.4145396678      PH        B2 (3)
   50    22           1.4789432145          40.2440908369     SG+        A1 (1)
   51    23           1.5160761690          41.2545298987      DE        A1 (1)
   52   195           1.5160761690          41.2545298987      DE        A2 (4)
   53    99           1.5521503759          42.2361589720      PI        B1 (2)
   54   151           1.5521503759          42.2361589720      PI        B2 (3)
   55    24           1.6670150865          45.3617866530     SG+        A1 (1)
   56    25           1.7675273442          48.0968642330     SG+        A1 (1)
   57    26           1.7703222678          48.1729179720      DE        A1 (1)
   58   196           1.7703222679          48.1729179720      DE        A2 (4)
   59   100           1.8142422498          49.3680414398      PI        B1 (2)
   60   152           1.8142422498          49.3680414398      PI        B2 (3)
   61   101           1.9639823490          53.4426766891      PI        B1 (2)
   62   153           1.9639823490          53.4426766891      PI        B2 (3)
   63   197           2.1062128250          57.3129647040      PI        A2 (4)
   64    27           2.1062128250          57.3129647040      PI        A1 (1)
   65    28           2.1421118743          58.2898274964     SG+        A1 (1)
   66   198           2.1981776412          59.8154545750      DE        A2 (4)
   67    29           2.1981776412          59.8154545751      DE        A1 (1)
   68   154           2.2526283059          61.2971324892      PH        B2 (3)
   69   102           2.2526283059          61.2971324892      PH        B1 (2)
   70    30           2.3165466310          63.0364385391     SG+        A1 (1)
   71   103           2.3269841972          63.3204591545      PI        B1 (2)
   72   155           2.3269841972          63.3204591545      PI        B2 (3)
   73    31           2.3659212030          64.3799889484      DE        A1 (1)
   74   199           2.3659212030          64.3799889484      DE        A2 (4)
   75   156           2.3671925405          64.4145838022      PH        B2 (3)
   76   104           2.3671925405          64.4145838022      PH        B1 (2)
   77    32           2.4890529692          67.7305746484     SG+        A1 (1)
   78   157           2.5999927591          70.7493998042      PI        B2 (3)
   79   105           2.5999927591          70.7493998043      PI        B1 (2)
   80   106           2.8428649672          77.3582885775      PI        B1 (2)
   81   158           2.8428649672          77.3582885775      PI        B2 (3)
   82    33           2.9579316278          80.4894115958     SG+        A1 (1)
   83   200           3.0186041872          82.1403958719      DE        A2 (4)
   84    34           3.0186041872          82.1403958720      DE        A1 (1)
   85    35           3.4714518163          94.4630063275     SG+        A1 (1)
   86   201           3.7258663473         101.3859776740      PI        A2 (4)
   87    36           3.7258663473         101.3859776740      PI        A1 (1)
   88   107           3.7539252286         102.1494986517      PI        B1 (2)
   89   159           3.7539252286         102.1494986517      PI        B2 (3)
   90    37           3.9512747313         107.5196516308     SG+        A1 (1)
   91   108           4.0817487858         111.0700311539      PH        B1 (2)
   92   160           4.0817487858         111.0700311539      PH        B2 (3)
   93    38           4.1760784183         113.6368709494      DE        A1 (1)
   94   202           4.1760784183         113.6368709494      DE        A2 (4)
   95   109           4.2110210229         114.5877075607      PI        B1 (2)
   96   161           4.2110210229         114.5877075607      PI        B2 (3)
   97    39           4.2757563567         116.3492455467     SG+        A1 (1)
   98   110           4.2962990955         116.9082418875      PH        B1 (2)
   99   162           4.2962990955         116.9082418875      PH        B2 (3)
  100    40           4.3867264122         119.3688942724      DE        A1 (1)
  101   203           4.3867264122         119.3688942724      DE        A2 (4)
  102    41           4.5534182036         123.9048085191     SG+        A1 (1)
  103   163           4.7629339284         129.6060212348      PI        B2 (3)
  104   111           4.7629339284         129.6060212348      PI        B1 (2)
  105    42           5.0009608352         136.0830626560     SG+        A1 (1)
  106   112           5.1471968046         140.0623456865      PI        B1 (2)
  107   164           5.1471968046         140.0623456865      PI        B2 (3)
  108   204           5.1587813447         140.3775770478      DE        A2 (4)
  109    43           5.1587813447         140.3775770479      DE        A1 (1)
  110   113           5.8290635690         158.6168836404      PI        B1 (2)
  111   165           5.8290635691         158.6168836404      PI        B2 (3)
  112    44           5.8935697752         160.3721867481     SG+        A1 (1)
  113   205           5.9026123163         160.6182468012      PI        A2 (4)
  114    45           5.9026123163         160.6182468012      PI        A1 (1)
  115   166           6.1474244042         167.2799223846      PH        B2 (3)
  116   114           6.1474244042         167.2799223846      PH        B1 (2)
  117    46           6.2303578120         169.5366551420     SG+        A1 (1)
  118    47           6.3089501415         171.6752611526      DE        A1 (1)
  119   206           6.3089501415         171.6752611526      DE        A2 (4)
  120   167           6.3315979041         172.2915381043      PI        B2 (3)
  121   115           6.3315979041         172.2915381043      PI        B1 (2)
  122   168           6.4456809754         175.3958962950      PH        B2 (3)
  123   116           6.4456809754         175.3958962950      PH        B1 (2)
  124   207           6.5968672340         179.5098835430      DE        A2 (4)
  125    48           6.5968672340         179.5098835432      DE        A1 (1)
  126    49           7.0762180484         192.5536823365     SG+        A1 (1)
  127    50           7.3943113738         201.2094417705      DE        A1 (1)
  128   208           7.3943113738         201.2094417705      DE        A2 (4)
  129   117           7.5211346781         204.6604793289      PI        B1 (2)
  130   169           7.5211346781         204.6604793290      PI        B2 (3)
  131    51           7.8171642262         212.7158528594     SG+        A1 (1)
  132    52           8.2901866805         225.5874482205     SG+        A1 (1)
  133   170           8.5248529119         231.9730410156      PI        B2 (3)
  134   118           8.5248529119         231.9730410157      PI        B1 (2)
  135   171          10.1226748132         275.4519853754      PI        B2 (3)
  136   119          10.1226748132         275.4519853756      PI        B1 (2)
  137    53          10.4844824084         285.2972705648     SG+        A1 (1)
  138   209          10.6014499987         288.4801205098      PI        A2 (4)
  139    54          10.6014499987         288.4801205098      PI        A1 (1)
  140   172          10.8905356706         296.3465415646      PH        B2 (3)
  141   120          10.8905356706         296.3465415646      PH        B1 (2)
  142   210          11.1463638008         303.3079789003      DE        A2 (4)
  143    55          11.1463638008         303.3079789003      DE        A1 (1)
  144    56          11.1719220451         304.0034540834     SG+        A1 (1)
  145   173          11.3797304238         309.6582075516      PI        B2 (3)
  146   121          11.3797304238         309.6582075516      PI        B1 (2)
  147    57          11.6795214087         317.8159349799     SG+        A1 (1)
  148   174          11.8550915096         322.5934403103      PH        B2 (3)
  149   122          11.8550915096         322.5934403103      PH        B1 (2)
  150   211          12.3045657572         334.8242563884      DE        A2 (4)
  151    58          12.3045657572         334.8242563887      DE        A1 (1)
  152   175          12.6678061656         344.7085304094      PI        B2 (3)
  153   123          12.6678061656         344.7085304094      PI        B1 (2)
  154   212          12.8871870122         350.6781867366      DE        A2 (4)
  155    59          12.8871870122         350.6781867366      DE        A1 (1)
  156    60          13.3636391836         363.6431094455     SG+        A1 (1)
  157   176          14.2494600137         387.7475196748      PI        B2 (3)
  158   124          14.2494600137         387.7475196748      PI        B1 (2)
  159    61          15.6585276224         426.0901986117     SG+        A1 (1)
  160    62          18.0600787725         491.4397277120     SG+        A1 (1)
  161   125          19.4374236968         528.9191885207      PI        B1 (2)
  162   177          19.4374236968         528.9191885211      PI        B2 (3)
  163    63          20.7179057621         563.7628769385     SG+        A1 (1)
  164   213          26.5509485124         722.4880396049      DE        A2 (4)
  165    64          26.5509485124         722.4880396050      DE        A1 (1)
  166   178          27.0561997545         736.2366248680      PI        B2 (3)
  167   126          27.0561997545         736.2366248680      PI        B1 (2)
  168    65          28.2948035495         769.9407476133     SG+        A1 (1)
  169   179          33.8029382118         919.8247117270      PI        B2 (3)
  170   127          33.8029382118         919.8247117275      PI        B1 (2)
  171    66          35.0498779591         953.7556672688     SG+        A1 (1)
  172    67          36.9013992900        1004.1381240767     SG+        A1 (1)
  173   214          47.1268713786        1282.3873655247      DE        A2 (4)
  174    68          47.1268713786        1282.3873655247      DE        A1 (1)
  175   180          47.7590838164        1299.5907405604      PI        B2 (3)
  176   128          47.7590838164        1299.5907405604      PI        B1 (2)
  177    69          48.6190384743        1322.9912964643     SG+        A1 (1)
  178    70          64.2595524810        1748.5913196730     SG+        A1 (1)
  179   129          66.8777698034        1819.8366350566      PI        B1 (2)
  180   181          66.8777698034        1819.8366350571      PI        B2 (3)
  181    71          67.8605039007        1846.5781893591     SG+        A1 (1)
  182   130          98.6824471725        2685.2859048623      PH        B1 (2)
  183   182          98.6824471725        2685.2859048623      PH        B2 (3)
  184   215          98.7063964403        2685.9375975691      DE        A2 (4)
  185    72          98.7063964403        2685.9375975691      DE        A1 (1)
  186   183          98.7774086270        2687.8699374070      PI        B2 (3)
  187   131          98.7774086270        2687.8699374070      PI        B1 (2)
  188    73          98.7886533379        2688.1759215476     SG+        A1 (1)
  189   132         103.2847142347        2810.5199584005      PH        B1 (2)
  190   184         103.2847142347        2810.5199584005      PH        B2 (3)
  191    74         103.3372480855        2811.9494771555      DE        A1 (1)
  192   216         103.3372480855        2811.9494771557      DE        A2 (4)
  193   185         103.3651830593        2812.7096264369      PI        B2 (3)
  194   133         103.3651830593        2812.7096264369      PI        B1 (2)
  195    75         103.4314525219        2814.5129101933     SG+        A1 (1)
  196   217         115.2003211588        3134.7601068551      DE        A2 (4)
  197    76         115.2003211588        3134.7601068552      DE        A1 (1)
  198   186         115.4466116706        3141.4620123986      PI        B2 (3)
  199   134         115.4466116706        3141.4620123987      PI        B1 (2)
  200    77         116.0711579621        3158.4567809892     SG+        A1 (1)
  201   187         117.0505358836        3185.1070091043      PI        B2 (3)
  202   135         117.0505358836        3185.1070091048      PI        B1 (2)
  203    78         118.1329045388        3214.5597575612     SG+        A1 (1)
  204    79         122.9645055211        3346.0343043254     SG+        A1 (1)
  205   218         198.5825343682        5403.7054792373      DE        A2 (4)
  206    80         198.5825343682        5403.7054792373      DE        A1 (1)
  207   188         198.9257246338        5413.0441611337      PI        B2 (3)
  208   136         198.9257246338        5413.0441611341      PI        B1 (2)
  209    81         199.3583622702        5424.8168297315     SG+        A1 (1)
  210    82         216.7357419492        5897.6793706643     SG+        A1 (1)
  211   137         225.2876666917        6130.3890736384      PI        B1 (2)
  212   189         225.2876666917        6130.3890736389      PI        B2 (3)
  213    83         226.0906677872        6152.2398443199     SG+        A1 (1)
  214   190         395.5082222685       10762.3258739998      PI        B2 (3)
  215   138         395.5082222685       10762.3258740004      PI        B1 (2)
  216    84         396.3947289393       10786.4489469057     SG+        A1 (1)
  217    85         509.4864119685       13863.8300931652     SG+        A1 (1)
  218    86         895.5683980999       24369.6550416212     SG+        A1 (1)


  VSCF finished.

 @CHECKOUT-I, Total execution time (CPU/WALL):       48.45/      10.83 seconds.
--executable xvscf finished with status     0 in       10.85 seconds (walltime).
 --invoking executable--
/nfs/workspaces/public/cfour_mpi/bin/xvtran
 @GETMEM-I,  Allocated    3814 MB of main memory.
  Full RHF integral transformation
  Transformation of IIII integrals :
  1 pass through the AO integral file was required.
     4601759 AO integrals were read.
     8826149 MO integrals were written to HF2.
  Transformation of IIJJ integrals :
  1 pass through the AO integral file was required.
    10405972 AO integrals were read.
    14633997 MO integrals were written to HF2.
  Transformation of IJIJ integrals :
  1 pass through the AO integral file was required.
    19745238 AO integrals were read.
    27506456 MO integrals were written to HF2.
  Transformation of IJKL integrals :
  1 pass through the AO integral file was required.
    14608283 AO integrals were read.
    18556215 MO integrals were written to HF2.
  Summary of active molecular orbitals: 
------------------------------------------------------------------------
 
  Index      Eigenvalue    Symmetry    Index      Eigenvalue    Symmetry
------------------------------------------------------------------------
     1       -20.6648806        1       110         4.2110210        2
     2       -11.3554392        1       111         4.2962991        2
     3        -1.5294228        1       112         4.7629339        2
     4        -0.8055844        1       113         5.1471968        2
     5        -0.5538686        1       114         5.8290636        2
     6        -0.6452063        2       115         6.1474244        2
     7        -0.6452063        3       116         6.3315979        2
     8         0.0603440        1       117         6.4456810        2
     9         0.0738968        1       118         7.5211347        2
    10         0.1566663        1       119         8.5248529        2
    11         0.2276699        1       120        10.1226748        2
    12         0.2280646        1       121        10.8905357        2
    13         0.3010895        1       122        11.3797304        2
    14         0.3917098        1       123        11.8550915        2
    15         0.5085956        1       124        12.6678062        2
    16         0.5339821        1       125        14.2494600        2
    17         0.6481044        1       126        19.4374237        2
    18         0.7687532        1       127        27.0561998        2
    19         0.7802623        1       128        33.8029382        2
    20         0.8728249        1       129        47.7590838        2
    21         0.8917073        1       130        66.8777698        2
    22         0.9156393        1       131        98.6824472        2
    23         1.2045306        1       132        98.7774086        2
    24         1.4789432        1       133       103.2847142        2
    25         1.5160762        1       134       103.3651831        2
    26         1.6670151        1       135       115.4466117        2
    27         1.7675273        1       136       117.0505359        2
    28         1.7703223        1       137       198.9257246        2
    29         2.1062128        1       138       225.2876667        2
    30         2.1421119        1       139       395.5082223        2
    31         2.1981776        1       140         0.0626979        3
    32         2.3165466        1       141         0.1437384        3
    33         2.3659212        1       142         0.1673804        3
    34         2.4890530        1       143         0.3215148        3
    35         2.9579316        1       144         0.3960592        3
    36         3.0186042        1       145         0.6230780        3
    37         3.4714518        1       146         0.7487764        3
    38         3.7258663        1       147         0.8244951        3
    39         3.9512747        1       148         0.8802335        3
    40         4.1760784        1       149         1.0792432        3
    41         4.2757564        1       150         1.4484578        3
    42         4.3867264        1       151         1.5521504        3
    43         4.5534182        1       152         1.8142422        3
    44         5.0009608        1       153         1.9639823        3
    45         5.1587813        1       154         2.2526283        3
    46         5.8935698        1       155         2.3269842        3
    47         5.9026123        1       156         2.3671925        3
    48         6.2303578        1       157         2.5999928        3
    49         6.3089501        1       158         2.8428650        3
    50         6.5968672        1       159         3.7539252        3
    51         7.0762180        1       160         4.0817488        3
    52         7.3943114        1       161         4.2110210        3
    53         7.8171642        1       162         4.2962991        3
    54         8.2901867        1       163         4.7629339        3
    55        10.4844824        1       164         5.1471968        3
    56        10.6014500        1       165         5.8290636        3
    57        11.1463638        1       166         6.1474244        3
    58        11.1719220        1       167         6.3315979        3
    59        11.6795214        1       168         6.4456810        3
    60        12.3045658        1       169         7.5211347        3
    61        12.8871870        1       170         8.5248529        3
    62        13.3636392        1       171        10.1226748        3
    63        15.6585276        1       172        10.8905357        3
    64        18.0600788        1       173        11.3797304        3
    65        20.7179058        1       174        11.8550915        3
    66        26.5509485        1       175        12.6678062        3
    67        28.2948035        1       176        14.2494600        3
    68        35.0498780        1       177        19.4374237        3
    69        36.9013993        1       178        27.0561998        3
    70        47.1268714        1       179        33.8029382        3
    71        48.6190385        1       180        47.7590838        3
    72        64.2595525        1       181        66.8777698        3
    73        67.8605039        1       182        98.6824472        3
    74        98.7063964        1       183        98.7774086        3
    75        98.7886533        1       184       103.2847142        3
    76       103.3372481        1       185       103.3651831        3
    77       103.4314525        1       186       115.4466117        3
    78       115.2003212        1       187       117.0505359        3
    79       116.0711580        1       188       198.9257246        3
    80       118.1329045        1       189       225.2876667        3
    81       122.9645055        1       190       395.5082223        3
    82       198.5825344        1       191         0.2276699        4
    83       199.3583623        1       192         0.5339821        4
    84       216.7357419        1       193         0.7687532        4
    85       226.0906678        1       194         0.8917073        4
    86       396.3947289        1       195         1.5160762        4
    87       509.4864120        1       196         1.7703223        4
    88       895.5683981        1       197         2.1062128        4
    89         0.0626979        2       198         2.1981776        4
    90         0.1437384        2       199         2.3659212        4
    91         0.1673804        2       200         3.0186042        4
    92         0.3215148        2       201         3.7258663        4
    93         0.3960592        2       202         4.1760784        4
    94         0.6230780        2       203         4.3867264        4
    95         0.7487764        2       204         5.1587813        4
    96         0.8244951        2       205         5.9026123        4
    97         0.8802335        2       206         6.3089501        4
    98         1.0792432        2       207         6.5968672        4
    99         1.4484578        2       208         7.3943114        4
   100         1.5521504        2       209        10.6014500        4
   101         1.8142422        2       210        11.1463638        4
   102         1.9639823        2       211        12.3045658        4
   103         2.2526283        2       212        12.8871870        4
   104         2.3269842        2       213        26.5509485        4
   105         2.3671925        2       214        47.1268714        4
   106         2.5999928        2       215        98.7063964        4
   107         2.8428650        2       216       103.3372481        4
   108         3.7539252        2       217       115.2003212        4
   109         4.0817488        2       218       198.5825344        4
------------------------------------------------------------------------
  -20.6648805892948       -11.3554392341926       -1.52942281925545     
 -0.805584385182875      -0.553868579660628      -0.645206302327793     
 -0.645206302327834       6.034398849734701E-002  7.389675524058786E-002
  0.156666330033062       0.227669886433096       0.228064635730988     
  0.301089531320253       0.391709842465859       0.508595613031427     
  0.533982125107137       0.648104401929953       0.768753163406284     
  0.780262338841458       0.872824928558384       0.891707256533667     
  0.915639319284644        1.20453061894358        1.47894321451079     
   1.51607616901620        1.66701508652405        1.76752734420059     
   1.77032226784836        2.10621282503470        2.14211187426642     
   2.19817764116515        2.31654663096238        2.36592120297796     
   2.48905296922349        2.95793162782810        3.01860418724449     
   3.47145181628275        3.72586634731518        3.95127473125047     
   4.17607841831946        4.27575635668374        4.38672641216741     
   4.55341820361357        5.00096083523760        5.15878134471939     
   5.89356977521869        5.90261231632991        6.23035781201766     
   6.30895014152691        6.59686723399649        7.07621804838154     
   7.39431137376341        7.81716422618241        8.29018668049426     
   10.4844824083751        10.6014499986721        11.1463638008299     
   11.1719220450746        11.6795214086740        12.3045657571628     
   12.8871870122053        13.3636391836480        15.6585276223675     
   18.0600787724754        20.7179057621327        26.5509485124141     
   28.2948035495063        35.0498779591186        36.9013992900012     
   47.1268713785668        48.6190384743291        64.2595524810016     
   67.8605039006977        98.7063964402900        98.7886533379115     
[...]
 Convergence information after     9 iterations: 
 Largest element of residual vector :  0.84414975E-05.
 Largest element of DIIS residual   :  0.46501381E-05.
 Convergence information after    10 iterations: 
 Largest element of residual vector :  0.46430028E-05.
 Largest element of DIIS residual   :  0.30829815E-05.
 Convergence information after    11 iterations: 
 Largest element of residual vector :  0.17475448E-05.
 Largest element of DIIS residual   :  0.70037290E-06.
 Convergence information after    12 iterations: 
 Largest element of residual vector :  0.71322781E-06.
 Largest element of DIIS residual   :  0.38001967E-06.
 Convergence information after    13 iterations: 
 Largest element of residual vector :  0.28350857E-06.
 Largest element of DIIS residual   :  0.21451132E-06.
 Convergence information after    14 iterations: 
 Largest element of residual vector :  0.16226551E-06.
 Largest element of DIIS residual   :  0.88039765E-07.
 Perturbed amplitude equations converged in    14 iterations.
  Dominant contributions to perturbed wavefunction:
    7    7  141   27   0.2032271011 ABAB
    7    7   27  141   0.2032271011 ABAB
    7    7  141   37   0.1954138213 ABAB
    7    7   37  141   0.1954138213 ABAB
    7    7  141   55   0.1750986884 ABAB
    7    7   55  141   0.1750986884 ABAB
    7    7  142   27   0.1709480398 ABAB
    7    7   27  142   0.1709480398 ABAB
    7    7  142   37   0.1623872571 ABAB
    7    7   37  142   0.1623872571 ABAB
    5    5  141   44   0.1444027514 ABAB
    5    5   44  141   0.1444027514 ABAB
    7    7  141   63   0.1368722950 ABAB
    7    7   63  141   0.1368722950 ABAB
    7    7  141   44   0.1353266033 ABAB
    7    7   44  141   0.1353266033 ABAB
    7    7  141   53  -0.1340359438 ABAB
    7    7   53  141  -0.1340359438 ABAB
    7    6   27   90   0.1338474968 ABAB
    6    7   90   27   0.1338474968 ABAB
  norm of converged amps    2.48026597240600     
 Starting iterative solution of the perturbed Lambda equations.
 The DIIS procedure is used to accelerate convergence.
 Convergence criterion is 10**(-7).
 Maximum number of iterations is 100.
 Convergence information after     1 iterations: 
 Largest element of residual vector : -0.67844595E-01.
 Largest element of DIIS residual   : -0.67844595E-01.
 Convergence information after     2 iterations: 
 Largest element of residual vector :  0.73709146E-02.
 Largest element of DIIS residual   :  0.52272385E-02.
 Convergence information after     3 iterations: 
 Largest element of residual vector : -0.42086878E-02.
 Largest element of DIIS residual   : -0.36467798E-02.
 Convergence information after     4 iterations: 
 Largest element of residual vector : -0.25959043E-02.
 Largest element of DIIS residual   : -0.20418539E-02.
 Convergence information after     5 iterations: 
 Largest element of residual vector : -0.15005777E-02.
 Largest element of DIIS residual   : -0.68863156E-03.
 Convergence information after     6 iterations: 
 Largest element of residual vector : -0.48361208E-03.
 Largest element of DIIS residual   :  0.11391677E-03.
 Convergence information after     7 iterations: 
 Largest element of residual vector : -0.91062135E-04.
 Largest element of DIIS residual   : -0.43691628E-04.
 Convergence information after     8 iterations: 
 Largest element of residual vector : -0.18929054E-04.
 Largest element of DIIS residual   :  0.17939322E-04.
 Convergence information after     9 iterations: 
 Largest element of residual vector :  0.69897376E-05.
 Largest element of DIIS residual   :  0.38913125E-05.
 Convergence information after    10 iterations: 
 Largest element of residual vector :  0.37809085E-05.
 Largest element of DIIS residual   :  0.26208498E-05.
 Convergence information after    11 iterations: 
 Largest element of residual vector :  0.13939387E-05.
 Largest element of DIIS residual   :  0.64967724E-06.
 Convergence information after    12 iterations: 
 Largest element of residual vector :  0.63707887E-06.
 Largest element of DIIS residual   :  0.42750856E-06.
 Convergence information after    13 iterations: 
 Largest element of residual vector :  0.31426545E-06.
 Largest element of DIIS residual   :  0.25347909E-06.
 Convergence information after    14 iterations: 
 Largest element of residual vector :  0.19036329E-06.
 Largest element of DIIS residual   :  0.10021904E-06.
 Convergence information after    15 iterations: 
 Largest element of residual vector :  0.70267817E-07.
 Largest element of DIIS residual   :  0.31862061E-07.
 Perturbed Lambda equations converged in    15 iterations.
  Dominant contributions to perturbed wavefunction:
    7    7  141   27   0.1917136337 ABAB
    7    7   27  141   0.1917136337 ABAB
    7    7  141   37   0.1852760565 ABAB
    7    7   37  141   0.1852760565 ABAB
    7    7  141   55   0.1639368798 ABAB
    7    7   55  141   0.1639368798 ABAB
    7    7  142   27   0.1629499594 ABAB
    7    7   27  142   0.1629499594 ABAB
    7    7  142   37   0.1554315462 ABAB
    7    7   37  142   0.1554315462 ABAB
    5    5  141   44   0.1385707802 ABAB
    5    5   44  141   0.1385707802 ABAB
    7    7  141   63   0.1296102706 ABAB
    7    7   63  141   0.1296102706 ABAB
    7    7  141   53  -0.1263032326 ABAB
    7    7   53  141  -0.1263032326 ABAB
    7    7  141   44   0.1254364383 ABAB
    7    7   44  141   0.1254364383 ABAB
    7    6   27   90   0.1244744976 ABAB
    6    7   90   27   0.1244744976 ABAB
        The DBOC first-order density matrix is being calculated 
             (Symmetry block 3, perturbation   2)
 term   7.22410333720791     
 final tnorm  0.888817048792509     
  norm contr. I: |<0|L dT/dx|0>|^2   0.000000000000000E+000
  norm contr. II: <0|[nabla(1+L)e-T][nabla e^T]|0>   7.22410333720791     
  total norm contribution   7.22410333720791     
 oo  1.214629442373636E-002
 vv  -54.2439613522698     
 vo  3.795474565834184E-002
  Correlated perturbed 1-el contribution to DBOC  -54.1938603121878       cm**-1
  SUM_I |dc_I/dx|^2 contribution to DBOC   27.1966512385380       cm**-1
 
 
  The total diagonal Born-Oppenheimer correction (DBOC) is:      0.0040121684 a.u.
  The total diagonal Born-Oppenheimer correction (DBOC) is:        880.569181 cm-1
 
 Total CC energy including DBOC  -113.281802823292     
 First-order density matrix is being calculated  (Symmetry block 3, perturbation   2)
 Calculation of the contributions of <pq||rs> to dI(i,j)/dx required   3.6 seconds.
 Calculation of the contributions of <pq||rs> to dI(a,b)/dx required  16.7 seconds.
 Calculation of the contributions of <pq||rs> to dI(i,a)/dx required   9.5 seconds.
 First-order Z-vector equations are solved for 1 perturbation.
 Convergence reached after  18 iterations.
        U*G(pq,rs) contribution is being calculated
             (Symmetry block 3, perturbation   2)

 CCSD contribution to force constants 

        0.0000000000        0.0000000000        0.0000000000
        0.0000000000        0.0000000000        0.0000000000
        0.0000000000        0.0000000000        0.0000000000
        0.0000000000        0.0000000000        0.0000000000
        0.0000000000        0.0000000000        0.0000000000
        0.0000000000        0.0000000000        0.0000000000
        0.0000000000        0.0000000000        0.0000000000
        0.0000000000        0.0000000000        0.0000000000
        0.0000000000        0.0000000000        0.0000000000
        0.0000000000        0.0000000000        0.0000000000
        0.0000000000        0.0000000000        0.0000000000
        0.0000000000       -2.4388643216        2.4388643216

 CCSD contribution to dipole derivatives 

        0.0000000000        0.0000000000        0.0000000000
        0.0000000000        0.0000000000        0.0000000000
        0.0000000000        0.0000000000        0.0000000000
        0.0000000000        0.0000000000       -0.0439515819
        0.0000000000        0.0000000000        0.0000000000
        0.0000000000        0.0000000000        0.0000000000
 @CHECKOUT-I, Total execution time (CPU/WALL):     1070.42/     256.17 seconds.
--executable xsdcc finished with status     0 in      256.19 seconds (walltime).
 --invoking executable--
/nfs/workspaces/public/cfour_mpi/bin/xanti
 @GETMEM-I,  Allocated    3814 MB of main memory.
 CCSD MO derivative gammas will be sorted to Mulliken order.
 @CHECKOUT-I, Total execution time (CPU/WALL):        8.96/      12.42 seconds.
--executable xanti finished with status     0 in       12.46 seconds (walltime).
 --invoking executable--
/nfs/workspaces/public/cfour_mpi/bin/xbcktrn
 @GETMEM-I,  Allocated    3814 MB of main memory.
 CCSD MO derivative gammas will be transformed to the AO basis.
 @CHECKOUT-I, Total execution time (CPU/WALL):       24.12/       3.79 seconds.
--executable xbcktrn finished with status     0 in        3.80 seconds (walltime).
 --invoking executable--
/nfs/workspaces/public/cfour_mpi/bin/xvdint
 @GETMEM-I,  Allocated    3814 MB of main memory.
 One- and two-electron integral derivatives are calculated
 for RHF-CC/MBPT hessians and dipole derivatives.
 Spherical gaussians are used.
  magnet F F
                    8722  records have been written to the Sort file.
  Total length of Sort file :             178609116  words.
 Evaluation of 2el integral derivatives

                      Two-electron integral gradient
                      ------------------------------

                         C #1 z     0.0000000000
                         O #2 z     0.0000000000


 C #1       0.0000000000           -0.6950789510            0.0000000000
 O #2       0.0000000000            0.6950789510            0.0000000000


 Evaluation of 2e integral derivatives required  317.19 seconds.
  contribution to Hessian
        0.0000000000        0.0000000000        0.0000000000
        0.0000000000       -0.6950789510        0.6950789510
 @CHECKOUT-I, Total execution time (CPU/WALL):      317.18/      65.34 seconds.
--executable xvdint finished with status     0 in       65.38 seconds (walltime).
 --invoking executable--
/nfs/workspaces/public/cfour_mpi/bin/xanti
 @GETMEM-I,  Allocated    3814 MB of main memory.
 CCSD MO gammas will be sorted to Mulliken order.
 @CHECKOUT-I, Total execution time (CPU/WALL):       10.53/       9.14 seconds.
--executable xanti finished with status     0 in        9.17 seconds (walltime).
 --invoking executable--
/nfs/workspaces/public/cfour_mpi/bin/xbcktrn
 @GETMEM-I,  Allocated    3814 MB of main memory.
 CCSD MO gammas will be transformed to the AO basis.
 @CHECKOUT-I, Total execution time (CPU/WALL):       27.31/       4.41 seconds.
--executable xbcktrn finished with status     0 in        4.42 seconds (walltime).
 --invoking executable--
/nfs/workspaces/public/cfour_mpi/bin/xvdint
 @GETMEM-I,  Allocated    3814 MB of main memory.
 One- and two-electron integral derivatives are calculated
 for RHF-CC/MBPT hessians and dipole derivatives.
 Spherical gaussians are used.
  magnet F F

                     Kinetic energy integral gradient
                     --------------------------------

                         C #1 z    -1.5409772385
                         O #2 z     1.5409772385


 C #1       0.0000000000            0.0000000000           -1.5409772385
 O #2       0.0000000000            0.0000000000            1.5409772385



                   Nuclear attraction integral gradient
                   ------------------------------------

                         C #1 z    23.9860289668
                         O #2 z   -23.9860289668


 C #1       0.0000000000            0.0000000000           23.9860289668
 O #2       0.0000000000            0.0000000000          -23.9860289668



                      Reorthonormalization gradient
                      -----------------------------

                         C #1 z     0.0000000000
                         O #2 z     0.0000000000


 C #1       0.0000000000            0.0000000000            0.0000000000
 O #2       0.0000000000            0.0000000000            0.0000000000



                     Kinetic energy integral Hessian
                     -------------------------------


           Symmetry 1

           C #1 z      O #2 z

 C #1 z    1.087466
 O #2 z   -1.087466    1.087466


           Symmetry 2

           C #1 x      O #2 x

 C #1 x   -2.089035
 O #2 x    2.089035   -2.089035


           Symmetry 3

           C #1 y      O #2 y

 C #1 y   -2.089035
 O #2 y    2.089035   -2.089035




           C #1 x      C #1 y      C #1 z      O #2 x      O #2 y      O #2 z

 C #1 x   -2.089035
 C #1 y    0.000000   -2.089035
 C #1 z    0.000000    0.000000    1.087466

 O #2 x    2.089035    0.000000    0.000000   -2.089035
 O #2 y    0.000000    2.089035    0.000000    0.000000   -2.089035
 O #2 z    0.000000    0.000000   -1.087466    0.000000    0.000000    1.087466




                   Nuclear attraction integral Hessian
                   -----------------------------------


           Symmetry 1

           C #1 z      O #2 z

 C #1 z  -13.363987
 O #2 z   13.363987  -13.363987


           Symmetry 2

           C #1 x      O #2 x

 C #1 x   21.840427
 O #2 x  -21.840427   21.840427


           Symmetry 3

           C #1 y      O #2 y

 C #1 y   21.840427
 O #2 y  -21.840427   21.840427




           C #1 x      C #1 y      C #1 z      O #2 x      O #2 y      O #2 z

 C #1 x   21.840427
 C #1 y    0.000000   21.840427
 C #1 z    0.000000    0.000000  -13.363987

 O #2 x  -21.840427    0.000000    0.000000   21.840427
 O #2 y    0.000000  -21.840427    0.000000    0.000000   21.840427
 O #2 z    0.000000    0.000000   13.363987    0.000000    0.000000  -13.363987




                Highest order reorthonormalization Hessian
                ------------------------------------------


           Symmetry 1

           C #1 z      O #2 z

 C #1 z    0.000000
 O #2 z    0.000000    0.000000


           Symmetry 2

           C #1 x      O #2 x

 C #1 x    0.000000
 O #2 x    0.000000    0.000000


           Symmetry 3

           C #1 y      O #2 y

 C #1 y    0.000000
 O #2 y    0.000000    0.000000




           C #1 x      C #1 y      C #1 z      O #2 x      O #2 y      O #2 z




                Electronic contributions to dipole moment
                -----------------------------------------

                               au             Debye

                    z      0.51926202      1.31983263

  Conversion factor used: 1 a.u. =   2.54174691 Debye 



   Electronic contributions to static part of dipole moment derivatives
   --------------------------------------------------------------------


                     Total dipole moment derivatives
                     -------------------------------


           Symmetry 1
                              Ez

               C #1 z    -5.75780941
               O #2 z    -8.24219059

           Symmetry 2
                              Ex

               C #1 x    -5.80596163
               O #2 x    -8.19403837

           Symmetry 3
                              Ey

               C #1 y    -5.80596163
               O #2 y    -8.19403837



                       Ex          Ey          Ez

      C #1    x   -5.805962    0.000000    0.000000
      C #1    y    0.000000   -5.805962    0.000000
      C #1    z    0.000000    0.000000   -5.757809

      O #2    x   -8.194038    0.000000    0.000000
      O #2    y    0.000000   -8.194038    0.000000
      O #2    z    0.000000    0.000000   -8.242191

 Evaluation of 1e integral derivatives required    1.81 seconds.
                    8815  records have been written to the Sort file.
  Total length of Sort file :             180513570  words.
 Evaluation of 2el integral derivatives

                      Two-electron integral gradient
                      ------------------------------

                         C #1 z   -11.2597195099
                         O #2 z    11.2597195099


 C #1       0.0000000000            0.0000000000          -11.2597195099
 O #2       0.0000000000            0.0000000000           11.2597195099


 Evaluation of 2e integral derivatives required  735.68 seconds.

                            Molecular gradient
                            ------------------

                         C #1 z     0.4169789005
                         O #2 z    -0.4169789005


 C #1       0.0000000000            0.0000000000            0.4169789005
 O #2       0.0000000000            0.0000000000           -0.4169789005


  Molecular gradient norm 0.590E+00

                            Molecular hessian
                            -----------------


           Symmetry 1

           C #1 z      O #2 z

 C #1 z   67.935613
 O #2 z  -67.935613   67.935613


           Symmetry 2

           C #1 x      O #2 x

 C #1 x    3.194836
 O #2 x   -3.194836    3.194836


           Symmetry 3

           C #1 y      O #2 y

 C #1 y    3.194836
 O #2 y   -3.194836    3.194836




           C #1 x      C #1 y      C #1 z      O #2 x      O #2 y      O #2 z

 C #1 x    3.194836
 C #1 y    0.000000    3.194836
 C #1 z    0.000000    0.000000   67.935613

 O #2 x   -3.194836    0.000000    0.000000    3.194836
 O #2 y    0.000000   -3.194836    0.000000    0.000000    3.194836
 O #2 z    0.000000    0.000000  -67.935613    0.000000    0.000000   67.935613




                           Total dipole moment
                           -------------------

                               au             Debye

                    z     -0.06737054     -0.17123886

  Conversion factor used: 1 a.u. =   2.54174691 Debye 



                     Total dipole moment derivatives
                     -------------------------------


           Symmetry 1
                              Ez

               C #1 z     0.71073466
               O #2 z    -0.71073466

           Symmetry 2
                              Ex

               C #1 x    -0.03276879
               O #2 x     0.03276879

           Symmetry 3
                              Ey

               C #1 y    -0.03276879
               O #2 y     0.03276879



                       Ex          Ey          Ez

      C #1    x   -0.032769    0.000000    0.000000
      C #1    y    0.000000   -0.032769    0.000000
      C #1    z    0.000000    0.000000    0.710735

      O #2    x    0.032769    0.000000    0.000000
      O #2    y    0.000000    0.032769    0.000000
      O #2    z    0.000000    0.000000   -0.710735

 @CHECKOUT-I, Total execution time (CPU/WALL):      737.48/     124.94 seconds.
--executable xvdint finished with status     0 in      124.96 seconds (walltime).
 --invoking executable--
/nfs/workspaces/public/cfour_mpi/bin/xjoda
  @GTFLGS-I, Hessian will be transformed to curvilinear coordinates.
  @GTFLGS-I, Hessian will be transformed to curvilinear coordinates.
  igrd and ihes are                      0                     1
  gradient from JOBARC 
   0.000000000000000   0.000000000000000   0.416978900546334
   0.000000000000000   0.000000000000000  -0.416978900546334
 
  @PROJFCM-I, Projecting force constant matrix onto totally symmetric subspace.
  Largest difference between matrix elements of symmetrized
  and unsymmetrized FCM :    -0.3578382035E-10.
  read isotopes from ZMAT file 
 
  Summary of diagonal Born-Oppenheimer correction at the correlated level
  The total diagonal Born-Oppenheimer correction (DBOC) is:      0.0040121684 a.u.
  The total diagonal Born-Oppenheimer correction (DBOC) is:        880.569181 cm-1
  The total diagonal Born-Oppenheimer correction (DBOC) is:            10.534 kJ/mole
  hellooooooo 
  readis is  F
 
 @CHECKOUT-I, Total execution time (CPU/WALL):        0.01/       0.06 seconds.
--executable xjoda finished with status     0 in        0.08 seconds (walltime).
  The final electronic energy is      -113.281802823291997 a.u. 
  This computation required                         2760.61 seconds (walltime).
