 --invoking executable--
/nfs/workspaces/public/cfour_mpi/bin/xjoda


   *************************************************************************
         <<<     CCCCCC     CCCCCC   |||     CCCCCC     CCCCCC   >>>
       <<<      CCC        CCC       |||    CCC        CCC         >>>
      <<<      CCC        CCC        |||   CCC        CCC            >>>
    <<<        CCC        CCC        |||   CCC        CCC              >>>
      <<<      CCC        CCC        |||   CCC        CCC            >>>
       <<<      CCC        CCC       |||    CCC        CCC         >>>
         <<<     CCCCCC     CCCCCC   |||     CCCCCC     CCCCCC   >>>
   *************************************************************************

     ****************************************************************
     * CFOUR Coupled-Cluster techniques for Computational Chemistry *
     ****************************************************************
 

   Department of Chemistry                Institut fuer Physikalische Chemie
   University of Florida                  Universitaet Mainz
   Gainesville, FL 32611, USA             D-55099 Mainz, Germany

   Department of Chemistry                Fakultaet fuer Chemie und Biowiss.
   Johns Hopkins University               Karlsruher Institut fuer Technologie
   Baltimore, MD 21218, USA               D-76131 Karlsruhe, Germany

   Department of Chemistry                Department of Physical Chemistry
   Southern Methodist University          Eotvos Lorand University
   Dallas, TX 75275, USA                  H-1053 Budapest, Hungary

 
                       Version 2.1
 
                     vincent.theory.phys.ucl.ac.uk                     
                     Wed 26 Feb 11:42:19 GMT 2025                      
                     integer*8 version is running
 
********************************************************************************
*                          Input from ZMAT file                                *
********************************************************************************
Carbon Monoxide DBOC calculation                                                
C                                                                               
O 1 r                                                                           
                                                                                
r=0.9                                                                           
                                                                                
                                                                                
*CFOUR(CALC=CCSD,BASIS=AUG-PCVQZ,SCF_CONV=10                                    
CC_CONV=14,DBOC=ON,MEMORY=500000000                                             
ZFIELD=200)                                                                     
                                                                                
%isotopes                                                                       
13                                                                              
16                                                                              
********************************************************************************
  @GTFLGS-I, Hessian will be transformed to curvilinear coordinates.
    -------------------------------------------------------------------
                    CFOUR Control Parameters 
    -------------------------------------------------------------------
        External           Internal           Value            Units
          Name               Name
    -------------------------------------------------------------------
       ABCDTYPE             IABCDT         STANDARD    [  0]    ***   
       ANHARMONIC           IANHAR         OFF         [  0]    ***   
       ANH_ALGORIT          IANALG         STANDARD    [  0]    ***   
       ANH_DERIVAT          IANDER         SECOND      [  1]    ***   
       ANH_MODE             ANHMOD         VIBRATION   [  0]    ***   
       ANH_STEPSIZ          ICUBST             50000          x 10-6  
       ANH_SYMMETR          IANHSM         ABELIAN     [  0]    ***   
       AO_LADDERS           IAOLAD         SINGLEPASS  [  1]    ***   
       AV_SCF               IAVSCF         OFF         [  0]    ***   
       BASIS                IBASIS         AUG-PCVQZ   [ 52]    ***   
       BOTHVECTORS          BOTHVC         OFF         [  0]    ***   
       BOX_POTENT           IPIAB          OFF         [  0]    ***   
       BREIT                IBREIT         OFF         [  0]    ***   
       BRUCK_CONV           IBRTOL          10D-  4             ***   
       BRUECKNER            IBRKNR         OFF         [  0]    ***   
       BUFFERSIZE           IBUFFS              4096            ***   
       CACHE_RECS           ICHREC             10               ***   
       CALCLEVEL            ICLLVL         CCSD        [ 10]    ***   
       CCORBOPT             ICCORB         OFF         [  0]  x 0.01  
       CC_CONV              ICCCNV          10D- 14             ***   
       CC_EXPORDER          ICCEOR              5               ***   
       CC_EXTRAPOL          ICCEXT         DIIS        [  1]    ***   
       CC_GUESS             ICCGES         MP2         [  0]    ***   
       CC_MAXCYC            ICCCYC            100              cycles 
       CC_PROGRAM           ICCPRO         VCC         [  0]    ***   
       CHARGE               ICHRGE              0               ***   
       CHOLESKY             ICHOLE         OFF         [  0]    ***   
       CIS_CONV             ICISTL              5               ***   
       COMM_SIZE            IPSIZE            ***               ***   
       CONSTANT             ICONST         OLD         [  1]    ***   
       CONTINUUM            ICONTU         NONE        [  0]    ***   
       CONTRACTION          ICNTYP         GENERAL     [  1]    ***   
       COORDINATES          ICOORD         INTERNAL    [  0]    ***   
       CPHF_CONVER          ICPHFT          10D- 16             ***   
       CPHF_MAXCYC          ICPHFC             64              cycles 
       CUBIC                ICUBIC         OFF         [  0]    ***   
       CURVILINEAR          ICURVY         ON          [  1]    ***   
       DBOC                 IDBOC          ON          [  1]    ***   
       DCT                  IDCT           OFF         [  0]    ***   
       DERIV_LEV            IDRLVL         SECOND      [  2]    ***   
       DEVMEM_SIZE          IDVMEM          50000000           MByte  
       DIAG_MRCC            IEOMST          10D-  0             ***   
       DIFF_TYPE            IDIFTY         RELAXED     [  0]    ***   
       DIRECT               IDIRCT         OFF         [  0]    ***   
       DROPMO               IDRPMO      NONE         
       ECP                  IECP           OFF         [  0]    ***   
       EIGENVECTOR          IVEC                1               ***   
       EL_ANHARM            IELANH         OFF         [  0]    ***   
       EOMFOLLOW            IEOMSR         ENERGY      [  0]    ***   
       EOMIP                IEOMIP         OFF         [  0]    ***   
       EOMLEVEL             HBARFM         SAME        [  0]    ***   
       EOM_MRCC             IMRCCE         NEW         [  1]    ***   
       EOM_NONIT            EOMNON         OFF         [  0]    ***   
       EOM_NSING            IEOMSI          10D-  0             ***   
       EOM_NSTATES          IMRCCD         DAVIDSON    [  0]    ***   
       EOM_NTRIP            IEOMTR          10D-  0             ***   
       EOM_ORDER            IEXORD         ENERGY      [  0]    ***   
       EOM_PROPSTA          IEOMST              0               ***   
       ESTATE_CONV          IEXTOL          10D-  5             ***   
       ESTATE_DIAG          IEXDIG         ITERATIVE   [  0]    ***   
       ESTATE_LOCK          IESLOC         ON          [  1]    ***   
       ESTATE_MAXC          IEXMXC             40               ***   
       ESTATE_PROP          IEXPRP         OFF         [  0]    ***   
       EVAL_HESS            IRECAL              0            # of cyc.
       EXCITATION           IEXCIT              0               ***   
       EXCITE               IEXCIT         NONE        [  0]    ***   
       EXTERN_POT           IEXPOT         OFF         [  0]    ***   
       FCGRADNEW            IFCGNW         OFF         [  0]    ***   
       FC_FIELD             IFINFC              0             x 10-6  
       FD_CALTYPE           IFDCAL         GRADONLY    [  0]    ***   
       FD_PROJECT           IFDPRJ         OFF         [  1]    ***   
       FD_STEPSIZE          IDISFD              0            10-4 bohr
       FD_USEGROUP          IFDGRP         FULL        [  0]    ***   
       FILE_RECSIZ          IFLREC              4096           words  
       FINITE_PERT          IFIPER              0             x 10-6  
       FIXGEOM              IFIXGM         OFF         [  0]    ***   
       FOCK                 IFOCK          AO          [  1]    ***   
       FREQ_ALGORI          IVIALG         STANDARD    [  0]    ***   
       FROZEN_CORE          IFROCO         OFF         [  0]    ***   
       GAMMA_ABCD           IGABCD         STORE       [  0]    ***   
       GAMMA_ABCI           IGABCI         STORE       [  0]    ***   
       GENBAS_1             IGNBS1              0               ***   
       GENBAS_2             IGNBS2              0               ***   
       GENBAS_3             IGNBS3              0               ***   
       GENBAS_4             IGNBS4              0               ***   
       GEO_CONV             ICONTL              5              H/bohr 
       GEO_MAXCYC           IOPTCY             50               ***   
       GEO_MAXSTEP          IMXSTP            300            millibohr
       GEO_METHOD           INR            SINGLE_POINT[  5]    ***   
       GIAO                 IGIAO          OFF         [  1]    ***   
       GIMIC                IGIMIC         OFF         [  0]    ***   
       GRID                 IGRID          OFF         [  0]    ***   
       GRID_ALGO            IGALGO         SERIAL      [  0]    ***   
       GUESS                IGUESS         MOREAD      [  0]    ***   
       HBAR                 IHBAR          OFF         [  0]    ***   
       HESS_TYPE            IHESTP         SCF         [  0]    ***   
       HF2_FILE             IHF2Fl         USE         [  1]    ***   
       HFSTABILITY          ISTABL         OFF         [  0]    ***   
       INCORE               INCORE         OFF         [  0]    ***   
       INPUT_MRCC           IMRCC          ON          [  1]    ***   
       INTEGRALS            INTTYP         VMOL        [  1]    ***   
       JODA_PRINT           IJPRNT              0               ***   
       KEYWORD_OUT          IDMPKW         NO          [  0]    ***   
       LINDEP_TOL           ILINDP              8               ***   
       LINEQ_CONV           IZTACN          10D-  7           cycles  
       LINEQ_EXPOR          ILMAXD              5               ***   
       LINEQ_MAXCY          ILMAXC            100               ***   
       LINEQ_TYPE           ILTYPE         DIIS        [  1]    ***   
       LOCK_ORBOCC          ILOCOC         OFF         [  0]    ***   
       MEMORY_SIZE          IMEMSZ         500000000           words  
       MEM_UNIT             IMEMU          INTEGERWORDS[  0]    ***   
       MRCC                 IMRCCC         OFF         [  0]    ***   
       MULTIPLICTY          IMULTP              1               ***   
       NACOUPLING           IVCOUP         OFF         [  0]    ***   
       NEGEVAL              IDIE           ABORT       [  0]    ***   
       NEWNORM              INEWNO         OFF         [  0]    ***   
       NON-HF               INONHF         OFF         [  0]    ***   
       NTOP_TAMP            ITOPT2             15               ***   
       NUC_MODEL            INUCMO         POINT       [  0]    ***   
       OCCUPATION           IOCCU   ESTIMATED BY SCF 
       OPEN-SHELL           IOPEN          SPIN-ORBITAL[  0]    ***   
       OPTVIB               IOPTVB         OFF         [  0]    ***   
       ORBITALS             IORBTP         STANDARD    [  0]    ***   
       PARALLEL             IPARAL         ON          [  1]    ***   
       PARA_INT             IPINTS         ON          [  1]    ***   
       PARA_PRINT           IPPRIN              0               ***   
       PERT_ORB             IPTORB         STANDARD    [  0]    ***   
       POINTS               IGRDFD              0               ***   
       PRINT                IPRNT               0               ***   
       PROPS                IPROPS         OFF         [  0]    ***   
       PROP_INTEGR          IINTYP         INTERNAL    [  0]    ***   
       PSI                  IPSI           OFF         [  0]    ***   
       QC_ALG               IQCALG         FLM         [  0]    ***   
       QC_LINALG            IQCLIN         TRIDIAG     [  2]    ***   
       QC_MAXCYC            IQCMAX          10D-100           cycles  
       QC_MAXSCFCY          IQCMSC          10D- 15           cycles  
       QC_RTRUST            IQCRTR          10D-  0           x 10-3  
       QC_SKIPSCF           IQCSKI         OFF         [  0]    ***   
       QC_START             IQCSTA          10D-  1             ***   
       QRHFGUESS            IQGUES         OFF         [  0]    ***   
       QUARTIC              IQUART         OFF         [  0]    ***   
       RAMAN_INT            IRAMIN         OFF         [  0]    ***   
       RAMAN_ORB            IRAMRE         UNRELAXED   [  0]    ***   
       RDO                  IRDOFM         ON          [  1]    ***   
       REDUCE_REPR          REDREP         Ir          [  0]    ***   
       REFERENCE            IREFNC         RHF         [  0]    ***   
       RELATIVIST           IRELAT         OFF         [  0]    ***   
       RELAX_DENS           IRDENS         ON          [  1]    ***   
       RESET_FLAGS          IRESET         OFF         [  0]    ***   
       RESTART_CC           ICCRES         OFF         [  0]    ***   
       ROT_EVEC             ROTVEC              0               ***   
       SAVE_INTS            ISVINT         OFF         [  0]    ***   
       SCALE_ON             ISTCRT              0               ***   
       SCF_CONV             ISCFCV          10D- 10             ***   
       SCF_DAMPING          IDAMP               0             x 10-3  
       SCF_EXPORDE          IRPPOR              6               ***   
       SCF_EXPSTAR          IRPPLS              8               ***   
       SCF_EXTRAPO          IRPP           ON          [  1]    ***   
       SCF_MAXCYC           ISCFCY            150              cycles 
       SCF_NOSTOP           ISCFST         OFF         [  0]    ***   
       SCF_PRINT            ISCFPR              0               ***   
       SCF_PROG             ISCFPR         SCF         [  0]    ***   
       SD_FIELD             IFINSD              0             x 10-6  
       SOPERT               IPERSO         OFF         [  0]    ***   
       SPHERICAL            IDFGHI         ON          [  1]    ***   
       SPINORBIT            ISOCAL         OFF         [  0]    ***   
       SPINROTATIO          ISRCON         OFF         [  0]    ***   
       SPIN_FLIP            ISPFLP         OFF         [  0]    ***   
       SPIN_ORBIT           ISPORB         OFF         [  0]    ***   
       SPIN_SCAL            ISCSMP         OFF         [  0]    ***   
       STEEPSCALE           ISTPSC              1000          x 10-3  
       SUBGROUP             ISUBGP         DEFAULT     [  0]    ***   
       SUBGRPAXIS           ISBXYZ         X           [  0]    ***   
       SYMMETRY             ISYM           ON          [  0]    ***   
       SYM_CHECK            ISYMCK         OVERRIDE    [  1]    ***   
       T3_EXTRAPOL          IT3EXT         OFF         [  0]    ***   
       T4_EXTRAPOL          IT4EXP         OFF         [  0]    ***   
       TAMP_SUM             IEVERY              5               ***   
       TESTSUITE            ITESTS         OFF         [  0]    ***   
       THERMOCH             ITHERM         OFF         [  0]    ***   
       TOL_CHOLESK          ITOLCH          10D-  4             ***   
       TRANGRAD             IRESRM         OFF         [  0]    ***   
       TRANS_INV            ITRAIN         IGNORE      [  1]    ***   
       TREAT_PERT           ITREAT         SIMULTANEOUS[  0]    ***   
       TRIP_ALGORI          ITRALG         NORMAL      [  0]    ***   
       UIJ_THRESHO          IUIJTH              1               ***   
       UNITS                IUNITS         ANGSTROM    [  0]    ***   
       UNOS                 IUNOS          OFF         [  0]    ***   
       UPDATE_HESS          IHUPDT         ON          [  1]    ***   
       VIBPHASE             ISETPH         STANDARD    [  0]    ***   
       VIBRATION            IVIB           ANALYTIC    [  1]    ***   
       VIB_ALGORIT          IGEALG         STANDARD    [  0]    ***   
       VNATORB              IVNORB         OFF         [  0]    ***   
       VTRAN                IVTRAN         FULL/PARTIAL[  0]    ***   
       XFIELD               IXEFLD              0             x 10-6  
       XFORM_TOL            IXFTOL          10D- 11             ***   
       YFIELD               IYEFLD              0             x 10-6  
       ZFIELD               IZEFLD            200             x 10-6  
       ZSCALE_EXP           IZEXPS         OFF         [  0]    ***   
    -------------------------------------------------------------------
   2 entries found in Z-matrix 
   Job Title : Carbon Monoxide DBOC calculation                                                
   There are  1 unique internal coordinates.
   Of these,  0 will be optimized.
   User supplied Z-matrix: 
--------------------------------------------------------------------------------
       SYMBOL    BOND      LENGTH    ANGLE     ANGLE     DIHED     ANGLE
                  TO      (ANGST)    WRT      (DEG)      WRT      (DEG)
--------------------------------------------------------------------------------
        C    
        O          1         r    
                  *Initial values for internal coordinates* 
                      Name             Value
                        r               0.9000000000
--------------------------------------------------------------------------------
  read isotopes from ZMAT file 
   Rotational constants (in cm-1): 
          2.9016583601             2.9016583601
   Rotational constants (in MHz): 
      86989.5413907692         86989.5413907692
********************************************************************************
   The full molecular point group is CXv .
   The largest Abelian subgroup of the full molecular point group is C2v .
   The computational point group is C2v .
********************************************************************************
--------------------------------------------------------------------------------
   Analysis of internal coordinates specified by Z-matrix 
--------------------------------------------------------------------------------
   *The nuclear repulsion energy is   28.222778666666663 a.u.
   *There is   1 degree of freedom within the tot. symm. molecular subspace.
   *Z-matrix requests optimization of   0 coordinates.
   *The optimization is constrained.
   *The following   1 parameters can have non-zero 
    derivatives within the totally symmetric subspace:
             r    [ 1]
   *The following   0 parameters are to be optimized:

   *The following coordinates must be varied in an  unconstrained optimization.
             r    [ 1]
--------------------------------------------------------------------------------


 ----------------------------------------------------------------
         Coordinates used in calculation (QCOMP) 
 ----------------------------------------------------------------
 Z-matrix   Atomic            Coordinates (in bohr)
  Symbol    Number           X              Y              Z
 ----------------------------------------------------------------
     C         6        -0.00000000     0.00000000     0.93810470
     O         8         0.00000000     0.00000000    -0.76264917
 ----------------------------------------------------------------
 
   Interatomic distance matrix (Angstroms) 
 
                 C             O    
                [ 1]        [ 2]
  C    [ 1]     0.00000
  O    [ 2]     0.90000     0.00000
 rotcon2
   Rotational constants (in cm-1): 
          2.9016583601             0.0000000000
   Rotational constants (in MHz): 
      86989.5413907692             0.0000000000
  ECPDATA file not present.   Using default ECPDATA. 
  @GTFLGS-I, Hessian will be transformed to curvilinear coordinates.
  There are  218 basis functions.
 @CHECKOUT-I, Total execution time (CPU/WALL):        0.12/       0.19 seconds.
--executable xjoda finished with status     0 in        0.20 seconds (walltime).
 --invoking executable--
/nfs/workspaces/public/cfour_mpi/bin/xvmol
 SERIAL VERSION OF MOLECULE STARTED
********************************************************************************
                    INPUT FROM MOL FILE
********************************************************************************
INTGRL        1    0    1    0    0    0    0    0    0                         
         *** CFOUR Program System (Release V0.1) ***                            
Carbon Monoxide DBOC calculation                                                
    2    2 X  Y       0.10E-08              0    0                              
   9999.00      3.00                                                            
          6.00000000    1    5    1    1    1    1    1                         
C #1  -0.000000000000000   0.000000000000000   0.938104702288875                
   16    9                                                                      
   33980.0000000000       9.100000000000000E-005 -1.900000000000000E-005        
  0.000000000000000E+000  0.000000000000000E+000  0.000000000000000E+000        
  0.000000000000000E+000  0.000000000000000E+000  0.000000000000000E+000        
  0.000000000000000E+000                                                        
   5089.00000000000       7.040000000000000E-004 -1.510000000000000E-004        
  0.000000000000000E+000  0.000000000000000E+000  0.000000000000000E+000        
  0.000000000000000E+000  0.000000000000000E+000  0.000000000000000E+000        
  0.000000000000000E+000                                                        
   1157.00000000000       3.693000000000000E-003 -7.850000000000000E-004        
  0.000000000000000E+000  0.000000000000000E+000  0.000000000000000E+000        
  0.000000000000000E+000  0.000000000000000E+000  0.000000000000000E+000        
  0.000000000000000E+000                                                        
   326.600000000000       1.536000000000000E-002 -3.324000000000000E-003        
  0.000000000000000E+000  0.000000000000000E+000  0.000000000000000E+000        
  0.000000000000000E+000  0.000000000000000E+000  0.000000000000000E+000        
  0.000000000000000E+000                                                        
   106.100000000000       5.292900000000000E-002 -1.151200000000000E-002        
  0.000000000000000E+000  0.000000000000000E+000  0.000000000000000E+000        
  0.000000000000000E+000  0.000000000000000E+000  0.000000000000000E+000        
  0.000000000000000E+000                                                        
   38.1100000000000       0.147043000000000      -3.416000000000000E-002        
  0.000000000000000E+000  0.000000000000000E+000  0.000000000000000E+000        
  0.000000000000000E+000  0.000000000000000E+000  0.000000000000000E+000        
  0.000000000000000E+000                                                        
   14.7500000000000       0.305631000000000      -7.717300000000001E-002        
  0.000000000000000E+000  0.000000000000000E+000  0.000000000000000E+000        
  0.000000000000000E+000  0.000000000000000E+000  0.000000000000000E+000        
  0.000000000000000E+000                                                        
   6.03500000000000       0.399345000000000      -0.141493000000000             
  0.000000000000000E+000  0.000000000000000E+000  0.000000000000000E+000        
  0.000000000000000E+000  0.000000000000000E+000  0.000000000000000E+000        
  0.000000000000000E+000                                                        
   2.53000000000000       0.217051000000000      -0.118019000000000             
  0.000000000000000E+000  0.000000000000000E+000  0.000000000000000E+000        
  0.000000000000000E+000  0.000000000000000E+000  0.000000000000000E+000        
  0.000000000000000E+000                                                        
  0.735500000000000       1.589400000000000E-002  0.273806000000000             
   1.00000000000000       0.000000000000000E+000  0.000000000000000E+000        
  0.000000000000000E+000  0.000000000000000E+000  0.000000000000000E+000        
  0.000000000000000E+000                                                        
  0.290500000000000      -3.084000000000000E-003  0.586510000000000             
  0.000000000000000E+000   1.00000000000000       0.000000000000000E+000        
  0.000000000000000E+000  0.000000000000000E+000  0.000000000000000E+000        
  0.000000000000000E+000                                                        
  0.111100000000000       9.779999999999999E-004  0.285430000000000             
  0.000000000000000E+000  0.000000000000000E+000   1.00000000000000             
  0.000000000000000E+000  0.000000000000000E+000  0.000000000000000E+000        
  0.000000000000000E+000                                                        
   7.21600000000000       0.000000000000000E+000  0.000000000000000E+000        
  0.000000000000000E+000  0.000000000000000E+000  0.000000000000000E+000        
   1.00000000000000       0.000000000000000E+000  0.000000000000000E+000        
  0.000000000000000E+000                                                        
   19.5700000000000       0.000000000000000E+000  0.000000000000000E+000        
  0.000000000000000E+000  0.000000000000000E+000  0.000000000000000E+000        
  0.000000000000000E+000   1.00000000000000       0.000000000000000E+000        
  0.000000000000000E+000                                                        
   53.0730000000000       0.000000000000000E+000  0.000000000000000E+000        
  0.000000000000000E+000  0.000000000000000E+000  0.000000000000000E+000        
  0.000000000000000E+000  0.000000000000000E+000   1.00000000000000             
  0.000000000000000E+000                                                        
  4.145000000000000E-002  0.000000000000000E+000  0.000000000000000E+000        
  0.000000000000000E+000  0.000000000000000E+000  0.000000000000000E+000        
  0.000000000000000E+000  0.000000000000000E+000  0.000000000000000E+000        
   1.00000000000000                                                             
   10    8                                                                      
   34.5100000000000       5.378000000000000E-003  0.000000000000000E+000        
  0.000000000000000E+000  0.000000000000000E+000  0.000000000000000E+000        
  0.000000000000000E+000  0.000000000000000E+000  0.000000000000000E+000        
   7.91500000000000       3.613200000000000E-002  0.000000000000000E+000        
  0.000000000000000E+000  0.000000000000000E+000  0.000000000000000E+000        
  0.000000000000000E+000  0.000000000000000E+000  0.000000000000000E+000        
   2.36800000000000       0.142493000000000       0.000000000000000E+000        
  0.000000000000000E+000  0.000000000000000E+000  0.000000000000000E+000        
  0.000000000000000E+000  0.000000000000000E+000  0.000000000000000E+000        
  0.813200000000000       0.342150000000000        1.00000000000000             
  0.000000000000000E+000  0.000000000000000E+000  0.000000000000000E+000        
  0.000000000000000E+000  0.000000000000000E+000  0.000000000000000E+000        
  0.289000000000000       0.463864000000000       0.000000000000000E+000        
   1.00000000000000       0.000000000000000E+000  0.000000000000000E+000        
  0.000000000000000E+000  0.000000000000000E+000  0.000000000000000E+000        
  0.100700000000000       0.250028000000000       0.000000000000000E+000        
  0.000000000000000E+000   1.00000000000000       0.000000000000000E+000        
  0.000000000000000E+000  0.000000000000000E+000  0.000000000000000E+000        
   8.18200000000000       0.000000000000000E+000  0.000000000000000E+000        
  0.000000000000000E+000  0.000000000000000E+000   1.00000000000000             
  0.000000000000000E+000  0.000000000000000E+000  0.000000000000000E+000        
   24.1860000000000       0.000000000000000E+000  0.000000000000000E+000        
  0.000000000000000E+000  0.000000000000000E+000  0.000000000000000E+000        
   1.00000000000000       0.000000000000000E+000  0.000000000000000E+000        
   71.4940000000000       0.000000000000000E+000  0.000000000000000E+000        
  0.000000000000000E+000  0.000000000000000E+000  0.000000000000000E+000        
  0.000000000000000E+000   1.00000000000000       0.000000000000000E+000        
  3.218000000000000E-002  0.000000000000000E+000  0.000000000000000E+000        
  0.000000000000000E+000  0.000000000000000E+000  0.000000000000000E+000        
  0.000000000000000E+000  0.000000000000000E+000   1.00000000000000             
    6    6                                                                      
   1.84800000000000        1.00000000000000       0.000000000000000E+000        
  0.000000000000000E+000  0.000000000000000E+000  0.000000000000000E+000        
  0.000000000000000E+000                                                        
  0.649000000000000       0.000000000000000E+000   1.00000000000000             
  0.000000000000000E+000  0.000000000000000E+000  0.000000000000000E+000        
  0.000000000000000E+000                                                        
  0.228000000000000       0.000000000000000E+000  0.000000000000000E+000        
   1.00000000000000       0.000000000000000E+000  0.000000000000000E+000        
  0.000000000000000E+000                                                        
   8.65600000000000       0.000000000000000E+000  0.000000000000000E+000        
  0.000000000000000E+000   1.00000000000000       0.000000000000000E+000        
  0.000000000000000E+000                                                        
   33.2130000000000       0.000000000000000E+000  0.000000000000000E+000        
  0.000000000000000E+000  0.000000000000000E+000   1.00000000000000             
  0.000000000000000E+000                                                        
  7.660000000000000E-002  0.000000000000000E+000  0.000000000000000E+000        
  0.000000000000000E+000  0.000000000000000E+000  0.000000000000000E+000        
   1.00000000000000                                                             
    4    4                                                                      
   1.41900000000000        1.00000000000000       0.000000000000000E+000        
  0.000000000000000E+000  0.000000000000000E+000                                
  0.485000000000000       0.000000000000000E+000   1.00000000000000             
  0.000000000000000E+000  0.000000000000000E+000                                
   24.6940000000000       0.000000000000000E+000  0.000000000000000E+000        
   1.00000000000000       0.000000000000000E+000                                
  0.187000000000000       0.000000000000000E+000  0.000000000000000E+000        
  0.000000000000000E+000   1.00000000000000                                     
    2    2                                                                      
   1.01100000000000        1.00000000000000       0.000000000000000E+000        
  0.424000000000000       0.000000000000000E+000   1.00000000000000             
          8.00000000    1    5    1    1    1    1    1                         
O #2   0.000000000000000   0.000000000000000  -0.762649166312015                
   16    9                                                                      
   61420.0000000000       9.000000000000001E-005 -2.000000000000000E-005        
  0.000000000000000E+000  0.000000000000000E+000  0.000000000000000E+000        
  0.000000000000000E+000  0.000000000000000E+000  0.000000000000000E+000        
  0.000000000000000E+000                                                        
   9199.00000000000       6.980000000000001E-004 -1.590000000000000E-004        
  0.000000000000000E+000  0.000000000000000E+000  0.000000000000000E+000        
  0.000000000000000E+000  0.000000000000000E+000  0.000000000000000E+000        
  0.000000000000000E+000                                                        
   2091.00000000000       3.664000000000000E-003 -8.290000000000000E-004        
  0.000000000000000E+000  0.000000000000000E+000  0.000000000000000E+000        
  0.000000000000000E+000  0.000000000000000E+000  0.000000000000000E+000        
  0.000000000000000E+000                                                        
   590.900000000000       1.521800000000000E-002 -3.508000000000000E-003        
  0.000000000000000E+000  0.000000000000000E+000  0.000000000000000E+000        
  0.000000000000000E+000  0.000000000000000E+000  0.000000000000000E+000        
  0.000000000000000E+000                                                        
   192.300000000000       5.242300000000000E-002 -1.215600000000000E-002        
  0.000000000000000E+000  0.000000000000000E+000  0.000000000000000E+000        
  0.000000000000000E+000  0.000000000000000E+000  0.000000000000000E+000        
  0.000000000000000E+000                                                        
   69.3200000000000       0.145921000000000      -3.626100000000000E-002        
  0.000000000000000E+000  0.000000000000000E+000  0.000000000000000E+000        
  0.000000000000000E+000  0.000000000000000E+000  0.000000000000000E+000        
  0.000000000000000E+000                                                        
   26.9700000000000       0.305258000000000      -8.299200000000000E-002        
  0.000000000000000E+000  0.000000000000000E+000  0.000000000000000E+000        
  0.000000000000000E+000  0.000000000000000E+000  0.000000000000000E+000        
  0.000000000000000E+000                                                        
   11.1000000000000       0.398508000000000      -0.152090000000000             
  0.000000000000000E+000  0.000000000000000E+000  0.000000000000000E+000        
  0.000000000000000E+000  0.000000000000000E+000  0.000000000000000E+000        
  0.000000000000000E+000                                                        
   4.68200000000000       0.216980000000000      -0.115331000000000             
  0.000000000000000E+000  0.000000000000000E+000  0.000000000000000E+000        
  0.000000000000000E+000  0.000000000000000E+000  0.000000000000000E+000        
  0.000000000000000E+000                                                        
   1.42800000000000       1.759400000000000E-002  0.288979000000000             
   1.00000000000000       0.000000000000000E+000  0.000000000000000E+000        
  0.000000000000000E+000  0.000000000000000E+000  0.000000000000000E+000        
  0.000000000000000E+000                                                        
  0.554700000000000      -2.502000000000000E-003  0.586128000000000             
  0.000000000000000E+000   1.00000000000000       0.000000000000000E+000        
  0.000000000000000E+000  0.000000000000000E+000  0.000000000000000E+000        
  0.000000000000000E+000                                                        
  0.206700000000000       9.540000000000000E-004  0.277624000000000             
  0.000000000000000E+000  0.000000000000000E+000   1.00000000000000             
  0.000000000000000E+000  0.000000000000000E+000  0.000000000000000E+000        
  0.000000000000000E+000                                                        
   12.9740000000000       0.000000000000000E+000  0.000000000000000E+000        
  0.000000000000000E+000  0.000000000000000E+000  0.000000000000000E+000        
   1.00000000000000       0.000000000000000E+000  0.000000000000000E+000        
  0.000000000000000E+000                                                        
   34.9000000000000       0.000000000000000E+000  0.000000000000000E+000        
  0.000000000000000E+000  0.000000000000000E+000  0.000000000000000E+000        
  0.000000000000000E+000   1.00000000000000       0.000000000000000E+000        
  0.000000000000000E+000                                                        
   93.8810000000000       0.000000000000000E+000  0.000000000000000E+000        
  0.000000000000000E+000  0.000000000000000E+000  0.000000000000000E+000        
  0.000000000000000E+000  0.000000000000000E+000   1.00000000000000             
  0.000000000000000E+000                                                        
  6.959000000000000E-002  0.000000000000000E+000  0.000000000000000E+000        
  0.000000000000000E+000  0.000000000000000E+000  0.000000000000000E+000        
  0.000000000000000E+000  0.000000000000000E+000  0.000000000000000E+000        
   1.00000000000000                                                             
   10    8                                                                      
   63.4200000000000       6.044000000000000E-003  0.000000000000000E+000        
  0.000000000000000E+000  0.000000000000000E+000  0.000000000000000E+000        
  0.000000000000000E+000  0.000000000000000E+000  0.000000000000000E+000        
   14.6600000000000       4.179900000000000E-002  0.000000000000000E+000        
  0.000000000000000E+000  0.000000000000000E+000  0.000000000000000E+000        
  0.000000000000000E+000  0.000000000000000E+000  0.000000000000000E+000        
   4.45900000000000       0.161143000000000       0.000000000000000E+000        
  0.000000000000000E+000  0.000000000000000E+000  0.000000000000000E+000        
  0.000000000000000E+000  0.000000000000000E+000  0.000000000000000E+000        
   1.53100000000000       0.356731000000000        1.00000000000000             
  0.000000000000000E+000  0.000000000000000E+000  0.000000000000000E+000        
  0.000000000000000E+000  0.000000000000000E+000  0.000000000000000E+000        
  0.530200000000000       0.448309000000000       0.000000000000000E+000        
   1.00000000000000       0.000000000000000E+000  0.000000000000000E+000        
  0.000000000000000E+000  0.000000000000000E+000  0.000000000000000E+000        
  0.175000000000000       0.244940000000000       0.000000000000000E+000        
  0.000000000000000E+000   1.00000000000000       0.000000000000000E+000        
  0.000000000000000E+000  0.000000000000000E+000  0.000000000000000E+000        
   14.4750000000000       0.000000000000000E+000  0.000000000000000E+000        
  0.000000000000000E+000  0.000000000000000E+000   1.00000000000000             
  0.000000000000000E+000  0.000000000000000E+000  0.000000000000000E+000        
   42.7300000000000       0.000000000000000E+000  0.000000000000000E+000        
  0.000000000000000E+000  0.000000000000000E+000  0.000000000000000E+000        
   1.00000000000000       0.000000000000000E+000  0.000000000000000E+000        
   126.140000000000       0.000000000000000E+000  0.000000000000000E+000        
  0.000000000000000E+000  0.000000000000000E+000  0.000000000000000E+000        
  0.000000000000000E+000   1.00000000000000       0.000000000000000E+000        
  5.348000000000000E-002  0.000000000000000E+000  0.000000000000000E+000        
  0.000000000000000E+000  0.000000000000000E+000  0.000000000000000E+000        
  0.000000000000000E+000  0.000000000000000E+000   1.00000000000000             
    6    6                                                                      
   3.77500000000000        1.00000000000000       0.000000000000000E+000        
  0.000000000000000E+000  0.000000000000000E+000  0.000000000000000E+000        
  0.000000000000000E+000                                                        
   1.30000000000000       0.000000000000000E+000   1.00000000000000             
  0.000000000000000E+000  0.000000000000000E+000  0.000000000000000E+000        
  0.000000000000000E+000                                                        
  0.444000000000000       0.000000000000000E+000  0.000000000000000E+000        
   1.00000000000000       0.000000000000000E+000  0.000000000000000E+000        
  0.000000000000000E+000                                                        
   14.9270000000000       0.000000000000000E+000  0.000000000000000E+000        
  0.000000000000000E+000   1.00000000000000       0.000000000000000E+000        
  0.000000000000000E+000                                                        
   57.5440000000000       0.000000000000000E+000  0.000000000000000E+000        
  0.000000000000000E+000  0.000000000000000E+000   1.00000000000000             
  0.000000000000000E+000                                                        
  0.154000000000000       0.000000000000000E+000  0.000000000000000E+000        
  0.000000000000000E+000  0.000000000000000E+000  0.000000000000000E+000        
   1.00000000000000                                                             
    4    4                                                                      
   2.66600000000000        1.00000000000000       0.000000000000000E+000        
  0.000000000000000E+000  0.000000000000000E+000                                
  0.859000000000000       0.000000000000000E+000   1.00000000000000             
  0.000000000000000E+000  0.000000000000000E+000                                
   26.4830000000000       0.000000000000000E+000  0.000000000000000E+000        
   1.00000000000000       0.000000000000000E+000                                
  0.324000000000000       0.000000000000000E+000  0.000000000000000E+000        
  0.000000000000000E+000   1.00000000000000                                     
    2    2                                                                      
   1.84600000000000        1.00000000000000       0.000000000000000E+000        
  0.714000000000000       0.000000000000000E+000   1.00000000000000             
FINISH                                                                          
 
********************************************************************************
 ONE- AND TWO-ELECTRON INTEGRALS OVER SYMMETRY-ADAPTED AOS ARE CALCULATED.

  SPHERICAL HARMONICS ARE USED.
  
  INTEGRALS LESS THAN  0.10E-13 ARE NEGLECTED.

  NUCLEAR REPULSION ENERGY :   28.2227786667 A.U.
  @MOLECU-I, ONE ELECTRON INTEGRALS (CPU/WALL):        0.06/       0.07 SECONDS.
  @TWOEL-I,    4727719 INTEGRALS OF SYMMETRY TYPE  I I I I
  @TWOEL-I,   20231470 INTEGRALS OF SYMMETRY TYPE  I J I J
  @TWOEL-I,   10661887 INTEGRALS OF SYMMETRY TYPE  I I J J
  @TWOEL-I,   14932378 INTEGRALS OF SYMMETRY TYPE  I J K L
  @TWOEL-I, TOTAL NUMBER OF 2-E INTEGRALS   50553454.
  @MOLECU-I, TWO ELECTRON INTEGRALS (CPU/WALL):      196.39/      27.67 SECONDS.
 @CHECKOUT-I, Total execution time (CPU/WALL):      196.46/      27.77 seconds.

Running with 14 threads/proc

--executable xvmol finished with status     0 in       27.79 seconds (walltime).
 --invoking executable--
/nfs/workspaces/public/cfour_mpi/bin/xvmol2ja
 @GETMEM-I,  Allocated    3814 MB of main memory.
 @CHECKOUT-I, Total execution time (CPU/WALL):        0.12/       0.05 seconds.
--executable xvmol2ja finished with status     0 in        0.06 seconds (walltime).
 --invoking executable--
/nfs/workspaces/public/cfour_mpi/bin/xvprop
 @GETMEM-I,  Allocated    3814 MB of main memory.
   Property integrals will be calculated.
    --------------------------------------------------------------
                                   Property evaluated at 
    Property type                X             Y             Z
    --------------------------------------------------------------
    Dipole moment               ----          ----          ----  
    Quadrupole moment           ----          ----          ----  
    Octopole moment             ----          ----          ----  
    Relativisitic corr.         ----          ----          ----  
    Second moment            0.0000000     0.0000000     0.0000000
    Electron density         0.0000000     0.0000000     0.9381047
    Electron density         0.0000000     0.0000000    -0.7626492
    Field gradient           0.0000000     0.0000000     0.9381047
    Field gradient           0.0000000     0.0000000    -0.7626492
    Potential                0.0000000     0.0000000     0.9381047
    Potential                0.0000000     0.0000000    -0.7626492
    --------------------------------------------------------------
 @CHECKOUT-I, Total execution time (CPU/WALL):        1.56/       1.60 seconds.
--executable xvprop finished with status     0 in        1.62 seconds (walltime).
 --invoking executable--
/nfs/workspaces/public/cfour_mpi/bin/xvscf
  There are  218 functions in the AO basis.

  There are 4 irreducible representations.

       Irrep        # of functions
         1                 86
         2                 52
         3                 52
         4                 28


  Parameters for SCF calculation: 
        SCF reference function:  RHF  
  Maximum number of iterations:  150
     Full symmetry point group: CXv 
     Computational point group: C2v 
        Initial density matrix: MOREAD                 
     SCF convergence tolerance: 10**(-10)
  DIIS convergence acceleration:  ON
          Latest start for DIIS:   8
                     DIIS order:   6

  Memory information:    2523578 words required.
  Fock matrices are constructed from AO integral file.
 @GETMEM-I,  Allocated      19 MB of main memory.
  Initialization and symmetry analysis required      0.002 seconds.

  Adding electric field perturbation to one-electron Hamiltonian.
  Field direction     : Z
  Field strength      :  0.0002000 a.u.

  @INITGES-I, Occupancies from core Hamiltonian:

          Alpha population by irrep:   5    1    1    0
           Beta population by irrep:   5    1    1    0


 total no. of electrons in initial guess :  0.000000000000000E+000
  --------------------------------------------------------------------
  Iteration         Total Energy            Largest Density Difference
  --------------------------------------------------------------------
       0            28.222873179689778              0.0000000000D+00
   current occupation vector 
     5  1  1  0
     5  1  1  0
       1           -89.260121645164872              0.2118142552D+02
   current occupation vector 
     5  1  1  0
     5  1  1  0
       2           -91.038484041754685              0.1367933594D+03
   current occupation vector 
     5  1  1  0
     5  1  1  0
       3          -104.259438678174376              0.1368169401D+03
   current occupation vector 
     4  1  2  0
     4  1  2  0
       4          -101.968054400049567              0.2152900279D+02
   current occupation vector 
     5  1  1  0
     5  1  1  0
       5          -106.518994300961339              0.2152758784D+02
   current occupation vector 
     4  1  2  0
     4  1  2  0
       6          -103.953811606778771              0.1612846391D+02
   current occupation vector 
     5  1  1  0
     5  1  1  0
       7          -106.891755316071169              0.1612786958D+02
   current occupation vector 
     4  1  2  0
     4  1  2  0
       8          -104.416043333570656              0.1331797112D+02
   current occupation vector 
     5  1  1  0
     5  1  1  0
       9          -111.931217181284609              0.1332510587D+02
   current occupation vector 
     5  1  1  0
     5  1  1  0
      10          -112.513835756567659              0.7541042210D+00
   current occupation vector 
     5  1  1  0
     5  1  1  0
      11          -112.608124170488850              0.2662542481D+00
   current occupation vector 
     5  1  1  0
     5  1  1  0
      12          -112.609374732601651              0.3168767927D-01
   current occupation vector 
     5  1  1  0
     5  1  1  0
      13          -112.609402985069039              0.5617243766D-02
   current occupation vector 
     5  1  1  0
     5  1  1  0
      14          -112.609404667702108              0.1772682016D-02
   current occupation vector 
     5  1  1  0
     5  1  1  0
      15          -112.609404768747311              0.4602583635D-03
   current occupation vector 
     5  1  1  0
     5  1  1  0
      16          -112.609404781364418              0.1540985466D-03
   current occupation vector 
     5  1  1  0
     5  1  1  0
      17          -112.609404782302619              0.5222106688D-04
   current occupation vector 
     5  1  1  0
     5  1  1  0
      18          -112.609404782327289              0.7331853971D-05
   current occupation vector 
     5  1  1  0
     5  1  1  0
      19          -112.609404782326578              0.9059621782D-06
   current occupation vector 
     5  1  1  0
     5  1  1  0
      20          -112.609404782327147              0.1636019760D-06
   current occupation vector 
     5  1  1  0
     5  1  1  0
      21          -112.609404782327942              0.3717413088D-07
   current occupation vector 
     5  1  1  0
     5  1  1  0
      22          -112.609404782327516              0.6315178824D-08
   current occupation vector 
     5  1  1  0
     5  1  1  0
      23          -112.609404782327687              0.1252615123D-08
   current occupation vector 
     5  1  1  0
     5  1  1  0
      24          -112.609404782328312              0.3293187528D-09
   current occupation vector 
     5  1  1  0
     5  1  1  0
      25          -112.609404782327516              0.2572999591D-09
   current occupation vector 
     5  1  1  0
     5  1  1  0

  SCF has converged.

 Density matrix saved to file den.dat
 total electron number:   14.0000000000001     
     E(SCF)=      -112.609404782327829              0.8799405649D-10

  Eigenvector printing suppressed.

 @PUTMOS-I, Writing converged MOs to NEWMOS. 
 @PUTMOS-I, Symmetry   1 Full Blocks 21 Partial Blocksize   2
 @PUTMOS-I, Symmetry   2 Full Blocks 13 Partial Blocksize   0
 @PUTMOS-I, Symmetry   3 Full Blocks 13 Partial Blocksize   0
 @PUTMOS-I, Symmetry   4 Full Blocks  7 Partial Blocksize   0
 @PUTFOCK-I, Writing converged Fock matrix to NEWFOCK. 
 @PUTFOCK-I, Symmetry   1 Full Blocks 21 Partial Blocksize   2
 @PUTFOCK-I, Symmetry   2 Full Blocks 13 Partial Blocksize   0
 @PUTFOCK-I, Symmetry   3 Full Blocks 13 Partial Blocksize   0
 @PUTFOCK-I, Symmetry   4 Full Blocks  7 Partial Blocksize   0


 
  ORBITAL EIGENVALUES (ALPHA)  (1H = 27.2113834 eV)

       MO #        E(hartree)               E(eV)           FULLSYM    COMPSYM
       ----   --------------------   --------------------   -------   ---------
    1     1         -20.6448340427        -561.7744943653     SG+        A1 (1)
    2     2         -11.2593033841        -306.3812212012     SG+        A1 (1)
    3     3          -1.6800526125         -45.7165557707     SG+        A1 (1)
    4     4          -0.8223664114         -22.3777277168     SG+        A1 (1)
    5   139          -0.7621044410         -20.7379161342      PI        B2 (3)
    6    87          -0.7621044410         -20.7379161340      PI        B1 (2)
    7     5          -0.5197898210         -14.1442001067     SG+        A1 (1)
  +++++++++++++++++++++++++++++++++++++++++++++++++++++++++++++++++++++++++++++
    8     6           0.0553983608           1.5074660346     SG+        A1 (1)
    9   140           0.0650373998           1.7697576210      PI        B2 (3)
   10    88           0.0650373998           1.7697576210      PI        B1 (2)
   11     7           0.0783344390           2.1315884533     SG+        A1 (1)
   12   141           0.1539396679           4.1889113246      PI        B2 (3)
   13    89           0.1539396679           4.1889113246      PI        B1 (2)
   14     8           0.1563139352           4.2535184212     SG+        A1 (1)
   15   142           0.2140156576           5.8236621118      PI        B2 (3)
   16    90           0.2140156576           5.8236621118      PI        B1 (2)
   17     9           0.2258740817           6.1463462373     SG+        A1 (1)
   18   191           0.2267494120           6.1701651854      DE        A2 (4)
   19    10           0.2267494120           6.1701651854      DE        A1 (1)
   20    11           0.3027648592           8.2386506638     SG+        A1 (1)
   21   143           0.3518303958           9.5737917931      PI        B2 (3)
   22    91           0.3518303958           9.5737917932      PI        B1 (2)
   23    12           0.4025233338          10.9532167623     SG+        A1 (1)
   24   144           0.4125495901          11.2260450679      PI        B2 (3)
   25    92           0.4125495901          11.2260450679      PI        B1 (2)
   26    13           0.5070572629          13.7977295859     SG+        A1 (1)
   27   192           0.5162442262          14.0477195659      DE        A2 (4)
   28    14           0.5162442262          14.0477195659      DE        A1 (1)
   29   145           0.6178137987          16.8115681457      PI        B2 (3)
   30    93           0.6178137987          16.8115681458      PI        B1 (2)
   31    15           0.6561634200          17.8551143953     SG+        A1 (1)
   32    94           0.7497688785          20.4022484151      PH        B1 (2)
   33   146           0.7497688785          20.4022484151      PH        B2 (3)
   34    16           0.7684814754          20.9114440638      DE        A1 (1)
   35   193           0.7684814754          20.9114440638      DE        A2 (4)
   36    17           0.8020946206          21.8261042429     SG+        A1 (1)
   37   147           0.8536180263          23.2281273907      PI        B2 (3)
   38    95           0.8536180263          23.2281273908      PI        B1 (2)
   39   148           0.8680331847          23.6203837937      PI        B2 (3)
   40    96           0.8680331847          23.6203837939      PI        B1 (2)
   41    18           0.8821693961          24.0050496615     SG+        A1 (1)
   42    19           0.9144047223          24.8822174811      DE        A1 (1)
   43   194           0.9144047223          24.8822174811      DE        A2 (4)
   44    20           0.9705496524          26.4099986995     SG+        A1 (1)
   45   149           1.1437959101          31.1242690418      PI        B2 (3)
   46    97           1.1437959101          31.1242690419      PI        B1 (2)
   47    21           1.3796734130          37.5428222073     SG+        A1 (1)
   48    98           1.4606931033          39.7474800640      PH        B1 (2)
   49   150           1.4606931033          39.7474800640      PH        B2 (3)
   50   195           1.4935974260          40.6428522048      DE        A2 (4)
   51    22           1.4935974260          40.6428522048      DE        A1 (1)
   52   151           1.5197632287          41.3548598921      PI        B2 (3)
   53    99           1.5197632287          41.3548598921      PI        B1 (2)
   54    23           1.5570459369          42.3693739608     SG+        A1 (1)
   55    24           1.6748884121          45.5760307326     SG+        A1 (1)
   56   196           1.7700235668          48.1647899026      DE        A2 (4)
   57    25           1.7700235668          48.1647899026      DE        A1 (1)
   58    26           1.8022069134          49.0405432871     SG+        A1 (1)
   59   152           1.8447016286          50.1968832747      PI        B2 (3)
   60   100           1.8447016286          50.1968832753      PI        B1 (2)
   61   153           2.0512558729          55.8175100087      PI        B2 (3)
   62   101           2.0512558729          55.8175100088      PI        B1 (2)
   63   197           2.1175513705          57.6215022115      PI        A2 (4)
   64    27           2.1175513705          57.6215022115      PI        A1 (1)
   65    28           2.2493900947          61.2090162836     SG+        A1 (1)
   66   198           2.2519051447          61.2774542724      DE        A2 (4)
   67    29           2.2519051447          61.2774542724      DE        A1 (1)
   68   154           2.2657494619          61.6541772959      PH        B2 (3)
   69   102           2.2657494619          61.6541772959      PH        B1 (2)
   70    30           2.3574686355          64.1499828929     SG+        A1 (1)
   71   155           2.3628324738          64.2959403532      PI        B2 (3)
   72   103           2.3628324738          64.2959403533      PI        B1 (2)
   73   199           2.3995198170          65.2942537153      DE        A2 (4)
   74    31           2.3995198170          65.2942537153      DE        A1 (1)
   75   156           2.4534458111          66.7616546162      PH        B2 (3)
   76   104           2.4534458111          66.7616546162      PH        B1 (2)
   77   157           2.6104455869          71.0338357108      PI        B2 (3)
   78   105           2.6104455869          71.0338357109      PI        B1 (2)
   79    32           2.7083274067          73.6973354361     SG+        A1 (1)
   80   158           3.1092576374          84.6072016597      PI        B2 (3)
   81   106           3.1092576374          84.6072016598      PI        B1 (2)
   82   200           3.1798899325          86.5292041224      DE        A2 (4)
   83    33           3.1798899325          86.5292041228      DE        A1 (1)
   84    34           3.2057384716          87.2325786312     SG+        A1 (1)
   85    35           3.3402780914          90.8935878066     SG+        A1 (1)
   86   159           3.7286199319         101.4609065211      PI        B2 (3)
   87   107           3.7286199320         101.4609065216      PI        B1 (2)
   88   201           3.7917993957         103.1801071334      PI        A2 (4)
   89    36           3.7917993957         103.1801071334      PI        A1 (1)
   90    37           4.0149517470         109.2523913197     SG+        A1 (1)
   91   160           4.0550714555         110.3441040887      PH        B2 (3)
   92   108           4.0550714555         110.3441040887      PH        B1 (2)
   93    38           4.1765383934         113.6493875073      DE        A1 (1)
   94   202           4.1765383934         113.6493875073      DE        A2 (4)
   95   109           4.2271815987         115.0274591831      PI        B1 (2)
   96   161           4.2271815987         115.0274591831      PI        B2 (3)
   97    39           4.3710632192         118.9426771228     SG+        A1 (1)
   98   203           4.4925875126         122.2495212646      DE        A2 (4)
   99    40           4.4925875126         122.2495212647      DE        A1 (1)
  100   162           4.5689150532         124.3264992342      PH        B2 (3)
  101   110           4.5689150532         124.3264992343      PH        B1 (2)
  102    41           4.7611552724         129.5576215447     SG+        A1 (1)
  103   163           4.9767024078         135.4229572862      PI        B2 (3)
  104   111           4.9767024078         135.4229572865      PI        B1 (2)
  105   204           5.2112789466         141.8061094193      DE        A2 (4)
  106    42           5.2112789466         141.8061094196      DE        A1 (1)
  107    43           5.2503478993         142.8692296724     SG+        A1 (1)
  108   164           5.3744586007         146.2464535511      PI        B2 (3)
  109   112           5.3744586007         146.2464535512      PI        B1 (2)
  110   205           5.9376273532         161.5710543935      PI        A2 (4)
  111    44           5.9376273532         161.5710543935      PI        A1 (1)
  112   165           6.0493417065         164.6109564929      PI        B2 (3)
  113   113           6.0493417065         164.6109564931      PI        B1 (2)
  114    45           6.1356467165         166.9594352097     SG+        A1 (1)
  115   166           6.3237935184         172.0791699714      PH        B2 (3)
  116   114           6.3237935184         172.0791699714      PH        B1 (2)
  117    46           6.3635628410         173.1613482557     SG+        A1 (1)
  118   206           6.3653233910         173.2092552580      DE        A2 (4)
  119    47           6.3653233910         173.2092552580      DE        A1 (1)
  120   167           6.4642163990         175.9002708124      PI        B2 (3)
  121   115           6.4642163990         175.9002708126      PI        B1 (2)
  122   116           6.6190914020         180.1146338986      PH        B1 (2)
  123   168           6.6190914020         180.1146338986      PH        B2 (3)
  124   207           6.8310843603         185.8832555648      DE        A2 (4)
  125    48           6.8310843603         185.8832555652      DE        A1 (1)
  126    49           7.2122250825         196.2546218873     SG+        A1 (1)
  127   169           8.0827882044         219.9438487722      PI        B2 (3)
  128   117           8.0827882044         219.9438487723      PI        B1 (2)
  129   208           8.3490970701         227.1904814176      DE        A2 (4)
  130    50           8.3490970701         227.1904814180      DE        A1 (1)
  131    51           8.7650800668         238.5099542296     SG+        A1 (1)
  132    52           8.9946713522         244.7574507218     SG+        A1 (1)
  133   170           9.0725063696         246.8754492218      PI        B2 (3)
  134   118           9.0725063696         246.8754492225      PI        B1 (2)
  135    53          10.0232956680         272.7477413538     SG+        A1 (1)
  136   171          10.2804856623         279.7462368949      PI        B2 (3)
  137   119          10.2804856623         279.7462368952      PI        B1 (2)
  138   209          10.6147254230         288.8413631706      PI        A2 (4)
  139    54          10.6147254230         288.8413631706      PI        A1 (1)
  140   172          11.1163343238         302.4908352862      PH        B2 (3)
  141   120          11.1163343238         302.4908352862      PH        B1 (2)
  142    55          11.4045770622         310.3343189542      DE        A1 (1)
  143   210          11.4045770622         310.3343189542      DE        A2 (4)
  144    56          11.4354830766         311.1753143627     SG+        A1 (1)
  145   121          11.5169728076         313.3927626755      PI        B1 (2)
  146   173          11.5169728076         313.3927626756      PI        B2 (3)
  147   122          11.8935213889         323.6391704898      PH        B1 (2)
  148   174          11.8935213889         323.6391704898      PH        B2 (3)
  149    57          12.5333192539         341.0489554928      DE        A1 (1)
  150   211          12.5333192539         341.0489554936      DE        A2 (4)
  151    58          13.2267262348         359.9175187032     SG+        A1 (1)
  152   212          13.3304513364         362.7400222098      DE        A2 (4)
  153    59          13.3304513364         362.7400222098      DE        A1 (1)
  154   175          13.5044210384         367.4739784708      PI        B2 (3)
  155   123          13.5044210384         367.4739784709      PI        B1 (2)
  156    60          14.2281436632         387.1674722883     SG+        A1 (1)
  157   176          15.4555115301         420.5658498896      PI        B2 (3)
  158   124          15.4555115301         420.5658498898      PI        B1 (2)
  159    61          15.7412512345         428.3412225374     SG+        A1 (1)
  160    62          19.1782839877         521.8676385434     SG+        A1 (1)
  161   177          19.7760256035         538.1330148238      PI        B2 (3)
  162   125          19.7760256035         538.1330148241      PI        B1 (2)
  163    63          22.1150403986         601.7808431926     SG+        A1 (1)
  164   213          26.8407658896         730.3743713717      DE        A2 (4)
  165    64          26.8407658896         730.3743713718      DE        A1 (1)
  166   178          28.1226455439         765.2560901186      PI        B2 (3)
  167   126          28.1226455439         765.2560901187      PI        B1 (2)
  168    65          29.4413696711         801.1403979423     SG+        A1 (1)
  169   179          34.1483623308         929.2241798647      PI        B2 (3)
  170   127          34.1483623308         929.2241798653      PI        B1 (2)
  171    66          36.5243983533         993.8794070470     SG+        A1 (1)
  172    67          37.6083371306        1023.3748806976     SG+        A1 (1)
  173    68          47.2831010256        1286.6385903474      DE        A1 (1)
  174   214          47.2831010256        1286.6385903474      DE        A2 (4)
  175   180          48.2733702425        1313.5851856784      PI        B2 (3)
  176   128          48.2733702425        1313.5851856784      PI        B1 (2)
  177    69          48.9347528239        1331.5823206748     SG+        A1 (1)
  178    70          65.2561801187        1775.7109364292     SG+        A1 (1)
  179   181          67.1978618893        1828.5467835307      PI        B2 (3)
  180   129          67.1978618893        1828.5467835310      PI        B1 (2)
  181    71          69.0130950524        1877.9417890917     SG+        A1 (1)
  182   130          98.7990305093        2688.4582987374      PH        B1 (2)
  183   182          98.7990305093        2688.4582987374      PH        B2 (3)
  184   215          98.8594374211        2690.1020543727      DE        A2 (4)
  185    72          98.8594374211        2690.1020543727      DE        A1 (1)
  186   183          98.9035075104        2691.3012624707      PI        B2 (3)
  187   131          98.9035075104        2691.3012624707      PI        B1 (2)
  188    73          98.9769462056        2693.2996309627     SG+        A1 (1)
  189   184         103.3119874286        2811.2620997344      PH        B2 (3)
  190   132         103.3119874286        2811.2620997344      PH        B1 (2)
  191   216         103.3869686749        2813.3024431774      DE        A2 (4)
  192    74         103.3869686750        2813.3024431798      DE        A1 (1)
  193   133         103.5150725731        2816.7883274660      PI        B1 (2)
  194   185         103.5150725731        2816.7883274660      PI        B2 (3)
  195    75         103.6446186979        2820.3134567363     SG+        A1 (1)
  196    76         115.4138428884        3140.5703285033      DE        A1 (1)
  197   217         115.4138428884        3140.5703285033      DE        A2 (4)
  198   186         116.0500582372        3157.8826282851      PI        B2 (3)
  199   134         116.0500582372        3157.8826282852      PI        B1 (2)
  200    77         116.6301910990        3173.6688460098     SG+        A1 (1)
  201   187         117.3574600329        3193.4588398042      PI        B2 (3)
  202   135         117.3574600329        3193.4588398046      PI        B1 (2)
  203    78         119.3136609843        3246.6897739013     SG+        A1 (1)
  204    79         123.6752282540        3365.3740531015     SG+        A1 (1)
  205   218         198.6923364333        5406.6933453284      DE        A2 (4)
  206    80         198.6923364333        5406.6933453284      DE        A1 (1)
  207   188         199.2434899697        5421.6909955189      PI        B2 (3)
  208   136         199.2434899697        5421.6909955192      PI        B1 (2)
  209    81         199.6017150445        5431.4387953733     SG+        A1 (1)
  210    82         217.6950001241        5923.7821126411     SG+        A1 (1)
  211   189         225.5827082509        6138.4175626262      PI        B2 (3)
  212   137         225.5827082509        6138.4175626264      PI        B1 (2)
  213    83         227.0109202514        6177.2811869485     SG+        A1 (1)
  214   190         395.7391742808       10768.6103977538      PI        B2 (3)
  215   138         395.7391742808       10768.6103977546      PI        B1 (2)
  216    84         397.2332129882       10809.2652578359     SG+        A1 (1)
  217    85         510.0893871561       13880.2378821751     SG+        A1 (1)
  218    86         896.6334295547       24398.6360208702     SG+        A1 (1)


  VSCF finished.

 @CHECKOUT-I, Total execution time (CPU/WALL):       45.71/       9.57 seconds.
--executable xvscf finished with status     0 in        9.59 seconds (walltime).
 --invoking executable--
/nfs/workspaces/public/cfour_mpi/bin/xvtran
 @GETMEM-I,  Allocated    3814 MB of main memory.
  Full RHF integral transformation
  Transformation of IIII integrals :
  1 pass through the AO integral file was required.
     4727719 AO integrals were read.
     8942380 MO integrals were written to HF2.
  Transformation of IIJJ integrals :
  1 pass through the AO integral file was required.
    10661887 AO integrals were read.
    14796957 MO integrals were written to HF2.
  Transformation of IJIJ integrals :
  1 pass through the AO integral file was required.
    20231470 AO integrals were read.
    28395140 MO integrals were written to HF2.
  Transformation of IJKL integrals :
  1 pass through the AO integral file was required.
    14932378 AO integrals were read.
    19279231 MO integrals were written to HF2.
  Summary of active molecular orbitals: 
------------------------------------------------------------------------
 
  Index      Eigenvalue    Symmetry    Index      Eigenvalue    Symmetry
------------------------------------------------------------------------
     1       -20.6448340        1       110         4.2271816        2
     2       -11.2593034        1       111         4.5689151        2
     3        -1.6800526        1       112         4.9767024        2
     4        -0.8223664        1       113         5.3744586        2
     5        -0.5197898        1       114         6.0493417        2
     6        -0.7621044        2       115         6.3237935        2
     7        -0.7621044        3       116         6.4642164        2
     8         0.0553984        1       117         6.6190914        2
     9         0.0783344        1       118         8.0827882        2
    10         0.1563139        1       119         9.0725064        2
    11         0.2258741        1       120        10.2804857        2
    12         0.2267494        1       121        11.1163343        2
    13         0.3027649        1       122        11.5169728        2
    14         0.4025233        1       123        11.8935214        2
    15         0.5070573        1       124        13.5044210        2
    16         0.5162442        1       125        15.4555115        2
    17         0.6561634        1       126        19.7760256        2
    18         0.7684815        1       127        28.1226455        2
    19         0.8020946        1       128        34.1483623        2
    20         0.8821694        1       129        48.2733702        2
    21         0.9144047        1       130        67.1978619        2
    22         0.9705497        1       131        98.7990305        2
    23         1.3796734        1       132        98.9035075        2
    24         1.4935974        1       133       103.3119874        2
    25         1.5570459        1       134       103.5150726        2
    26         1.6748884        1       135       116.0500582        2
    27         1.7700236        1       136       117.3574600        2
    28         1.8022069        1       137       199.2434900        2
    29         2.1175514        1       138       225.5827083        2
    30         2.2493901        1       139       395.7391743        2
    31         2.2519051        1       140         0.0650374        3
    32         2.3574686        1       141         0.1539397        3
    33         2.3995198        1       142         0.2140157        3
    34         2.7083274        1       143         0.3518304        3
    35         3.1798899        1       144         0.4125496        3
    36         3.2057385        1       145         0.6178138        3
    37         3.3402781        1       146         0.7497689        3
    38         3.7917994        1       147         0.8536180        3
    39         4.0149517        1       148         0.8680332        3
    40         4.1765384        1       149         1.1437959        3
    41         4.3710632        1       150         1.4606931        3
    42         4.4925875        1       151         1.5197632        3
    43         4.7611553        1       152         1.8447016        3
    44         5.2112789        1       153         2.0512559        3
    45         5.2503479        1       154         2.2657495        3
    46         5.9376274        1       155         2.3628325        3
    47         6.1356467        1       156         2.4534458        3
    48         6.3635628        1       157         2.6104456        3
    49         6.3653234        1       158         3.1092576        3
    50         6.8310844        1       159         3.7286199        3
    51         7.2122251        1       160         4.0550715        3
    52         8.3490971        1       161         4.2271816        3
    53         8.7650801        1       162         4.5689151        3
    54         8.9946714        1       163         4.9767024        3
    55        10.0232957        1       164         5.3744586        3
    56        10.6147254        1       165         6.0493417        3
    57        11.4045771        1       166         6.3237935        3
    58        11.4354831        1       167         6.4642164        3
    59        12.5333193        1       168         6.6190914        3
    60        13.2267262        1       169         8.0827882        3
    61        13.3304513        1       170         9.0725064        3
    62        14.2281437        1       171        10.2804857        3
    63        15.7412512        1       172        11.1163343        3
    64        19.1782840        1       173        11.5169728        3
    65        22.1150404        1       174        11.8935214        3
    66        26.8407659        1       175        13.5044210        3
    67        29.4413697        1       176        15.4555115        3
    68        36.5243984        1       177        19.7760256        3
    69        37.6083371        1       178        28.1226455        3
    70        47.2831010        1       179        34.1483623        3
    71        48.9347528        1       180        48.2733702        3
    72        65.2561801        1       181        67.1978619        3
    73        69.0130951        1       182        98.7990305        3
    74        98.8594374        1       183        98.9035075        3
    75        98.9769462        1       184       103.3119874        3
    76       103.3869687        1       185       103.5150726        3
    77       103.6446187        1       186       116.0500582        3
    78       115.4138429        1       187       117.3574600        3
    79       116.6301911        1       188       199.2434900        3
    80       119.3136610        1       189       225.5827083        3
    81       123.6752283        1       190       395.7391743        3
    82       198.6923364        1       191         0.2267494        4
    83       199.6017150        1       192         0.5162442        4
    84       217.6950001        1       193         0.7684815        4
    85       227.0109203        1       194         0.9144047        4
    86       397.2332130        1       195         1.4935974        4
    87       510.0893872        1       196         1.7700236        4
    88       896.6334296        1       197         2.1175514        4
    89         0.0650374        2       198         2.2519051        4
    90         0.1539397        2       199         2.3995198        4
    91         0.2140157        2       200         3.1798899        4
    92         0.3518304        2       201         3.7917994        4
    93         0.4125496        2       202         4.1765384        4
    94         0.6178138        2       203         4.4925875        4
    95         0.7497689        2       204         5.2112789        4
    96         0.8536180        2       205         5.9376274        4
    97         0.8680332        2       206         6.3653234        4
    98         1.1437959        2       207         6.8310844        4
    99         1.4606931        2       208         8.3490971        4
   100         1.5197632        2       209        10.6147254        4
   101         1.8447016        2       210        11.4045771        4
   102         2.0512559        2       211        12.5333193        4
   103         2.2657495        2       212        13.3304513        4
   104         2.3628325        2       213        26.8407659        4
   105         2.4534458        2       214        47.2831010        4
   106         2.6104456        2       215        98.8594374        4
   107         3.1092576        2       216       103.3869687        4
   108         3.7286199        2       217       115.4138429        4
   109         4.0550715        2       218       198.6923364        4
------------------------------------------------------------------------
  -20.6448340427003       -11.2593033840840       -1.68005261249290     
 -0.822366411432144      -0.519789821003579      -0.762104440968067     
 -0.762104440974676       5.539836076772631E-002  7.833443901005525E-002
  0.156313935190595       0.225874081700883       0.226749411990296     
  0.302764859200697       0.402523333755131       0.507057262878587     
  0.516244226154655       0.656163420023605       0.768481475433126     
  0.802094620551516       0.882169396118651       0.914404722293588     
  0.970549652374100        1.37967341297687        1.49359742602337     
   1.55704593691299        1.67488841205448        1.77002356677804     
   1.80220691341482        2.11755137048818        2.24939009472122     
   2.25190514468397        2.35746863545627        2.39951981696444     
   2.70832740668804        3.17988993249231        3.20573847161444     
   3.34027809135793        3.79179939573972        4.01495174698326     
   4.17653839338772        4.37106321918260        4.49258751264675     
   4.76115527241627        5.21127894657629        5.25034789934417     
   5.93762735317408        6.13564671650136        6.36356284097379     
   6.36532339101845        6.83108436027384        7.21222508251129     
   8.34909707008957        8.76508006680925        8.99467135220464     
   10.0232956680103        10.6147254229848        11.4045770621937     
   11.4354830766423        12.5333192539113        13.2267262348450     
   13.3304513363996        14.2281436631501        15.7412512344888     
   19.1782839877020        22.1150403985947        26.8407658896097     
   29.4413696711332        36.5243983533369        37.6083371306160     
   47.2831010255573        48.9347528238799        65.2561801186920     
   69.0130950524060        98.8594374210580        98.9769462056357     
[...]
 Convergence information after     5 iterations: 
 Largest element of residual vector : -0.10297498E-02.
 Largest element of DIIS residual   : -0.45488590E-03.
 Convergence information after     6 iterations: 
 Largest element of residual vector : -0.30950401E-03.
 Largest element of DIIS residual   : -0.81470642E-04.
 Convergence information after     7 iterations: 
 Largest element of residual vector : -0.54214429E-04.
 Largest element of DIIS residual   : -0.25026852E-04.
 Convergence information after     8 iterations: 
 Largest element of residual vector : -0.15283265E-04.
 Largest element of DIIS residual   :  0.82232283E-05.
 Convergence information after     9 iterations: 
 Largest element of residual vector :  0.42968470E-05.
 Largest element of DIIS residual   :  0.19467205E-05.
 Convergence information after    10 iterations: 
 Largest element of residual vector :  0.15379799E-05.
 Largest element of DIIS residual   :  0.80550567E-06.
 Convergence information after    11 iterations: 
 Largest element of residual vector :  0.41964112E-06.
 Largest element of DIIS residual   :  0.23178818E-06.
 Convergence information after    12 iterations: 
 Largest element of residual vector :  0.16132677E-06.
 Largest element of DIIS residual   :  0.10243203E-06.
 Convergence information after    13 iterations: 
 Largest element of residual vector :  0.63628736E-07.
 Largest element of DIIS residual   :  0.42437493E-07.
 Perturbed amplitude equations converged in    13 iterations.
  Dominant contributions to perturbed wavefunction:
    7    7  142   37   0.2328764702 ABAB
    7    7   37  142   0.2328764702 ABAB
    5    5  142   53   0.2182257260 ABAB
    5    5   53  142   0.2182257260 ABAB
    7    7  142   53   0.1980184518 ABAB
    7    7   53  142   0.1980184518 ABAB
    7    7  142   48   0.1952754180 ABAB
    7    7   48  142   0.1952754180 ABAB
    5    5  142   43   0.1937269623 ABAB
    5    5   43  142   0.1937269623 ABAB
    7    7  144   53   0.1798353452 ABAB
    7    7   53  144   0.1798353452 ABAB
    7    7  142   63   0.1797150931 ABAB
    7    7   63  142   0.1797150931 ABAB
    5    5  142   37   0.1673232445 ABAB
    5    5   37  142   0.1673232445 ABAB
    7    6   37   91   0.1617309393 ABAB
    6    7   91   37   0.1617309393 ABAB
    7    7  145   37   0.1596066953 ABAB
    7    7   37  145   0.1596066953 ABAB
  norm of converged amps    3.11661778015992     
 Starting iterative solution of the perturbed Lambda equations.
 The DIIS procedure is used to accelerate convergence.
 Convergence criterion is 10**(-7).
 Maximum number of iterations is 100.
 Convergence information after     1 iterations: 
 Largest element of residual vector : -0.60084993E-01.
 Largest element of DIIS residual   : -0.60084993E-01.
 Convergence information after     2 iterations: 
 Largest element of residual vector :  0.52892298E-02.
 Largest element of DIIS residual   :  0.66732946E-02.
 Convergence information after     3 iterations: 
 Largest element of residual vector : -0.31722104E-02.
 Largest element of DIIS residual   : -0.28066712E-02.
 Convergence information after     4 iterations: 
 Largest element of residual vector : -0.19324018E-02.
 Largest element of DIIS residual   : -0.14217755E-02.
 Convergence information after     5 iterations: 
 Largest element of residual vector : -0.96580012E-03.
 Largest element of DIIS residual   : -0.42404549E-03.
 Convergence information after     6 iterations: 
 Largest element of residual vector : -0.28933708E-03.
 Largest element of DIIS residual   : -0.73907517E-04.
 Convergence information after     7 iterations: 
 Largest element of residual vector : -0.49118623E-04.
 Largest element of DIIS residual   : -0.21126376E-04.
 Convergence information after     8 iterations: 
 Largest element of residual vector : -0.12741537E-04.
 Largest element of DIIS residual   :  0.73680956E-05.
 Convergence information after     9 iterations: 
 Largest element of residual vector :  0.39100931E-05.
 Largest element of DIIS residual   :  0.17307930E-05.
 Convergence information after    10 iterations: 
 Largest element of residual vector :  0.13744152E-05.
 Largest element of DIIS residual   :  0.74319288E-06.
 Convergence information after    11 iterations: 
 Largest element of residual vector :  0.39745090E-06.
 Largest element of DIIS residual   :  0.22507548E-06.
 Convergence information after    12 iterations: 
 Largest element of residual vector :  0.15429366E-06.
 Largest element of DIIS residual   :  0.96289949E-07.
 Perturbed Lambda equations converged in    12 iterations.
  Dominant contributions to perturbed wavefunction:
    7    7  142   37   0.2248416217 ABAB
    7    7   37  142   0.2248416217 ABAB
    5    5  142   53   0.2096961601 ABAB
    5    5   53  142   0.2096961601 ABAB
    7    7  142   53   0.1903776679 ABAB
    7    7   53  142   0.1903776679 ABAB
    7    7  142   48   0.1886785767 ABAB
    7    7   48  142   0.1886785767 ABAB
    5    5  142   43   0.1863578945 ABAB
    5    5   43  142   0.1863578945 ABAB
    7    7  142   63   0.1733437625 ABAB
    7    7   63  142   0.1733437625 ABAB
    7    7  144   53   0.1731215284 ABAB
    7    7   53  144   0.1731215284 ABAB
    5    5  142   37   0.1604392772 ABAB
    5    5   37  142   0.1604392772 ABAB
    7    6   37   91   0.1547020848 ABAB
    6    7   91   37   0.1547020848 ABAB
    7    7  145   37   0.1546815981 ABAB
    7    7   37  145   0.1546815981 ABAB
        The DBOC first-order density matrix is being calculated 
             (Symmetry block 3, perturbation   2)
 term   11.7208464430525     
 final tnorm  0.912503336387653     
  norm contr. I: |<0|L dT/dx|0>|^2   0.000000000000000E+000
  norm contr. II: <0|[nabla(1+L)e-T][nabla e^T]|0>   11.7208464430525     
  total norm contribution   11.7208464430525     
 oo  1.320749144784310E-002
 vv  -88.0615926695452     
 vo  1.022575649269481E-002
  Correlated perturbed 1-el contribution to DBOC  -88.0381594216046       cm**-1
  SUM_I |dc_I/dx|^2 contribution to DBOC   44.1255832111836       cm**-1
 
 
  The total diagonal Born-Oppenheimer correction (DBOC) is:      0.0040417481 a.u.
  The total diagonal Born-Oppenheimer correction (DBOC) is:        887.061174 cm-1
 
 Total CC energy including DBOC  -113.081620680273     
 First-order density matrix is being calculated  (Symmetry block 3, perturbation   2)
 Calculation of the contributions of <pq||rs> to dI(i,j)/dx required   2.1 seconds.
 Calculation of the contributions of <pq||rs> to dI(a,b)/dx required  16.0 seconds.
 Calculation of the contributions of <pq||rs> to dI(i,a)/dx required   9.4 seconds.
 First-order Z-vector equations are solved for 1 perturbation.
 Convergence reached after  17 iterations.
        U*G(pq,rs) contribution is being calculated
             (Symmetry block 3, perturbation   2)

 CCSD contribution to force constants 

        0.0000000000        0.0000000000        0.0000000000
        0.0000000000        0.0000000000        0.0000000000
        0.0000000000        0.0000000000        0.0000000000
        0.0000000000        0.0000000000        0.0000000000
        0.0000000000        0.0000000000        0.0000000000
        0.0000000000        0.0000000000        0.0000000000
        0.0000000000        0.0000000000        0.0000000000
        0.0000000000        0.0000000000        0.0000000000
        0.0000000000        0.0000000000        0.0000000000
        0.0000000000        0.0000000000        0.0000000000
        0.0000000000        0.0000000000        0.0000000000
        0.0000000000      -19.9968858129       19.9968858129

 CCSD contribution to dipole derivatives 

        0.0000000000        0.0000000000        0.0000000000
        0.0000000000        0.0000000000        0.0000000000
        0.0000000000        0.0000000000        0.0000000000
        0.0000000000        0.0000000000       -0.0351707091
        0.0000000000        0.0000000000        0.0000000000
        0.0000000000        0.0000000000        0.0000000000
 @CHECKOUT-I, Total execution time (CPU/WALL):     1052.88/     277.63 seconds.
--executable xsdcc finished with status     0 in      277.67 seconds (walltime).
 --invoking executable--
/nfs/workspaces/public/cfour_mpi/bin/xanti
 @GETMEM-I,  Allocated    3814 MB of main memory.
 CCSD MO derivative gammas will be sorted to Mulliken order.
 @CHECKOUT-I, Total execution time (CPU/WALL):        8.95/      15.31 seconds.
--executable xanti finished with status     0 in       15.33 seconds (walltime).
 --invoking executable--
/nfs/workspaces/public/cfour_mpi/bin/xbcktrn
 @GETMEM-I,  Allocated    3814 MB of main memory.
 CCSD MO derivative gammas will be transformed to the AO basis.
 @CHECKOUT-I, Total execution time (CPU/WALL):       20.11/       3.57 seconds.
--executable xbcktrn finished with status     0 in        3.58 seconds (walltime).
 --invoking executable--
/nfs/workspaces/public/cfour_mpi/bin/xvdint
 @GETMEM-I,  Allocated    3814 MB of main memory.
 One- and two-electron integral derivatives are calculated
 for RHF-CC/MBPT hessians and dipole derivatives.
 Spherical gaussians are used.
  magnet F F
                    8722  records have been written to the Sort file.
  Total length of Sort file :             178609116  words.
 Evaluation of 2el integral derivatives

                      Two-electron integral gradient
                      ------------------------------

                         C #1 z     0.0000000000
                         O #2 z     0.0000000000


 C #1       0.0000000000           -2.5310154066            0.0000000000
 O #2       0.0000000000            2.5310154066            0.0000000000


 Evaluation of 2e integral derivatives required  324.55 seconds.
  contribution to Hessian
        0.0000000000        0.0000000000        0.0000000000
        0.0000000000       -2.5310154066        2.5310154066
 @CHECKOUT-I, Total execution time (CPU/WALL):      324.54/      69.80 seconds.
--executable xvdint finished with status     0 in       69.82 seconds (walltime).
 --invoking executable--
/nfs/workspaces/public/cfour_mpi/bin/xanti
 @GETMEM-I,  Allocated    3814 MB of main memory.
 CCSD MO gammas will be sorted to Mulliken order.
 @CHECKOUT-I, Total execution time (CPU/WALL):       11.50/      10.17 seconds.
--executable xanti finished with status     0 in       10.19 seconds (walltime).
 --invoking executable--
/nfs/workspaces/public/cfour_mpi/bin/xbcktrn
 @GETMEM-I,  Allocated    3814 MB of main memory.
 CCSD MO gammas will be transformed to the AO basis.
 @CHECKOUT-I, Total execution time (CPU/WALL):       28.24/       5.14 seconds.
--executable xbcktrn finished with status     0 in        5.16 seconds (walltime).
 --invoking executable--
/nfs/workspaces/public/cfour_mpi/bin/xvdint
 @GETMEM-I,  Allocated    3814 MB of main memory.
 One- and two-electron integral derivatives are calculated
 for RHF-CC/MBPT hessians and dipole derivatives.
 Spherical gaussians are used.
  magnet F F

                     Kinetic energy integral gradient
                     --------------------------------

                         C #1 z    -2.0501428127
                         O #2 z     2.0501428127


 C #1       0.0000000000            0.0000000000           -2.0501428127
 O #2       0.0000000000            0.0000000000            2.0501428127



                   Nuclear attraction integral gradient
                   ------------------------------------

                         C #1 z    28.9517562833
                         O #2 z   -28.9517562833


 C #1       0.0000000000            0.0000000000           28.9517562833
 O #2       0.0000000000            0.0000000000          -28.9517562833



                      Reorthonormalization gradient
                      -----------------------------

                         C #1 z     0.0000000000
                         O #2 z     0.0000000000


 C #1       0.0000000000            0.0000000000            0.0000000000
 O #2       0.0000000000            0.0000000000            0.0000000000



                     Kinetic energy integral Hessian
                     -------------------------------


           Symmetry 1

           C #1 z      O #2 z

 C #1 z   -0.142175
 O #2 z    0.142175   -0.142175


           Symmetry 2

           C #1 x      O #2 x

 C #1 x   -4.455444
 O #2 x    4.455444   -4.455444


           Symmetry 3

           C #1 y      O #2 y

 C #1 y   -4.455444
 O #2 y    4.455444   -4.455444




           C #1 x      C #1 y      C #1 z      O #2 x      O #2 y      O #2 z

 C #1 x   -4.455444
 C #1 y    0.000000   -4.455444
 C #1 z    0.000000    0.000000   -0.142175

 O #2 x    4.455444    0.000000    0.000000   -4.455444
 O #2 y    0.000000    4.455444    0.000000    0.000000   -4.455444
 O #2 z    0.000000    0.000000    0.142175    0.000000    0.000000   -0.142175




                   Nuclear attraction integral Hessian
                   -----------------------------------


           Symmetry 1

           C #1 z      O #2 z

 C #1 z  -10.918410
 O #2 z   10.918410  -10.918410


           Symmetry 2

           C #1 x      O #2 x

 C #1 x   37.487939
 O #2 x  -37.487939   37.487939


           Symmetry 3

           C #1 y      O #2 y

 C #1 y   37.487939
 O #2 y  -37.487939   37.487939




           C #1 x      C #1 y      C #1 z      O #2 x      O #2 y      O #2 z

 C #1 x   37.487939
 C #1 y    0.000000   37.487939
 C #1 z    0.000000    0.000000  -10.918410

 O #2 x  -37.487939    0.000000    0.000000   37.487939
 O #2 y    0.000000  -37.487939    0.000000    0.000000   37.487939
 O #2 z    0.000000    0.000000   10.918410    0.000000    0.000000  -10.918410




                Highest order reorthonormalization Hessian
                ------------------------------------------


           Symmetry 1

           C #1 z      O #2 z

 C #1 z    0.000000
 O #2 z    0.000000    0.000000


           Symmetry 2

           C #1 x      O #2 x

 C #1 x    0.000000
 O #2 x    0.000000    0.000000


           Symmetry 3

           C #1 y      O #2 y

 C #1 y    0.000000
 O #2 y    0.000000    0.000000




           C #1 x      C #1 y      C #1 z      O #2 x      O #2 y      O #2 z




                Electronic contributions to dipole moment
                -----------------------------------------

                               au             Debye

                    z      0.14414419      0.36637805

  Conversion factor used: 1 a.u. =   2.54174691 Debye 



   Electronic contributions to static part of dipole moment derivatives
   --------------------------------------------------------------------


                     Total dipole moment derivatives
                     -------------------------------


           Symmetry 1
                              Ez

               C #1 z    -5.89305793
               O #2 z    -8.10694207

           Symmetry 2
                              Ex

               C #1 x    -5.92292439
               O #2 x    -8.07707561

           Symmetry 3
                              Ey

               C #1 y    -5.92292439
               O #2 y    -8.07707561



                       Ex          Ey          Ez

      C #1    x   -5.922924    0.000000    0.000000
      C #1    y    0.000000   -5.922924    0.000000
      C #1    z    0.000000    0.000000   -5.893058

      O #2    x   -8.077076    0.000000    0.000000
      O #2    y    0.000000   -8.077076    0.000000
      O #2    z    0.000000    0.000000   -8.106942

 Evaluation of 1e integral derivatives required    1.66 seconds.
                    8815  records have been written to the Sort file.
  Total length of Sort file :             180513570  words.
 Evaluation of 2el integral derivatives

                      Two-electron integral gradient
                      ------------------------------

                         C #1 z   -11.4679559653
                         O #2 z    11.4679559653


 C #1       0.0000000000            0.0000000000          -11.4679559653
 O #2       0.0000000000            0.0000000000           11.4679559653


 Evaluation of 2e integral derivatives required  709.97 seconds.

                            Molecular gradient
                            ------------------

                         C #1 z    -1.1606182378
                         O #2 z     1.1606182378


 C #1       0.0000000000            0.0000000000           -1.1606182378
 O #2       0.0000000000            0.0000000000            1.1606182378


  Molecular gradient norm 0.164E+01

                            Molecular hessian
                            -----------------


           Symmetry 1

           C #1 z      O #2 z

 C #1 z  121.547645
 O #2 z -121.547645  121.547645


           Symmetry 2

           C #1 x      O #2 x

 C #1 x   20.640222
 O #2 x  -20.640222   20.640222


           Symmetry 3

           C #1 y      O #2 y

 C #1 y   20.640222
 O #2 y  -20.640222   20.640222




           C #1 x      C #1 y      C #1 z      O #2 x      O #2 y      O #2 z

 C #1 x   20.640222
 C #1 y    0.000000   20.640222
 C #1 z    0.000000    0.000000  121.547645

 O #2 x  -20.640222    0.000000    0.000000   20.640222
 O #2 y    0.000000  -20.640222    0.000000    0.000000   20.640222
 O #2 z    0.000000    0.000000 -121.547645    0.000000    0.000000  121.547645




                           Total dipole moment
                           -------------------

                               au             Debye

                    z     -0.32842093     -0.83476288

  Conversion factor used: 1 a.u. =   2.54174691 Debye 



                     Total dipole moment derivatives
                     -------------------------------


           Symmetry 1
                              Ez

               C #1 z     0.61038654
               O #2 z    -0.61038654

           Symmetry 2
                              Ex

               C #1 x    -0.19646231
               O #2 x     0.19646231

           Symmetry 3
                              Ey

               C #1 y    -0.19646231
               O #2 y     0.19646231



                       Ex          Ey          Ez

      C #1    x   -0.196462    0.000000    0.000000
      C #1    y    0.000000   -0.196462    0.000000
      C #1    z    0.000000    0.000000    0.610387

      O #2    x    0.196462    0.000000    0.000000
      O #2    y    0.000000    0.196462    0.000000
      O #2    z    0.000000    0.000000   -0.610387

 @CHECKOUT-I, Total execution time (CPU/WALL):      711.62/     120.51 seconds.
--executable xvdint finished with status     0 in      120.53 seconds (walltime).
 --invoking executable--
/nfs/workspaces/public/cfour_mpi/bin/xjoda
  @GTFLGS-I, Hessian will be transformed to curvilinear coordinates.
  @GTFLGS-I, Hessian will be transformed to curvilinear coordinates.
  igrd and ihes are                      0                     1
  gradient from JOBARC 
   0.000000000000000   0.000000000000000  -1.160618237843778
   0.000000000000000   0.000000000000000   1.160618237843778
 
  @PROJFCM-I, Projecting force constant matrix onto totally symmetric subspace.
  Largest difference between matrix elements of symmetrized
  and unsymmetrized FCM :    -0.3127844650E-09.
  read isotopes from ZMAT file 
 
  Summary of diagonal Born-Oppenheimer correction at the correlated level
  The total diagonal Born-Oppenheimer correction (DBOC) is:      0.0040417481 a.u.
  The total diagonal Born-Oppenheimer correction (DBOC) is:        887.061174 cm-1
  The total diagonal Born-Oppenheimer correction (DBOC) is:            10.612 kJ/mole
  hellooooooo 
  readis is  F
 
 @CHECKOUT-I, Total execution time (CPU/WALL):        0.01/       0.04 seconds.
--executable xjoda finished with status     0 in        0.06 seconds (walltime).
  The final electronic energy is      -113.081620680273133 a.u. 
  This computation required                         2688.22 seconds (walltime).
