 --invoking executable--
/nfs/workspaces/public/cfour_mpi/bin/xjoda


   *************************************************************************
         <<<     CCCCCC     CCCCCC   |||     CCCCCC     CCCCCC   >>>
       <<<      CCC        CCC       |||    CCC        CCC         >>>
      <<<      CCC        CCC        |||   CCC        CCC            >>>
    <<<        CCC        CCC        |||   CCC        CCC              >>>
      <<<      CCC        CCC        |||   CCC        CCC            >>>
       <<<      CCC        CCC       |||    CCC        CCC         >>>
         <<<     CCCCCC     CCCCCC   |||     CCCCCC     CCCCCC   >>>
   *************************************************************************

     ****************************************************************
     * CFOUR Coupled-Cluster techniques for Computational Chemistry *
     ****************************************************************
 

   Department of Chemistry                Institut fuer Physikalische Chemie
   University of Florida                  Universitaet Mainz
   Gainesville, FL 32611, USA             D-55099 Mainz, Germany

   Department of Chemistry                Fakultaet fuer Chemie und Biowiss.
   Johns Hopkins University               Karlsruher Institut fuer Technologie
   Baltimore, MD 21218, USA               D-76131 Karlsruhe, Germany

   Department of Chemistry                Department of Physical Chemistry
   Southern Methodist University          Eotvos Lorand University
   Dallas, TX 75275, USA                  H-1053 Budapest, Hungary

 
                       Version 2.1
 
                     vincent.theory.phys.ucl.ac.uk                     
                     Thu 27 Feb 04:34:22 GMT 2025                      
                     integer*8 version is running
 
********************************************************************************
*                          Input from ZMAT file                                *
********************************************************************************
Carbon Monoxide DBOC calculation                                                
C                                                                               
O 1 r                                                                           
                                                                                
r=1.1793103448275861                                                            
                                                                                
                                                                                
*CFOUR(CALC=CCSD,BASIS=AUG-PCVQZ,SCF_CONV=10                                    
CC_CONV=14,DBOC=ON,MEMORY=500000000                                             
ZFIELD=200)                                                                     
                                                                                
%isotopes                                                                       
13                                                                              
16                                                                              
********************************************************************************
  @GTFLGS-I, Hessian will be transformed to curvilinear coordinates.
    -------------------------------------------------------------------
                    CFOUR Control Parameters 
    -------------------------------------------------------------------
        External           Internal           Value            Units
          Name               Name
    -------------------------------------------------------------------
       ABCDTYPE             IABCDT         STANDARD    [  0]    ***   
       ANHARMONIC           IANHAR         OFF         [  0]    ***   
       ANH_ALGORIT          IANALG         STANDARD    [  0]    ***   
       ANH_DERIVAT          IANDER         SECOND      [  1]    ***   
       ANH_MODE             ANHMOD         VIBRATION   [  0]    ***   
       ANH_STEPSIZ          ICUBST             50000          x 10-6  
       ANH_SYMMETR          IANHSM         ABELIAN     [  0]    ***   
       AO_LADDERS           IAOLAD         SINGLEPASS  [  1]    ***   
       AV_SCF               IAVSCF         OFF         [  0]    ***   
       BASIS                IBASIS         AUG-PCVQZ   [ 52]    ***   
       BOTHVECTORS          BOTHVC         OFF         [  0]    ***   
       BOX_POTENT           IPIAB          OFF         [  0]    ***   
       BREIT                IBREIT         OFF         [  0]    ***   
       BRUCK_CONV           IBRTOL          10D-  4             ***   
       BRUECKNER            IBRKNR         OFF         [  0]    ***   
       BUFFERSIZE           IBUFFS              4096            ***   
       CACHE_RECS           ICHREC             10               ***   
       CALCLEVEL            ICLLVL         CCSD        [ 10]    ***   
       CCORBOPT             ICCORB         OFF         [  0]  x 0.01  
       CC_CONV              ICCCNV          10D- 14             ***   
       CC_EXPORDER          ICCEOR              5               ***   
       CC_EXTRAPOL          ICCEXT         DIIS        [  1]    ***   
       CC_GUESS             ICCGES         MP2         [  0]    ***   
       CC_MAXCYC            ICCCYC            100              cycles 
       CC_PROGRAM           ICCPRO         VCC         [  0]    ***   
       CHARGE               ICHRGE              0               ***   
       CHOLESKY             ICHOLE         OFF         [  0]    ***   
       CIS_CONV             ICISTL              5               ***   
       COMM_SIZE            IPSIZE            ***               ***   
       CONSTANT             ICONST         OLD         [  1]    ***   
       CONTINUUM            ICONTU         NONE        [  0]    ***   
       CONTRACTION          ICNTYP         GENERAL     [  1]    ***   
       COORDINATES          ICOORD         INTERNAL    [  0]    ***   
       CPHF_CONVER          ICPHFT          10D- 16             ***   
       CPHF_MAXCYC          ICPHFC             64              cycles 
       CUBIC                ICUBIC         OFF         [  0]    ***   
       CURVILINEAR          ICURVY         ON          [  1]    ***   
       DBOC                 IDBOC          ON          [  1]    ***   
       DCT                  IDCT           OFF         [  0]    ***   
       DERIV_LEV            IDRLVL         SECOND      [  2]    ***   
       DEVMEM_SIZE          IDVMEM          50000000           MByte  
       DIAG_MRCC            IEOMST          10D-  0             ***   
       DIFF_TYPE            IDIFTY         RELAXED     [  0]    ***   
       DIRECT               IDIRCT         OFF         [  0]    ***   
       DROPMO               IDRPMO      NONE         
       ECP                  IECP           OFF         [  0]    ***   
       EIGENVECTOR          IVEC                1               ***   
       EL_ANHARM            IELANH         OFF         [  0]    ***   
       EOMFOLLOW            IEOMSR         ENERGY      [  0]    ***   
       EOMIP                IEOMIP         OFF         [  0]    ***   
       EOMLEVEL             HBARFM         SAME        [  0]    ***   
       EOM_MRCC             IMRCCE         NEW         [  1]    ***   
       EOM_NONIT            EOMNON         OFF         [  0]    ***   
       EOM_NSING            IEOMSI          10D-  0             ***   
       EOM_NSTATES          IMRCCD         DAVIDSON    [  0]    ***   
       EOM_NTRIP            IEOMTR          10D-  0             ***   
       EOM_ORDER            IEXORD         ENERGY      [  0]    ***   
       EOM_PROPSTA          IEOMST              0               ***   
       ESTATE_CONV          IEXTOL          10D-  5             ***   
       ESTATE_DIAG          IEXDIG         ITERATIVE   [  0]    ***   
       ESTATE_LOCK          IESLOC         ON          [  1]    ***   
       ESTATE_MAXC          IEXMXC             40               ***   
       ESTATE_PROP          IEXPRP         OFF         [  0]    ***   
       EVAL_HESS            IRECAL              0            # of cyc.
       EXCITATION           IEXCIT              0               ***   
       EXCITE               IEXCIT         NONE        [  0]    ***   
       EXTERN_POT           IEXPOT         OFF         [  0]    ***   
       FCGRADNEW            IFCGNW         OFF         [  0]    ***   
       FC_FIELD             IFINFC              0             x 10-6  
       FD_CALTYPE           IFDCAL         GRADONLY    [  0]    ***   
       FD_PROJECT           IFDPRJ         OFF         [  1]    ***   
       FD_STEPSIZE          IDISFD              0            10-4 bohr
       FD_USEGROUP          IFDGRP         FULL        [  0]    ***   
       FILE_RECSIZ          IFLREC              4096           words  
       FINITE_PERT          IFIPER              0             x 10-6  
       FIXGEOM              IFIXGM         OFF         [  0]    ***   
       FOCK                 IFOCK          AO          [  1]    ***   
       FREQ_ALGORI          IVIALG         STANDARD    [  0]    ***   
       FROZEN_CORE          IFROCO         OFF         [  0]    ***   
       GAMMA_ABCD           IGABCD         STORE       [  0]    ***   
       GAMMA_ABCI           IGABCI         STORE       [  0]    ***   
       GENBAS_1             IGNBS1              0               ***   
       GENBAS_2             IGNBS2              0               ***   
       GENBAS_3             IGNBS3              0               ***   
       GENBAS_4             IGNBS4              0               ***   
       GEO_CONV             ICONTL              5              H/bohr 
       GEO_MAXCYC           IOPTCY             50               ***   
       GEO_MAXSTEP          IMXSTP            300            millibohr
       GEO_METHOD           INR            SINGLE_POINT[  5]    ***   
       GIAO                 IGIAO          OFF         [  1]    ***   
       GIMIC                IGIMIC         OFF         [  0]    ***   
       GRID                 IGRID          OFF         [  0]    ***   
       GRID_ALGO            IGALGO         SERIAL      [  0]    ***   
       GUESS                IGUESS         MOREAD      [  0]    ***   
       HBAR                 IHBAR          OFF         [  0]    ***   
       HESS_TYPE            IHESTP         SCF         [  0]    ***   
       HF2_FILE             IHF2Fl         USE         [  1]    ***   
       HFSTABILITY          ISTABL         OFF         [  0]    ***   
       INCORE               INCORE         OFF         [  0]    ***   
       INPUT_MRCC           IMRCC          ON          [  1]    ***   
       INTEGRALS            INTTYP         VMOL        [  1]    ***   
       JODA_PRINT           IJPRNT              0               ***   
       KEYWORD_OUT          IDMPKW         NO          [  0]    ***   
       LINDEP_TOL           ILINDP              8               ***   
       LINEQ_CONV           IZTACN          10D-  7           cycles  
       LINEQ_EXPOR          ILMAXD              5               ***   
       LINEQ_MAXCY          ILMAXC            100               ***   
       LINEQ_TYPE           ILTYPE         DIIS        [  1]    ***   
       LOCK_ORBOCC          ILOCOC         OFF         [  0]    ***   
       MEMORY_SIZE          IMEMSZ         500000000           words  
       MEM_UNIT             IMEMU          INTEGERWORDS[  0]    ***   
       MRCC                 IMRCCC         OFF         [  0]    ***   
       MULTIPLICTY          IMULTP              1               ***   
       NACOUPLING           IVCOUP         OFF         [  0]    ***   
       NEGEVAL              IDIE           ABORT       [  0]    ***   
       NEWNORM              INEWNO         OFF         [  0]    ***   
       NON-HF               INONHF         OFF         [  0]    ***   
       NTOP_TAMP            ITOPT2             15               ***   
       NUC_MODEL            INUCMO         POINT       [  0]    ***   
       OCCUPATION           IOCCU   ESTIMATED BY SCF 
       OPEN-SHELL           IOPEN          SPIN-ORBITAL[  0]    ***   
       OPTVIB               IOPTVB         OFF         [  0]    ***   
       ORBITALS             IORBTP         STANDARD    [  0]    ***   
       PARALLEL             IPARAL         ON          [  1]    ***   
       PARA_INT             IPINTS         ON          [  1]    ***   
       PARA_PRINT           IPPRIN              0               ***   
       PERT_ORB             IPTORB         STANDARD    [  0]    ***   
       POINTS               IGRDFD              0               ***   
       PRINT                IPRNT               0               ***   
       PROPS                IPROPS         OFF         [  0]    ***   
       PROP_INTEGR          IINTYP         INTERNAL    [  0]    ***   
       PSI                  IPSI           OFF         [  0]    ***   
       QC_ALG               IQCALG         FLM         [  0]    ***   
       QC_LINALG            IQCLIN         TRIDIAG     [  2]    ***   
       QC_MAXCYC            IQCMAX          10D-100           cycles  
       QC_MAXSCFCY          IQCMSC          10D- 15           cycles  
       QC_RTRUST            IQCRTR          10D-  0           x 10-3  
       QC_SKIPSCF           IQCSKI         OFF         [  0]    ***   
       QC_START             IQCSTA          10D-  1             ***   
       QRHFGUESS            IQGUES         OFF         [  0]    ***   
       QUARTIC              IQUART         OFF         [  0]    ***   
       RAMAN_INT            IRAMIN         OFF         [  0]    ***   
       RAMAN_ORB            IRAMRE         UNRELAXED   [  0]    ***   
       RDO                  IRDOFM         ON          [  1]    ***   
       REDUCE_REPR          REDREP         Ir          [  0]    ***   
       REFERENCE            IREFNC         RHF         [  0]    ***   
       RELATIVIST           IRELAT         OFF         [  0]    ***   
       RELAX_DENS           IRDENS         ON          [  1]    ***   
       RESET_FLAGS          IRESET         OFF         [  0]    ***   
       RESTART_CC           ICCRES         OFF         [  0]    ***   
       ROT_EVEC             ROTVEC              0               ***   
       SAVE_INTS            ISVINT         OFF         [  0]    ***   
       SCALE_ON             ISTCRT              0               ***   
       SCF_CONV             ISCFCV          10D- 10             ***   
       SCF_DAMPING          IDAMP               0             x 10-3  
       SCF_EXPORDE          IRPPOR              6               ***   
       SCF_EXPSTAR          IRPPLS              8               ***   
       SCF_EXTRAPO          IRPP           ON          [  1]    ***   
       SCF_MAXCYC           ISCFCY            150              cycles 
       SCF_NOSTOP           ISCFST         OFF         [  0]    ***   
       SCF_PRINT            ISCFPR              0               ***   
       SCF_PROG             ISCFPR         SCF         [  0]    ***   
       SD_FIELD             IFINSD              0             x 10-6  
       SOPERT               IPERSO         OFF         [  0]    ***   
       SPHERICAL            IDFGHI         ON          [  1]    ***   
       SPINORBIT            ISOCAL         OFF         [  0]    ***   
       SPINROTATIO          ISRCON         OFF         [  0]    ***   
       SPIN_FLIP            ISPFLP         OFF         [  0]    ***   
       SPIN_ORBIT           ISPORB         OFF         [  0]    ***   
       SPIN_SCAL            ISCSMP         OFF         [  0]    ***   
       STEEPSCALE           ISTPSC              1000          x 10-3  
       SUBGROUP             ISUBGP         DEFAULT     [  0]    ***   
       SUBGRPAXIS           ISBXYZ         X           [  0]    ***   
       SYMMETRY             ISYM           ON          [  0]    ***   
       SYM_CHECK            ISYMCK         OVERRIDE    [  1]    ***   
       T3_EXTRAPOL          IT3EXT         OFF         [  0]    ***   
       T4_EXTRAPOL          IT4EXP         OFF         [  0]    ***   
       TAMP_SUM             IEVERY              5               ***   
       TESTSUITE            ITESTS         OFF         [  0]    ***   
       THERMOCH             ITHERM         OFF         [  0]    ***   
       TOL_CHOLESK          ITOLCH          10D-  4             ***   
       TRANGRAD             IRESRM         OFF         [  0]    ***   
       TRANS_INV            ITRAIN         IGNORE      [  1]    ***   
       TREAT_PERT           ITREAT         SIMULTANEOUS[  0]    ***   
       TRIP_ALGORI          ITRALG         NORMAL      [  0]    ***   
       UIJ_THRESHO          IUIJTH              1               ***   
       UNITS                IUNITS         ANGSTROM    [  0]    ***   
       UNOS                 IUNOS          OFF         [  0]    ***   
       UPDATE_HESS          IHUPDT         ON          [  1]    ***   
       VIBPHASE             ISETPH         STANDARD    [  0]    ***   
       VIBRATION            IVIB           ANALYTIC    [  1]    ***   
       VIB_ALGORIT          IGEALG         STANDARD    [  0]    ***   
       VNATORB              IVNORB         OFF         [  0]    ***   
       VTRAN                IVTRAN         FULL/PARTIAL[  0]    ***   
       XFIELD               IXEFLD              0             x 10-6  
       XFORM_TOL            IXFTOL          10D- 11             ***   
       YFIELD               IYEFLD              0             x 10-6  
       ZFIELD               IZEFLD            200             x 10-6  
       ZSCALE_EXP           IZEXPS         OFF         [  0]    ***   
    -------------------------------------------------------------------
   2 entries found in Z-matrix 
   Job Title : Carbon Monoxide DBOC calculation                                                
   There are  1 unique internal coordinates.
   Of these,  0 will be optimized.
   User supplied Z-matrix: 
--------------------------------------------------------------------------------
       SYMBOL    BOND      LENGTH    ANGLE     ANGLE     DIHED     ANGLE
                  TO      (ANGST)    WRT      (DEG)      WRT      (DEG)
--------------------------------------------------------------------------------
        C    
        O          1         r    
                  *Initial values for internal coordinates* 
                      Name             Value
                        r               1.1793103448
--------------------------------------------------------------------------------
  read isotopes from ZMAT file 
   Rotational constants (in cm-1): 
          1.6899547651             1.6899547651
   Rotational constants (in MHz): 
      50663.5763917153         50663.5763917153
********************************************************************************
   The full molecular point group is CXv .
   The largest Abelian subgroup of the full molecular point group is C2v .
   The computational point group is C2v .
********************************************************************************
--------------------------------------------------------------------------------
   Analysis of internal coordinates specified by Z-matrix 
--------------------------------------------------------------------------------
   *The nuclear repulsion energy is   21.538436350877191 a.u.
   *There is   1 degree of freedom within the tot. symm. molecular subspace.
   *Z-matrix requests optimization of   0 coordinates.
   *The optimization is constrained.
   *The following   1 parameters can have non-zero 
    derivatives within the totally symmetric subspace:
             r    [ 1]
   *The following   0 parameters are to be optimized:

   *The following coordinates must be varied in an  unconstrained optimization.
             r    [ 1]
--------------------------------------------------------------------------------


 ----------------------------------------------------------------
         Coordinates used in calculation (QCOMP) 
 ----------------------------------------------------------------
 Z-matrix   Atomic            Coordinates (in bohr)
  Symbol    Number           X              Y              Z
 ----------------------------------------------------------------
     C         6        -0.00000000     0.00000000     1.22924064
     O         8         0.00000000     0.00000000    -0.99933339
 ----------------------------------------------------------------
 
   Interatomic distance matrix (Angstroms) 
 
                 C             O    
                [ 1]        [ 2]
  C    [ 1]     0.00000
  O    [ 2]     1.17931     0.00000
 rotcon2
   Rotational constants (in cm-1): 
          1.6899547651             0.0000000000
   Rotational constants (in MHz): 
      50663.5763917153             0.0000000000
  ECPDATA file not present.   Using default ECPDATA. 
  @GTFLGS-I, Hessian will be transformed to curvilinear coordinates.
  There are  218 basis functions.
 @CHECKOUT-I, Total execution time (CPU/WALL):        0.12/       0.17 seconds.
--executable xjoda finished with status     0 in        0.18 seconds (walltime).
 --invoking executable--
/nfs/workspaces/public/cfour_mpi/bin/xvmol
 SERIAL VERSION OF MOLECULE STARTED
********************************************************************************
                    INPUT FROM MOL FILE
********************************************************************************
INTGRL        1    0    1    0    0    0    0    0    0                         
         *** CFOUR Program System (Release V0.1) ***                            
Carbon Monoxide DBOC calculation                                                
    2    2 X  Y       0.10E-08              0    0                              
   9999.00      3.00                                                            
          6.00000000    1    5    1    1    1    1    1                         
C #1  -0.000000000000000   0.000000000000000   1.229240644378527                
   16    9                                                                      
   33980.0000000000       9.100000000000000E-005 -1.900000000000000E-005        
  0.000000000000000E+000  0.000000000000000E+000  0.000000000000000E+000        
  0.000000000000000E+000  0.000000000000000E+000  0.000000000000000E+000        
  0.000000000000000E+000                                                        
   5089.00000000000       7.040000000000000E-004 -1.510000000000000E-004        
  0.000000000000000E+000  0.000000000000000E+000  0.000000000000000E+000        
  0.000000000000000E+000  0.000000000000000E+000  0.000000000000000E+000        
  0.000000000000000E+000                                                        
   1157.00000000000       3.693000000000000E-003 -7.850000000000000E-004        
  0.000000000000000E+000  0.000000000000000E+000  0.000000000000000E+000        
  0.000000000000000E+000  0.000000000000000E+000  0.000000000000000E+000        
  0.000000000000000E+000                                                        
   326.600000000000       1.536000000000000E-002 -3.324000000000000E-003        
  0.000000000000000E+000  0.000000000000000E+000  0.000000000000000E+000        
  0.000000000000000E+000  0.000000000000000E+000  0.000000000000000E+000        
  0.000000000000000E+000                                                        
   106.100000000000       5.292900000000000E-002 -1.151200000000000E-002        
  0.000000000000000E+000  0.000000000000000E+000  0.000000000000000E+000        
  0.000000000000000E+000  0.000000000000000E+000  0.000000000000000E+000        
  0.000000000000000E+000                                                        
   38.1100000000000       0.147043000000000      -3.416000000000000E-002        
  0.000000000000000E+000  0.000000000000000E+000  0.000000000000000E+000        
  0.000000000000000E+000  0.000000000000000E+000  0.000000000000000E+000        
  0.000000000000000E+000                                                        
   14.7500000000000       0.305631000000000      -7.717300000000001E-002        
  0.000000000000000E+000  0.000000000000000E+000  0.000000000000000E+000        
  0.000000000000000E+000  0.000000000000000E+000  0.000000000000000E+000        
  0.000000000000000E+000                                                        
   6.03500000000000       0.399345000000000      -0.141493000000000             
  0.000000000000000E+000  0.000000000000000E+000  0.000000000000000E+000        
  0.000000000000000E+000  0.000000000000000E+000  0.000000000000000E+000        
  0.000000000000000E+000                                                        
   2.53000000000000       0.217051000000000      -0.118019000000000             
  0.000000000000000E+000  0.000000000000000E+000  0.000000000000000E+000        
  0.000000000000000E+000  0.000000000000000E+000  0.000000000000000E+000        
  0.000000000000000E+000                                                        
  0.735500000000000       1.589400000000000E-002  0.273806000000000             
   1.00000000000000       0.000000000000000E+000  0.000000000000000E+000        
  0.000000000000000E+000  0.000000000000000E+000  0.000000000000000E+000        
  0.000000000000000E+000                                                        
  0.290500000000000      -3.084000000000000E-003  0.586510000000000             
  0.000000000000000E+000   1.00000000000000       0.000000000000000E+000        
  0.000000000000000E+000  0.000000000000000E+000  0.000000000000000E+000        
  0.000000000000000E+000                                                        
  0.111100000000000       9.779999999999999E-004  0.285430000000000             
  0.000000000000000E+000  0.000000000000000E+000   1.00000000000000             
  0.000000000000000E+000  0.000000000000000E+000  0.000000000000000E+000        
  0.000000000000000E+000                                                        
   7.21600000000000       0.000000000000000E+000  0.000000000000000E+000        
  0.000000000000000E+000  0.000000000000000E+000  0.000000000000000E+000        
   1.00000000000000       0.000000000000000E+000  0.000000000000000E+000        
  0.000000000000000E+000                                                        
   19.5700000000000       0.000000000000000E+000  0.000000000000000E+000        
  0.000000000000000E+000  0.000000000000000E+000  0.000000000000000E+000        
  0.000000000000000E+000   1.00000000000000       0.000000000000000E+000        
  0.000000000000000E+000                                                        
   53.0730000000000       0.000000000000000E+000  0.000000000000000E+000        
  0.000000000000000E+000  0.000000000000000E+000  0.000000000000000E+000        
  0.000000000000000E+000  0.000000000000000E+000   1.00000000000000             
  0.000000000000000E+000                                                        
  4.145000000000000E-002  0.000000000000000E+000  0.000000000000000E+000        
  0.000000000000000E+000  0.000000000000000E+000  0.000000000000000E+000        
  0.000000000000000E+000  0.000000000000000E+000  0.000000000000000E+000        
   1.00000000000000                                                             
   10    8                                                                      
   34.5100000000000       5.378000000000000E-003  0.000000000000000E+000        
  0.000000000000000E+000  0.000000000000000E+000  0.000000000000000E+000        
  0.000000000000000E+000  0.000000000000000E+000  0.000000000000000E+000        
   7.91500000000000       3.613200000000000E-002  0.000000000000000E+000        
  0.000000000000000E+000  0.000000000000000E+000  0.000000000000000E+000        
  0.000000000000000E+000  0.000000000000000E+000  0.000000000000000E+000        
   2.36800000000000       0.142493000000000       0.000000000000000E+000        
  0.000000000000000E+000  0.000000000000000E+000  0.000000000000000E+000        
  0.000000000000000E+000  0.000000000000000E+000  0.000000000000000E+000        
  0.813200000000000       0.342150000000000        1.00000000000000             
  0.000000000000000E+000  0.000000000000000E+000  0.000000000000000E+000        
  0.000000000000000E+000  0.000000000000000E+000  0.000000000000000E+000        
  0.289000000000000       0.463864000000000       0.000000000000000E+000        
   1.00000000000000       0.000000000000000E+000  0.000000000000000E+000        
  0.000000000000000E+000  0.000000000000000E+000  0.000000000000000E+000        
  0.100700000000000       0.250028000000000       0.000000000000000E+000        
  0.000000000000000E+000   1.00000000000000       0.000000000000000E+000        
  0.000000000000000E+000  0.000000000000000E+000  0.000000000000000E+000        
   8.18200000000000       0.000000000000000E+000  0.000000000000000E+000        
  0.000000000000000E+000  0.000000000000000E+000   1.00000000000000             
  0.000000000000000E+000  0.000000000000000E+000  0.000000000000000E+000        
   24.1860000000000       0.000000000000000E+000  0.000000000000000E+000        
  0.000000000000000E+000  0.000000000000000E+000  0.000000000000000E+000        
   1.00000000000000       0.000000000000000E+000  0.000000000000000E+000        
   71.4940000000000       0.000000000000000E+000  0.000000000000000E+000        
  0.000000000000000E+000  0.000000000000000E+000  0.000000000000000E+000        
  0.000000000000000E+000   1.00000000000000       0.000000000000000E+000        
  3.218000000000000E-002  0.000000000000000E+000  0.000000000000000E+000        
  0.000000000000000E+000  0.000000000000000E+000  0.000000000000000E+000        
  0.000000000000000E+000  0.000000000000000E+000   1.00000000000000             
    6    6                                                                      
   1.84800000000000        1.00000000000000       0.000000000000000E+000        
  0.000000000000000E+000  0.000000000000000E+000  0.000000000000000E+000        
  0.000000000000000E+000                                                        
  0.649000000000000       0.000000000000000E+000   1.00000000000000             
  0.000000000000000E+000  0.000000000000000E+000  0.000000000000000E+000        
  0.000000000000000E+000                                                        
  0.228000000000000       0.000000000000000E+000  0.000000000000000E+000        
   1.00000000000000       0.000000000000000E+000  0.000000000000000E+000        
  0.000000000000000E+000                                                        
   8.65600000000000       0.000000000000000E+000  0.000000000000000E+000        
  0.000000000000000E+000   1.00000000000000       0.000000000000000E+000        
  0.000000000000000E+000                                                        
   33.2130000000000       0.000000000000000E+000  0.000000000000000E+000        
  0.000000000000000E+000  0.000000000000000E+000   1.00000000000000             
  0.000000000000000E+000                                                        
  7.660000000000000E-002  0.000000000000000E+000  0.000000000000000E+000        
  0.000000000000000E+000  0.000000000000000E+000  0.000000000000000E+000        
   1.00000000000000                                                             
    4    4                                                                      
   1.41900000000000        1.00000000000000       0.000000000000000E+000        
  0.000000000000000E+000  0.000000000000000E+000                                
  0.485000000000000       0.000000000000000E+000   1.00000000000000             
  0.000000000000000E+000  0.000000000000000E+000                                
   24.6940000000000       0.000000000000000E+000  0.000000000000000E+000        
   1.00000000000000       0.000000000000000E+000                                
  0.187000000000000       0.000000000000000E+000  0.000000000000000E+000        
  0.000000000000000E+000   1.00000000000000                                     
    2    2                                                                      
   1.01100000000000        1.00000000000000       0.000000000000000E+000        
  0.424000000000000       0.000000000000000E+000   1.00000000000000             
          8.00000000    1    5    1    1    1    1    1                         
O #2   0.000000000000000   0.000000000000000  -0.999333390339881                
   16    9                                                                      
   61420.0000000000       9.000000000000001E-005 -2.000000000000000E-005        
  0.000000000000000E+000  0.000000000000000E+000  0.000000000000000E+000        
  0.000000000000000E+000  0.000000000000000E+000  0.000000000000000E+000        
  0.000000000000000E+000                                                        
   9199.00000000000       6.980000000000001E-004 -1.590000000000000E-004        
  0.000000000000000E+000  0.000000000000000E+000  0.000000000000000E+000        
  0.000000000000000E+000  0.000000000000000E+000  0.000000000000000E+000        
  0.000000000000000E+000                                                        
   2091.00000000000       3.664000000000000E-003 -8.290000000000000E-004        
  0.000000000000000E+000  0.000000000000000E+000  0.000000000000000E+000        
  0.000000000000000E+000  0.000000000000000E+000  0.000000000000000E+000        
  0.000000000000000E+000                                                        
   590.900000000000       1.521800000000000E-002 -3.508000000000000E-003        
  0.000000000000000E+000  0.000000000000000E+000  0.000000000000000E+000        
  0.000000000000000E+000  0.000000000000000E+000  0.000000000000000E+000        
  0.000000000000000E+000                                                        
   192.300000000000       5.242300000000000E-002 -1.215600000000000E-002        
  0.000000000000000E+000  0.000000000000000E+000  0.000000000000000E+000        
  0.000000000000000E+000  0.000000000000000E+000  0.000000000000000E+000        
  0.000000000000000E+000                                                        
   69.3200000000000       0.145921000000000      -3.626100000000000E-002        
  0.000000000000000E+000  0.000000000000000E+000  0.000000000000000E+000        
  0.000000000000000E+000  0.000000000000000E+000  0.000000000000000E+000        
  0.000000000000000E+000                                                        
   26.9700000000000       0.305258000000000      -8.299200000000000E-002        
  0.000000000000000E+000  0.000000000000000E+000  0.000000000000000E+000        
  0.000000000000000E+000  0.000000000000000E+000  0.000000000000000E+000        
  0.000000000000000E+000                                                        
   11.1000000000000       0.398508000000000      -0.152090000000000             
  0.000000000000000E+000  0.000000000000000E+000  0.000000000000000E+000        
  0.000000000000000E+000  0.000000000000000E+000  0.000000000000000E+000        
  0.000000000000000E+000                                                        
   4.68200000000000       0.216980000000000      -0.115331000000000             
  0.000000000000000E+000  0.000000000000000E+000  0.000000000000000E+000        
  0.000000000000000E+000  0.000000000000000E+000  0.000000000000000E+000        
  0.000000000000000E+000                                                        
   1.42800000000000       1.759400000000000E-002  0.288979000000000             
   1.00000000000000       0.000000000000000E+000  0.000000000000000E+000        
  0.000000000000000E+000  0.000000000000000E+000  0.000000000000000E+000        
  0.000000000000000E+000                                                        
  0.554700000000000      -2.502000000000000E-003  0.586128000000000             
  0.000000000000000E+000   1.00000000000000       0.000000000000000E+000        
  0.000000000000000E+000  0.000000000000000E+000  0.000000000000000E+000        
  0.000000000000000E+000                                                        
  0.206700000000000       9.540000000000000E-004  0.277624000000000             
  0.000000000000000E+000  0.000000000000000E+000   1.00000000000000             
  0.000000000000000E+000  0.000000000000000E+000  0.000000000000000E+000        
  0.000000000000000E+000                                                        
   12.9740000000000       0.000000000000000E+000  0.000000000000000E+000        
  0.000000000000000E+000  0.000000000000000E+000  0.000000000000000E+000        
   1.00000000000000       0.000000000000000E+000  0.000000000000000E+000        
  0.000000000000000E+000                                                        
   34.9000000000000       0.000000000000000E+000  0.000000000000000E+000        
  0.000000000000000E+000  0.000000000000000E+000  0.000000000000000E+000        
  0.000000000000000E+000   1.00000000000000       0.000000000000000E+000        
  0.000000000000000E+000                                                        
   93.8810000000000       0.000000000000000E+000  0.000000000000000E+000        
  0.000000000000000E+000  0.000000000000000E+000  0.000000000000000E+000        
  0.000000000000000E+000  0.000000000000000E+000   1.00000000000000             
  0.000000000000000E+000                                                        
  6.959000000000000E-002  0.000000000000000E+000  0.000000000000000E+000        
  0.000000000000000E+000  0.000000000000000E+000  0.000000000000000E+000        
  0.000000000000000E+000  0.000000000000000E+000  0.000000000000000E+000        
   1.00000000000000                                                             
   10    8                                                                      
   63.4200000000000       6.044000000000000E-003  0.000000000000000E+000        
  0.000000000000000E+000  0.000000000000000E+000  0.000000000000000E+000        
  0.000000000000000E+000  0.000000000000000E+000  0.000000000000000E+000        
   14.6600000000000       4.179900000000000E-002  0.000000000000000E+000        
  0.000000000000000E+000  0.000000000000000E+000  0.000000000000000E+000        
  0.000000000000000E+000  0.000000000000000E+000  0.000000000000000E+000        
   4.45900000000000       0.161143000000000       0.000000000000000E+000        
  0.000000000000000E+000  0.000000000000000E+000  0.000000000000000E+000        
  0.000000000000000E+000  0.000000000000000E+000  0.000000000000000E+000        
   1.53100000000000       0.356731000000000        1.00000000000000             
  0.000000000000000E+000  0.000000000000000E+000  0.000000000000000E+000        
  0.000000000000000E+000  0.000000000000000E+000  0.000000000000000E+000        
  0.530200000000000       0.448309000000000       0.000000000000000E+000        
   1.00000000000000       0.000000000000000E+000  0.000000000000000E+000        
  0.000000000000000E+000  0.000000000000000E+000  0.000000000000000E+000        
  0.175000000000000       0.244940000000000       0.000000000000000E+000        
  0.000000000000000E+000   1.00000000000000       0.000000000000000E+000        
  0.000000000000000E+000  0.000000000000000E+000  0.000000000000000E+000        
   14.4750000000000       0.000000000000000E+000  0.000000000000000E+000        
  0.000000000000000E+000  0.000000000000000E+000   1.00000000000000             
  0.000000000000000E+000  0.000000000000000E+000  0.000000000000000E+000        
   42.7300000000000       0.000000000000000E+000  0.000000000000000E+000        
  0.000000000000000E+000  0.000000000000000E+000  0.000000000000000E+000        
   1.00000000000000       0.000000000000000E+000  0.000000000000000E+000        
   126.140000000000       0.000000000000000E+000  0.000000000000000E+000        
  0.000000000000000E+000  0.000000000000000E+000  0.000000000000000E+000        
  0.000000000000000E+000   1.00000000000000       0.000000000000000E+000        
  5.348000000000000E-002  0.000000000000000E+000  0.000000000000000E+000        
  0.000000000000000E+000  0.000000000000000E+000  0.000000000000000E+000        
  0.000000000000000E+000  0.000000000000000E+000   1.00000000000000             
    6    6                                                                      
   3.77500000000000        1.00000000000000       0.000000000000000E+000        
  0.000000000000000E+000  0.000000000000000E+000  0.000000000000000E+000        
  0.000000000000000E+000                                                        
   1.30000000000000       0.000000000000000E+000   1.00000000000000             
  0.000000000000000E+000  0.000000000000000E+000  0.000000000000000E+000        
  0.000000000000000E+000                                                        
  0.444000000000000       0.000000000000000E+000  0.000000000000000E+000        
   1.00000000000000       0.000000000000000E+000  0.000000000000000E+000        
  0.000000000000000E+000                                                        
   14.9270000000000       0.000000000000000E+000  0.000000000000000E+000        
  0.000000000000000E+000   1.00000000000000       0.000000000000000E+000        
  0.000000000000000E+000                                                        
   57.5440000000000       0.000000000000000E+000  0.000000000000000E+000        
  0.000000000000000E+000  0.000000000000000E+000   1.00000000000000             
  0.000000000000000E+000                                                        
  0.154000000000000       0.000000000000000E+000  0.000000000000000E+000        
  0.000000000000000E+000  0.000000000000000E+000  0.000000000000000E+000        
   1.00000000000000                                                             
    4    4                                                                      
   2.66600000000000        1.00000000000000       0.000000000000000E+000        
  0.000000000000000E+000  0.000000000000000E+000                                
  0.859000000000000       0.000000000000000E+000   1.00000000000000             
  0.000000000000000E+000  0.000000000000000E+000                                
   26.4830000000000       0.000000000000000E+000  0.000000000000000E+000        
   1.00000000000000       0.000000000000000E+000                                
  0.324000000000000       0.000000000000000E+000  0.000000000000000E+000        
  0.000000000000000E+000   1.00000000000000                                     
    2    2                                                                      
   1.84600000000000        1.00000000000000       0.000000000000000E+000        
  0.714000000000000       0.000000000000000E+000   1.00000000000000             
FINISH                                                                          
 
********************************************************************************
 ONE- AND TWO-ELECTRON INTEGRALS OVER SYMMETRY-ADAPTED AOS ARE CALCULATED.

  SPHERICAL HARMONICS ARE USED.
  
  INTEGRALS LESS THAN  0.10E-13 ARE NEGLECTED.

  NUCLEAR REPULSION ENERGY :   21.5384363509 A.U.
  @MOLECU-I, ONE ELECTRON INTEGRALS (CPU/WALL):        0.06/       0.07 SECONDS.
  @TWOEL-I,    4573756 INTEGRALS OF SYMMETRY TYPE  I I I I
  @TWOEL-I,   19644968 INTEGRALS OF SYMMETRY TYPE  I J I J
  @TWOEL-I,   10351935 INTEGRALS OF SYMMETRY TYPE  I I J J
  @TWOEL-I,   14534383 INTEGRALS OF SYMMETRY TYPE  I J K L
  @TWOEL-I, TOTAL NUMBER OF 2-E INTEGRALS   49105042.
  @MOLECU-I, TWO ELECTRON INTEGRALS (CPU/WALL):      186.80/      26.65 SECONDS.
 @CHECKOUT-I, Total execution time (CPU/WALL):      186.87/      26.77 seconds.

Running with 14 threads/proc

--executable xvmol finished with status     0 in       26.78 seconds (walltime).
 --invoking executable--
/nfs/workspaces/public/cfour_mpi/bin/xvmol2ja
 @GETMEM-I,  Allocated    3814 MB of main memory.
 @CHECKOUT-I, Total execution time (CPU/WALL):        0.08/       0.04 seconds.
--executable xvmol2ja finished with status     0 in        0.05 seconds (walltime).
 --invoking executable--
/nfs/workspaces/public/cfour_mpi/bin/xvprop
 @GETMEM-I,  Allocated    3814 MB of main memory.
   Property integrals will be calculated.
    --------------------------------------------------------------
                                   Property evaluated at 
    Property type                X             Y             Z
    --------------------------------------------------------------
    Dipole moment               ----          ----          ----  
    Quadrupole moment           ----          ----          ----  
    Octopole moment             ----          ----          ----  
    Relativisitic corr.         ----          ----          ----  
    Second moment            0.0000000     0.0000000     0.0000000
    Electron density         0.0000000     0.0000000     1.2292406
    Electron density         0.0000000     0.0000000    -0.9993334
    Field gradient           0.0000000     0.0000000     1.2292406
    Field gradient           0.0000000     0.0000000    -0.9993334
    Potential                0.0000000     0.0000000     1.2292406
    Potential                0.0000000     0.0000000    -0.9993334
    --------------------------------------------------------------
 @CHECKOUT-I, Total execution time (CPU/WALL):        1.30/       1.31 seconds.
--executable xvprop finished with status     0 in        1.32 seconds (walltime).
 --invoking executable--
/nfs/workspaces/public/cfour_mpi/bin/xvscf
  There are  218 functions in the AO basis.

  There are 4 irreducible representations.

       Irrep        # of functions
         1                 86
         2                 52
         3                 52
         4                 28


  Parameters for SCF calculation: 
        SCF reference function:  RHF  
  Maximum number of iterations:  150
     Full symmetry point group: CXv 
     Computational point group: C2v 
        Initial density matrix: MOREAD                 
     SCF convergence tolerance: 10**(-10)
  DIIS convergence acceleration:  ON
          Latest start for DIIS:   8
                     DIIS order:   6

  Memory information:    2523578 words required.
  Fock matrices are constructed from AO integral file.
 @GETMEM-I,  Allocated      19 MB of main memory.
  Initialization and symmetry analysis required      0.001 seconds.

  Adding electric field perturbation to one-electron Hamiltonian.
  Field direction     : Z
  Field strength      :  0.0002000 a.u.

  @INITGES-I, Occupancies from core Hamiltonian:

          Alpha population by irrep:   5    1    1    0
           Beta population by irrep:   5    1    1    0


 total no. of electrons in initial guess :  0.000000000000000E+000
  --------------------------------------------------------------------
  Iteration         Total Energy            Largest Density Difference
  --------------------------------------------------------------------
       0            21.538560195528163              0.0000000000D+00
   current occupation vector 
     5  1  1  0
     5  1  1  0
       1           -92.156270281536862              0.1842253716D+02
   current occupation vector 
     5  1  1  0
     5  1  1  0
       2           -97.395428227051326              0.1841799328D+02
   current occupation vector 
     5  1  1  0
     5  1  1  0
       3          -103.470014560921996              0.1188347447D+02
   current occupation vector 
     5  1  1  0
     5  1  1  0
       4          -100.157296500103357              0.7409771176D+01
   current occupation vector 
     5  1  1  0
     5  1  1  0
       5          -102.907846558654981              0.6511402010D+01
   current occupation vector 
     5  1  1  0
     5  1  1  0
       6           -99.771714099145242              0.5854292616D+01
   current occupation vector 
     5  1  1  0
     5  1  1  0
       7          -102.855601344645166              0.5782904889D+01
   current occupation vector 
     5  1  1  0
     5  1  1  0
       8           -99.627887209819164              0.5774839576D+01
   current occupation vector 
     5  1  1  0
     5  1  1  0
       9          -110.416616712139643              0.4368000048D+01
   current occupation vector 
     5  1  1  0
     5  1  1  0
      10          -112.096748782761978              0.9854374337D+00
   current occupation vector 
     5  1  1  0
     5  1  1  0
      11          -112.748697038862275              0.5595990307D+00
   current occupation vector 
     5  1  1  0
     5  1  1  0
      12          -112.776460861389836              0.1339254795D+00
   current occupation vector 
     5  1  1  0
     5  1  1  0
      13          -112.777188440390745              0.3316789377D-01
   current occupation vector 
     5  1  1  0
     5  1  1  0
      14          -112.777313754510999              0.1622072101D-01
   current occupation vector 
     5  1  1  0
     5  1  1  0
      15          -112.777325932376385              0.6923109445D-02
   current occupation vector 
     5  1  1  0
     5  1  1  0
      16          -112.777326052538655              0.5802784066D-03
   current occupation vector 
     5  1  1  0
     5  1  1  0
      17          -112.777326056624133              0.7710325066D-04
   current occupation vector 
     5  1  1  0
     5  1  1  0
      18          -112.777326056739469              0.1658250577D-04
   current occupation vector 
     5  1  1  0
     5  1  1  0
      19          -112.777326056745324              0.3299497668D-05
   current occupation vector 
     5  1  1  0
     5  1  1  0
      20          -112.777326056743931              0.6225562361D-06
   current occupation vector 
     5  1  1  0
     5  1  1  0
      21          -112.777326056744698              0.7101274546D-07
   current occupation vector 
     5  1  1  0
     5  1  1  0
      22          -112.777326056744926              0.1643513725D-07
   current occupation vector 
     5  1  1  0
     5  1  1  0
      23          -112.777326056744471              0.9658936762D-08
   current occupation vector 
     5  1  1  0
     5  1  1  0
      24          -112.777326056744130              0.1821402335D-09
   current occupation vector 
     5  1  1  0
     5  1  1  0
      25          -112.777326056743561              0.3157731854D-09
   current occupation vector 
     5  1  1  0
     5  1  1  0
      26          -112.777326056744585              0.3185682829D-09
   current occupation vector 
     5  1  1  0
     5  1  1  0
      27          -112.777326056744982              0.1730314558D-08
   current occupation vector 
     5  1  1  0
     5  1  1  0
      28          -112.777326056744812              0.1083146906D-08
   current occupation vector 
     5  1  1  0
     5  1  1  0
      29          -112.777326056744357              0.7069014263D-09
   current occupation vector 
     5  1  1  0
     5  1  1  0
      30          -112.777326056743789              0.2585733849D-09
   current occupation vector 
     5  1  1  0
     5  1  1  0
      31          -112.777326056744499              0.3363003209D-09
   current occupation vector 
     5  1  1  0
     5  1  1  0
      32          -112.777326056744670              0.1972570995D-09
   current occupation vector 
     5  1  1  0
     5  1  1  0

  SCF has converged.

 Density matrix saved to file den.dat
 total electron number:   14.0000000000000     
     E(SCF)=      -112.777326056743760              0.9365397347D-10

  Eigenvector printing suppressed.

 @PUTMOS-I, Writing converged MOs to NEWMOS. 
 @PUTMOS-I, Symmetry   1 Full Blocks 21 Partial Blocksize   2
 @PUTMOS-I, Symmetry   2 Full Blocks 13 Partial Blocksize   0
 @PUTMOS-I, Symmetry   3 Full Blocks 13 Partial Blocksize   0
 @PUTMOS-I, Symmetry   4 Full Blocks  7 Partial Blocksize   0
 @PUTFOCK-I, Writing converged Fock matrix to NEWFOCK. 
 @PUTFOCK-I, Symmetry   1 Full Blocks 21 Partial Blocksize   2
 @PUTFOCK-I, Symmetry   2 Full Blocks 13 Partial Blocksize   0
 @PUTFOCK-I, Symmetry   3 Full Blocks 13 Partial Blocksize   0
 @PUTFOCK-I, Symmetry   4 Full Blocks  7 Partial Blocksize   0


 
  ORBITAL EIGENVALUES (ALPHA)  (1H = 27.2113834 eV)

       MO #        E(hartree)               E(eV)           FULLSYM    COMPSYM
       ----   --------------------   --------------------   -------   ---------
    1     1         -20.6664965679        -562.3639616443     SG+        A1 (1)
    2     2         -11.3831105527        -309.7501855344     SG+        A1 (1)
    3     3          -1.4870805566         -40.4655191730     SG+        A1 (1)
    4     4          -0.8004208752         -21.7805593166     SG+        A1 (1)
    5    87          -0.6189305145         -16.8419555276      PI        B1 (2)
    6   139          -0.6189305145         -16.8419555276      PI        B2 (3)
    7     5          -0.5599918550         -15.2381530668     SG+        A1 (1)
  +++++++++++++++++++++++++++++++++++++++++++++++++++++++++++++++++++++++++++++
    8     6           0.0605587395           1.6478870780     SG+        A1 (1)
    9    88           0.0611248077           1.6632905775      PI        B1 (2)
   10   140           0.0611248077           1.6632905775      PI        B2 (3)
   11     7           0.0746547660           2.0314594610     SG+        A1 (1)
   12   141           0.1284427608           3.4951052081      PI        B2 (3)
   13    89           0.1284427608           3.4951052081      PI        B1 (2)
   14     8           0.1560676510           4.2468166882     SG+        A1 (1)
   15    90           0.1660426791           4.5182510009      PI        B1 (2)
   16   142           0.1660426791           4.5182510009      PI        B2 (3)
   17   191           0.2279518006           6.2028838421      DE        A2 (4)
   18     9           0.2279518006           6.2028838421      DE        A1 (1)
   19    10           0.2282222991           6.2102444801     SG+        A1 (1)
   20    11           0.3009605972           8.1895541979     SG+        A1 (1)
   21    91           0.3159314597           8.5969320790      PI        B1 (2)
   22   143           0.3159314597           8.5969320790      PI        B2 (3)
   23    12           0.3901210129          10.6157324549     SG+        A1 (1)
   24   144           0.3952742462          10.7559590623      PI        B2 (3)
   25    92           0.3952742462          10.7559590624      PI        B1 (2)
   26    13           0.5083959463          13.8341570128     SG+        A1 (1)
   27    14           0.5376269740          14.6295737159      DE        A1 (1)
   28   192           0.5376269740          14.6295737159      DE        A2 (4)
   29    93           0.6241663385          16.9844295418      PI        B1 (2)
   30   145           0.6241663385          16.9844295418      PI        B2 (3)
   31    15           0.6277862469          17.0829322586     SG+        A1 (1)
   32    94           0.7478646757          20.3504324221      PH        B1 (2)
   33   146           0.7478646757          20.3504324221      PH        B2 (3)
   34   193           0.7666464210          20.8615096931      DE        A2 (4)
   35    16           0.7666464210          20.8615096931      DE        A1 (1)
   36    17           0.7784697491          21.1832388087     SG+        A1 (1)
   37    95           0.8174795153          22.2447485136      PI        B1 (2)
   38   147           0.8174795153          22.2447485136      PI        B2 (3)
   39    18           0.8673360267          23.6014131590     SG+        A1 (1)
   40   148           0.8850590276          24.0836805308      PI        B2 (3)
   41    96           0.8850590276          24.0836805308      PI        B1 (2)
   42    19           0.8854603261          24.0946004179     SG+        A1 (1)
   43    20           0.8881086824          24.1666658570      DE        A1 (1)
   44   194           0.8881086824          24.1666658570      DE        A2 (4)
   45   149           1.0658518599          29.0033036080      PI        B2 (3)
   46    97           1.0658518599          29.0033036080      PI        B1 (2)
   47    21           1.1628358751          31.6423728297     SG+        A1 (1)
   48   150           1.4436910335          39.2848302240      PH        B2 (3)
   49    98           1.4436910335          39.2848302240      PH        B1 (2)
   50    22           1.4553245401          39.6013940321     SG+        A1 (1)
   51    23           1.5257366464          41.5174048528      DE        A1 (1)
   52   195           1.5257366464          41.5174048528      DE        A2 (4)
   53   151           1.5610809176          42.4791713678      PI        B2 (3)
   54    99           1.5610809176          42.4791713678      PI        B1 (2)
   55    24           1.6669141428          45.3590398340     SG+        A1 (1)
   56   196           1.7619489296          47.9450678553      DE        A2 (4)
   57    25           1.7619489296          47.9450678553      DE        A1 (1)
   58   152           1.7661877853          48.0604129814      PI        B2 (3)
   59   100           1.7661877853          48.0604129814      PI        B1 (2)
   60    26           1.7883943556          48.6646844799     SG+        A1 (1)
   61   101           1.9923162104          54.2136802542      PI        B1 (2)
   62   153           1.9923162104          54.2136802542      PI        B2 (3)
   63   197           2.1022646586          57.2055296339      PI        A2 (4)
   64    27           2.1022646586          57.2055296339      PI        A1 (1)
   65    28           2.1048486502          57.2758436198     SG+        A1 (1)
   66   198           2.1859573001          59.4829221897      DE        A2 (4)
   67    29           2.1859573001          59.4829221897      DE        A1 (1)
   68   102           2.2476519219          61.1617181974      PH        B1 (2)
   69   154           2.2476519219          61.1617181974      PH        B2 (3)
   70    30           2.3115571632          62.9006682187     SG+        A1 (1)
   71   103           2.3146364953          62.9844611048      PI        B1 (2)
   72   155           2.3146364953          62.9844611048      PI        B2 (3)
   73   156           2.3446172889          63.8002799746      PH        B2 (3)
   74   104           2.3446172889          63.8002799746      PH        B1 (2)
   75    31           2.3565057839          64.1237823712      DE        A1 (1)
   76   199           2.3565057839          64.1237823712      DE        A2 (4)
   77    32           2.4812302402          67.5177073696     SG+        A1 (1)
   78   157           2.5861266574          70.3720839966      PI        B2 (3)
   79   105           2.5861266574          70.3720839967      PI        B1 (2)
   80   158           2.7871869997          75.8432140557      PI        B2 (3)
   81   106           2.7871869997          75.8432140557      PI        B1 (2)
   82    33           2.8711797576          78.1287731948     SG+        A1 (1)
   83   200           2.9659865430          80.7085969805      DE        A2 (4)
   84    34           2.9659865430          80.7085969806      DE        A1 (1)
   85    35           3.4815602463          94.7380706931     SG+        A1 (1)
   86   201           3.7153339424         101.0993763666      PI        A2 (4)
   87    36           3.7153339424         101.0993763666      PI        A1 (1)
   88   107           3.7311155329         101.5288152764      PI        B1 (2)
   89   159           3.7311155329         101.5288152764      PI        B2 (3)
   90    37           3.9286408968         106.9037536833     SG+        A1 (1)
   91   108           4.0865102984         111.1995984966      PH        B1 (2)
   92   160           4.0865102984         111.1995984966      PH        B2 (3)
   93    38           4.1812329662         113.7771333290      DE        A1 (1)
   94   202           4.1812329662         113.7771333290      DE        A2 (4)
   95   109           4.2061736885         114.4558048844      PI        B1 (2)
   96   161           4.2061736885         114.4558048844      PI        B2 (3)
   97   110           4.2309285841         115.1294198400      PH        B1 (2)
   98   162           4.2309285841         115.1294198400      PH        B2 (3)
   99    39           4.2564206594         115.8230944733     SG+        A1 (1)
  100   203           4.3596342466         118.6316789693      DE        A2 (4)
  101    40           4.3596342467         118.6316789694      DE        A1 (1)
  102    41           4.4603165000         121.3713823673     SG+        A1 (1)
  103   163           4.7869357830         130.2591449036      PI        B2 (3)
  104   111           4.7869357830         130.2591449037      PI        B1 (2)
  105   164           5.0506342121         137.4347439591      PI        B2 (3)
  106   112           5.0506342121         137.4347439592      PI        B1 (2)
  107    42           5.0834015499         138.3263885509     SG+        A1 (1)
  108   204           5.1165894484         139.2294771818      DE        A2 (4)
  109    43           5.1165894484         139.2294771819      DE        A1 (1)
  110    44           5.6686119324         154.2507726379     SG+        A1 (1)
  111   113           5.7568907141         156.6529604124      PI        B1 (2)
  112   165           5.7568907141         156.6529604126      PI        B2 (3)
  113    45           5.8933598654         160.3664748116      PI        A1 (1)
  114   205           5.8933598654         160.3664748116      PI        A2 (4)
  115   166           6.0892326869         165.6964452548      PH        B2 (3)
  116   114           6.0892326869         165.6964452548      PH        B1 (2)
  117    46           6.2380218942         169.7452054209     SG+        A1 (1)
  118   206           6.2878874788         171.1021169605      DE        A2 (4)
  119    47           6.2878874788         171.1021169605      DE        A1 (1)
  120   167           6.3134736991         171.7983534109      PI        B2 (3)
  121   115           6.3134736991         171.7983534109      PI        B1 (2)
  122   116           6.4341386733         175.0818142869      PH        B1 (2)
  123   168           6.4341386733         175.0818142869      PH        B2 (3)
  124   207           6.5686681825         178.7425483406      DE        A2 (4)
  125    48           6.5686681825         178.7425483408      DE        A1 (1)
  126    49           6.9267944915         188.4876606411     SG+        A1 (1)
  127    50           7.1630246728         194.9158106748      DE        A1 (1)
  128   208           7.1630246728         194.9158106749      DE        A2 (4)
  129   169           7.3748451784         200.6797396643      PI        B2 (3)
  130   117           7.3748451784         200.6797396643      PI        B1 (2)
  131    51           7.7159257506         209.9610138842     SG+        A1 (1)
  132    52           8.1561089397         221.9390074107     SG+        A1 (1)
  133   118           8.3298797693         226.6675520796      PI        B1 (2)
  134   170           8.3298797694         226.6675520797      PI        B2 (3)
  135   171          10.1196092910         275.3685682760      PI        B2 (3)
  136   119          10.1196092910         275.3685682760      PI        B1 (2)
  137    53          10.5681430958         287.5737936056     SG+        A1 (1)
  138   209          10.6046379581         288.5668692973      PI        A2 (4)
  139    54          10.6046379581         288.5668692973      PI        A1 (1)
  140   120          10.8501656832         295.2480183596      PH        B1 (2)
  141   172          10.8501656832         295.2480183596      PH        B2 (3)
  142    55          11.0757980386         301.3877868905     SG+        A1 (1)
  143   210          11.0928994353         301.8531395527      DE        A2 (4)
  144    56          11.0928994353         301.8531395527      DE        A1 (1)
  145   121          11.3394666786         308.5625753421      PI        B1 (2)
  146   173          11.3394666786         308.5625753421      PI        B2 (3)
  147    57          11.4851316916         312.5263218596     SG+        A1 (1)
  148   122          11.8552340259         322.5973183763      PH        B1 (2)
  149   174          11.8552340259         322.5973183763      PH        B2 (3)
  150    58          12.2410564842         333.0960812139      DE        A1 (1)
  151   211          12.2410564843         333.0960812144      DE        A2 (4)
  152   175          12.5838632751         342.4243282324      PI        B2 (3)
  153   123          12.5838632751         342.4243282324      PI        B1 (2)
  154   212          12.8459335875         349.5556239813      DE        A2 (4)
  155    59          12.8459335875         349.5556239813      DE        A1 (1)
  156    60          13.1470152190         357.7484716897     SG+        A1 (1)
  157   176          13.9122606103         378.5718574276      PI        B2 (3)
  158   124          13.9122606103         378.5718574276      PI        B1 (2)
  159    61          15.2717231767         415.5647145406     SG+        A1 (1)
  160    62          17.9813718489         489.2980034375     SG+        A1 (1)
  161   125          19.3105398774         525.4665042637      PI        B1 (2)
  162   177          19.3105398774         525.4665042643      PI        B2 (3)
  163    63          20.5660198728         559.6298517699     SG+        A1 (1)
  164   213          26.4884260136         720.7867159192      DE        A2 (4)
  165    64          26.4884260136         720.7867159193      DE        A1 (1)
  166   178          26.9345390928         732.9260699557      PI        B2 (3)
  167   126          26.9345390928         732.9260699557      PI        B1 (2)
  168    65          28.0106129111         762.2075271932     SG+        A1 (1)
  169   127          33.7767762185         919.1128076984      PI        B1 (2)
  170   179          33.7767762185         919.1128076985      PI        B2 (3)
  171    66          34.8808107254         949.1551139524     SG+        A1 (1)
  172    67          36.6188923710         996.4507199905     SG+        A1 (1)
  173   214          47.1105890177        1281.9442999597      DE        A2 (4)
  174    68          47.1105890177        1281.9442999597      DE        A1 (1)
  175   180          47.5903492838        1294.9992405015      PI        B2 (3)
  176   128          47.5903492838        1294.9992405016      PI        B1 (2)
  177    69          48.4421177426        1318.1770386020     SG+        A1 (1)
  178    70          64.1573134863        1745.8092551906     SG+        A1 (1)
  179   129          66.7709212969        1816.9291393821      PI        B1 (2)
  180   181          66.7709212969        1816.9291393825      PI        B2 (3)
  181    71          67.7478392361        1843.5124279746     SG+        A1 (1)
  182   130          98.6523777202        2684.4676734669      PH        B1 (2)
  183   182          98.6523777202        2684.4676734669      PH        B2 (3)
  184   215          98.6715417295        2684.9891526696      DE        A2 (4)
  185    72          98.6715417295        2684.9891526696      DE        A1 (1)
  186   183          98.7304611641        2686.5924319940      PI        B2 (3)
  187   131          98.7304611641        2686.5924319940      PI        B1 (2)
  188    73          98.7446866507        2686.9795271655     SG+        A1 (1)
  189   184         103.2829481356        2810.4719003991      PH        B2 (3)
  190   132         103.2829481356        2810.4719003991      PH        B1 (2)
  191   216         103.3267250251        2811.6631301253      DE        A2 (4)
  192    74         103.3267250253        2811.6631301306      DE        A1 (1)
  193   185         103.3563462304        2812.4691640974      PI        B2 (3)
  194   133         103.3563462304        2812.4691640974      PI        B1 (2)
  195    75         103.4040660840        2813.7676873295     SG+        A1 (1)
  196   217         115.1520518573        3133.4466323851      DE        A2 (4)
  197    76         115.1520518573        3133.4466323852      DE        A1 (1)
  198   186         115.3704467141        3139.3894585677      PI        B2 (3)
  199   134         115.3704467141        3139.3894585677      PI        B1 (2)
  200    77         115.9170476518        3154.2632262503     SG+        A1 (1)
  201   187         117.0287459454        3184.5140747421      PI        B2 (3)
  202   135         117.0287459454        3184.5140747423      PI        B1 (2)
  203    78         117.9119776967        3208.5480325560     SG+        A1 (1)
  204    79         122.7954404205        3341.4338090547     SG+        A1 (1)
  205   218         198.5709002370        5403.3888984323      DE        A2 (4)
  206    80         198.5709002370        5403.3888984324      DE        A1 (1)
  207   188         198.8291480045        5410.4161774451      PI        B2 (3)
  208   136         198.8291480045        5410.4161774453      PI        B1 (2)
  209    81         199.2542646276        5421.9841888668     SG+        A1 (1)
  210    82         216.6393362683        5895.0560387192     SG+        A1 (1)
  211   137         225.1917627101        6127.7793936276      PI        B1 (2)
  212   189         225.1917627102        6127.7793936279      PI        B2 (3)
  213    83         225.9932198569        6149.5881513268     SG+        A1 (1)
  214   190         395.4870599360       10761.7500176581      PI        B2 (3)
  215   138         395.4870599360       10761.7500176583      PI        B1 (2)
  216    84         396.2201748523       10781.6990887208     SG+        A1 (1)
  217    85         509.3573758174       13860.3188409858     SG+        A1 (1)
  218    86         895.4673870906       24366.9063923192     SG+        A1 (1)


  VSCF finished.

 @CHECKOUT-I, Total execution time (CPU/WALL):       57.59/      12.15 seconds.
--executable xvscf finished with status     0 in       12.16 seconds (walltime).
 --invoking executable--
/nfs/workspaces/public/cfour_mpi/bin/xvtran
 @GETMEM-I,  Allocated    3814 MB of main memory.
  Full RHF integral transformation
  Transformation of IIII integrals :
  1 pass through the AO integral file was required.
     4573756 AO integrals were read.
     8785054 MO integrals were written to HF2.
  Transformation of IIJJ integrals :
  1 pass through the AO integral file was required.
    10351935 AO integrals were read.
    14594349 MO integrals were written to HF2.
  Transformation of IJIJ integrals :
  1 pass through the AO integral file was required.
    19644968 AO integrals were read.
    27364507 MO integrals were written to HF2.
  Transformation of IJKL integrals :
  1 pass through the AO integral file was required.
    14534383 AO integrals were read.
    18491455 MO integrals were written to HF2.
  Summary of active molecular orbitals: 
------------------------------------------------------------------------
 
  Index      Eigenvalue    Symmetry    Index      Eigenvalue    Symmetry
------------------------------------------------------------------------
     1       -20.6664966        1       110         4.2061737        2
     2       -11.3831106        1       111         4.2309286        2
     3        -1.4870806        1       112         4.7869358        2
     4        -0.8004209        1       113         5.0506342        2
     5        -0.5599919        1       114         5.7568907        2
     6        -0.6189305        2       115         6.0892327        2
     7        -0.6189305        3       116         6.3134737        2
     8         0.0605587        1       117         6.4341387        2
     9         0.0746548        1       118         7.3748452        2
    10         0.1560677        1       119         8.3298798        2
    11         0.2279518        1       120        10.1196093        2
    12         0.2282223        1       121        10.8501657        2
    13         0.3009606        1       122        11.3394667        2
    14         0.3901210        1       123        11.8552340        2
    15         0.5083959        1       124        12.5838633        2
    16         0.5376270        1       125        13.9122606        2
    17         0.6277862        1       126        19.3105399        2
    18         0.7666464        1       127        26.9345391        2
    19         0.7784697        1       128        33.7767762        2
    20         0.8673360        1       129        47.5903493        2
    21         0.8854603        1       130        66.7709213        2
    22         0.8881087        1       131        98.6523777        2
    23         1.1628359        1       132        98.7304612        2
    24         1.4553245        1       133       103.2829481        2
    25         1.5257366        1       134       103.3563462        2
    26         1.6669141        1       135       115.3704467        2
    27         1.7619489        1       136       117.0287459        2
    28         1.7883944        1       137       198.8291480        2
    29         2.1022647        1       138       225.1917627        2
    30         2.1048487        1       139       395.4870599        2
    31         2.1859573        1       140         0.0611248        3
    32         2.3115572        1       141         0.1284428        3
    33         2.3565058        1       142         0.1660427        3
    34         2.4812302        1       143         0.3159315        3
    35         2.8711798        1       144         0.3952742        3
    36         2.9659865        1       145         0.6241663        3
    37         3.4815602        1       146         0.7478647        3
    38         3.7153339        1       147         0.8174795        3
    39         3.9286409        1       148         0.8850590        3
    40         4.1812330        1       149         1.0658519        3
    41         4.2564207        1       150         1.4436910        3
    42         4.3596342        1       151         1.5610809        3
    43         4.4603165        1       152         1.7661878        3
    44         5.0834015        1       153         1.9923162        3
    45         5.1165894        1       154         2.2476519        3
    46         5.6686119        1       155         2.3146365        3
    47         5.8933599        1       156         2.3446173        3
    48         6.2380219        1       157         2.5861267        3
    49         6.2878875        1       158         2.7871870        3
    50         6.5686682        1       159         3.7311155        3
    51         6.9267945        1       160         4.0865103        3
    52         7.1630247        1       161         4.2061737        3
    53         7.7159258        1       162         4.2309286        3
    54         8.1561089        1       163         4.7869358        3
    55        10.5681431        1       164         5.0506342        3
    56        10.6046380        1       165         5.7568907        3
    57        11.0757980        1       166         6.0892327        3
    58        11.0928994        1       167         6.3134737        3
    59        11.4851317        1       168         6.4341387        3
    60        12.2410565        1       169         7.3748452        3
    61        12.8459336        1       170         8.3298798        3
    62        13.1470152        1       171        10.1196093        3
    63        15.2717232        1       172        10.8501657        3
    64        17.9813718        1       173        11.3394667        3
    65        20.5660199        1       174        11.8552340        3
    66        26.4884260        1       175        12.5838633        3
    67        28.0106129        1       176        13.9122606        3
    68        34.8808107        1       177        19.3105399        3
    69        36.6188924        1       178        26.9345391        3
    70        47.1105890        1       179        33.7767762        3
    71        48.4421177        1       180        47.5903493        3
    72        64.1573135        1       181        66.7709213        3
    73        67.7478392        1       182        98.6523777        3
    74        98.6715417        1       183        98.7304612        3
    75        98.7446867        1       184       103.2829481        3
    76       103.3267250        1       185       103.3563462        3
    77       103.4040661        1       186       115.3704467        3
    78       115.1520519        1       187       117.0287459        3
    79       115.9170477        1       188       198.8291480        3
    80       117.9119777        1       189       225.1917627        3
    81       122.7954404        1       190       395.4870599        3
    82       198.5709002        1       191         0.2279518        4
    83       199.2542646        1       192         0.5376270        4
    84       216.6393363        1       193         0.7666464        4
    85       225.9932199        1       194         0.8881087        4
    86       396.2201749        1       195         1.5257366        4
    87       509.3573758        1       196         1.7619489        4
    88       895.4673871        1       197         2.1022647        4
    89         0.0611248        2       198         2.1859573        4
    90         0.1284428        2       199         2.3565058        4
    91         0.1660427        2       200         2.9659865        4
    92         0.3159315        2       201         3.7153339        4
    93         0.3952742        2       202         4.1812330        4
    94         0.6241663        2       203         4.3596342        4
    95         0.7478647        2       204         5.1165894        4
    96         0.8174795        2       205         5.8933599        4
    97         0.8850590        2       206         6.2878875        4
    98         1.0658519        2       207         6.5686682        4
    99         1.4436910        2       208         7.1630247        4
   100         1.5610809        2       209        10.6046380        4
   101         1.7661878        2       210        11.0928994        4
   102         1.9923162        2       211        12.2410565        4
   103         2.2476519        2       212        12.8459336        4
   104         2.3146365        2       213        26.4884260        4
   105         2.3446173        2       214        47.1105890        4
   106         2.5861267        2       215        98.6715417        4
   107         2.7871870        2       216       103.3267250        4
   108         3.7311155        2       217       115.1520519        4
   109         4.0865103        2       218       198.5709002        4
------------------------------------------------------------------------
  -20.6664965679145       -11.3831105527100       -1.48708055662349     
 -0.800420875206053      -0.559991854983128      -0.618930514485167     
 -0.618930514485158       6.055873947112169E-002  7.465476602634188E-002
  0.156067651017233       0.227951800572634       0.228222299057902     
  0.300960597172174       0.390121012918649       0.508395946263043     
  0.537626974006913       0.627786246936847       0.766646420965191     
  0.778469749121918       0.867336026693252       0.885460326059706     
  0.888108682374098        1.16283587513982        1.45532454010031     
   1.52573664640700        1.66691414277920        1.76194892962575     
   1.78839435557426        2.10226465861739        2.10484865020965     
   2.18595730012567        2.31155716319387        2.35650578394275     
   2.48123024019245        2.87117975761438        2.96598654299392     
[...]
 Convergence information after     9 iterations: 
 Largest element of residual vector : -0.11630573E-04.
 Largest element of DIIS residual   : -0.59486219E-05.
 Convergence information after    10 iterations: 
 Largest element of residual vector : -0.66635270E-05.
 Largest element of DIIS residual   : -0.45879755E-05.
 Convergence information after    11 iterations: 
 Largest element of residual vector : -0.28366234E-05.
 Largest element of DIIS residual   : -0.88022011E-06.
 Convergence information after    12 iterations: 
 Largest element of residual vector : -0.11939722E-05.
 Largest element of DIIS residual   :  0.47931439E-06.
 Convergence information after    13 iterations: 
 Largest element of residual vector :  0.38282750E-06.
 Largest element of DIIS residual   :  0.18741998E-06.
 Convergence information after    14 iterations: 
 Largest element of residual vector :  0.17015109E-06.
 Largest element of DIIS residual   :  0.79843221E-07.
 Perturbed amplitude equations converged in    14 iterations.
  Dominant contributions to perturbed wavefunction:
    7    7  141   28   0.2377049985 ABAB
    7    7   28  141   0.2377049985 ABAB
    7    7  141   37  -0.2019576411 ABAB
    7    7   37  141  -0.2019576411 ABAB
    7    7  141   39   0.1585157872 ABAB
    7    7   39  141   0.1585157872 ABAB
    7    7  141   55   0.1585022628 ABAB
    7    7   55  141   0.1585022628 ABAB
    7    6   28   90   0.1551655647 ABAB
    6    7   90   28   0.1551655647 ABAB
    7    7  141   53  -0.1479741766 ABAB
    7    7   53  141  -0.1479741766 ABAB
    7    7  141   44   0.1423064777 ABAB
    7    7   44  141   0.1423064777 ABAB
    7    7  140   28   0.1407420686 ABAB
    7    7   28  140   0.1407420686 ABAB
    5    5  141   44   0.1345873385 ABAB
    5    5   44  141   0.1345873385 ABAB
    7    6   37   90  -0.1321830483 ABAB
    6    7   90   37  -0.1321830483 ABAB
  norm of converged amps    2.32089763272135     
 Starting iterative solution of the perturbed Lambda equations.
 The DIIS procedure is used to accelerate convergence.
 Convergence criterion is 10**(-7).
 Maximum number of iterations is 100.
 Convergence information after     1 iterations: 
 Largest element of residual vector :  0.66385711E-01.
 Largest element of DIIS residual   :  0.66385711E-01.
 Convergence information after     2 iterations: 
 Largest element of residual vector : -0.85349907E-02.
 Largest element of DIIS residual   : -0.48843976E-02.
 Convergence information after     3 iterations: 
 Largest element of residual vector : -0.48682458E-02.
 Largest element of DIIS residual   : -0.42591184E-02.
 Convergence information after     4 iterations: 
 Largest element of residual vector : -0.30202121E-02.
 Largest element of DIIS residual   : -0.24305363E-02.
 Convergence information after     5 iterations: 
 Largest element of residual vector : -0.18451192E-02.
 Largest element of DIIS residual   : -0.89362761E-03.
 Convergence information after     6 iterations: 
 Largest element of residual vector : -0.61827808E-03.
 Largest element of DIIS residual   : -0.15620174E-03.
 Convergence information after     7 iterations: 
 Largest element of residual vector : -0.13567056E-03.
 Largest element of DIIS residual   :  0.53993683E-04.
 Convergence information after     8 iterations: 
 Largest element of residual vector :  0.30042545E-04.
 Largest element of DIIS residual   : -0.24503642E-04.
 Convergence information after     9 iterations: 
 Largest element of residual vector : -0.86441862E-05.
 Largest element of DIIS residual   : -0.57970634E-05.
 Convergence information after    10 iterations: 
 Largest element of residual vector : -0.52000900E-05.
 Largest element of DIIS residual   : -0.39568641E-05.
 Convergence information after    11 iterations: 
 Largest element of residual vector : -0.21544197E-05.
 Largest element of DIIS residual   : -0.82871140E-06.
 Convergence information after    12 iterations: 
 Largest element of residual vector : -0.10599876E-05.
 Largest element of DIIS residual   :  0.68542239E-06.
 Convergence information after    13 iterations: 
 Largest element of residual vector :  0.51991742E-06.
 Largest element of DIIS residual   :  0.34178880E-06.
 Convergence information after    14 iterations: 
 Largest element of residual vector :  0.28705891E-06.
 Largest element of DIIS residual   :  0.13875006E-06.
 Convergence information after    15 iterations: 
 Largest element of residual vector :  0.93341621E-07.
 Largest element of DIIS residual   :  0.43265337E-07.
 Perturbed Lambda equations converged in    15 iterations.
  Dominant contributions to perturbed wavefunction:
    7    7  141   28   0.2227277593 ABAB
    7    7   28  141   0.2227277593 ABAB
    7    7  141   37  -0.1905079474 ABAB
    7    7   37  141  -0.1905079474 ABAB
    7    7  141   39   0.1470665849 ABAB
    7    7   39  141   0.1470665849 ABAB
    7    7  141   55   0.1468370200 ABAB
    7    7   55  141   0.1468370200 ABAB
    7    6   28   90   0.1432284953 ABAB
    6    7   90   28   0.1432284953 ABAB
    7    7  141   53  -0.1378145079 ABAB
    7    7   53  141  -0.1378145079 ABAB
    7    7  140   28   0.1327180959 ABAB
    7    7   28  140   0.1327180959 ABAB
    7    7  141   44   0.1299230941 ABAB
    7    7   44  141   0.1299230941 ABAB
    5    5  141   44   0.1290607635 ABAB
    5    5   44  141   0.1290607635 ABAB
    7    7  141   19  -0.1236298960 ABAB
    7    7   19  141  -0.1236298960 ABAB
        The DBOC first-order density matrix is being calculated 
             (Symmetry block 3, perturbation   2)
 term   6.26733768379186     
 final tnorm  0.880858021375364     
  norm contr. I: |<0|L dT/dx|0>|^2   0.000000000000000E+000
  norm contr. II: <0|[nabla(1+L)e-T][nabla e^T]|0>   6.26733768379186     
  total norm contribution   6.26733768379186     
 oo  1.092835246284752E-002
 vv  -47.0373855842019     
 vo  5.178646409507631E-002
  Correlated perturbed 1-el contribution to DBOC  -46.9746707676439       cm**-1
  SUM_I |dc_I/dx|^2 contribution to DBOC   23.5947063910789       cm**-1
 
 
  The total diagonal Born-Oppenheimer correction (DBOC) is:      0.0040094112 a.u.
  The total diagonal Born-Oppenheimer correction (DBOC) is:        879.964037 cm-1
 
 Total CC energy including DBOC  -113.275155169619     
 First-order density matrix is being calculated  (Symmetry block 3, perturbation   2)
 Calculation of the contributions of <pq||rs> to dI(i,j)/dx required   1.4 seconds.
 Calculation of the contributions of <pq||rs> to dI(a,b)/dx required  13.1 seconds.
 Calculation of the contributions of <pq||rs> to dI(i,a)/dx required   8.8 seconds.
 First-order Z-vector equations are solved for 1 perturbation.
 Convergence reached after  18 iterations.
        U*G(pq,rs) contribution is being calculated
             (Symmetry block 3, perturbation   2)

 CCSD contribution to force constants 

        0.0000000000        0.0000000000        0.0000000000
        0.0000000000        0.0000000000        0.0000000000
        0.0000000000        0.0000000000        0.0000000000
        0.0000000000        0.0000000000        0.0000000000
        0.0000000000        0.0000000000        0.0000000000
        0.0000000000        0.0000000000        0.0000000000
        0.0000000000        0.0000000000        0.0000000000
        0.0000000000        0.0000000000        0.0000000000
        0.0000000000        0.0000000000        0.0000000000
        0.0000000000        0.0000000000        0.0000000000
        0.0000000000        0.0000000000        0.0000000000
        0.0000000000       -0.0350724170        0.0350724170

 CCSD contribution to dipole derivatives 

        0.0000000000        0.0000000000        0.0000000000
        0.0000000000        0.0000000000        0.0000000000
        0.0000000000        0.0000000000        0.0000000000
        0.0000000000        0.0000000000       -0.0466984638
        0.0000000000        0.0000000000        0.0000000000
        0.0000000000        0.0000000000        0.0000000000
 @CHECKOUT-I, Total execution time (CPU/WALL):      925.60/     191.87 seconds.
--executable xsdcc finished with status     0 in      191.91 seconds (walltime).
 --invoking executable--
/nfs/workspaces/public/cfour_mpi/bin/xanti
 @GETMEM-I,  Allocated    3814 MB of main memory.
 CCSD MO derivative gammas will be sorted to Mulliken order.
 @CHECKOUT-I, Total execution time (CPU/WALL):        8.66/      12.32 seconds.
--executable xanti finished with status     0 in       12.35 seconds (walltime).
 --invoking executable--
/nfs/workspaces/public/cfour_mpi/bin/xbcktrn
 @GETMEM-I,  Allocated    3814 MB of main memory.
 CCSD MO derivative gammas will be transformed to the AO basis.
 @CHECKOUT-I, Total execution time (CPU/WALL):       17.15/       3.38 seconds.
--executable xbcktrn finished with status     0 in        3.41 seconds (walltime).
 --invoking executable--
/nfs/workspaces/public/cfour_mpi/bin/xvdint
 @GETMEM-I,  Allocated    3814 MB of main memory.
 One- and two-electron integral derivatives are calculated
 for RHF-CC/MBPT hessians and dipole derivatives.
 Spherical gaussians are used.
  magnet F F
                    8722  records have been written to the Sort file.
  Total length of Sort file :             178609116  words.
 Evaluation of 2el integral derivatives

                      Two-electron integral gradient
                      ------------------------------

                         C #1 z     0.0000000000
                         O #2 z     0.0000000000


 C #1       0.0000000000           -0.4765867995            0.0000000000
 O #2       0.0000000000            0.4765867995            0.0000000000


 Evaluation of 2e integral derivatives required  268.62 seconds.
  contribution to Hessian
        0.0000000000        0.0000000000        0.0000000000
        0.0000000000       -0.4765867995        0.4765867995
 @CHECKOUT-I, Total execution time (CPU/WALL):      268.60/      59.59 seconds.
--executable xvdint finished with status     0 in       59.63 seconds (walltime).
 --invoking executable--
/nfs/workspaces/public/cfour_mpi/bin/xanti
 @GETMEM-I,  Allocated    3814 MB of main memory.
 CCSD MO gammas will be sorted to Mulliken order.
 @CHECKOUT-I, Total execution time (CPU/WALL):       10.43/       9.00 seconds.
--executable xanti finished with status     0 in        9.03 seconds (walltime).
 --invoking executable--
/nfs/workspaces/public/cfour_mpi/bin/xbcktrn
 @GETMEM-I,  Allocated    3814 MB of main memory.
 CCSD MO gammas will be transformed to the AO basis.
 @CHECKOUT-I, Total execution time (CPU/WALL):       22.86/       4.66 seconds.
--executable xbcktrn finished with status     0 in        4.68 seconds (walltime).
 --invoking executable--
/nfs/workspaces/public/cfour_mpi/bin/xvdint
 @GETMEM-I,  Allocated    3814 MB of main memory.
 One- and two-electron integral derivatives are calculated
 for RHF-CC/MBPT hessians and dipole derivatives.
 Spherical gaussians are used.
  magnet F F

                     Kinetic energy integral gradient
                     --------------------------------

                         C #1 z    -1.3530791470
                         O #2 z     1.3530791470


 C #1       0.0000000000            0.0000000000           -1.3530791470
 O #2       0.0000000000            0.0000000000            1.3530791470



                   Nuclear attraction integral gradient
                   ------------------------------------

                         C #1 z    22.3191211916
                         O #2 z   -22.3191211916


 C #1       0.0000000000            0.0000000000           22.3191211916
 O #2       0.0000000000            0.0000000000          -22.3191211916



                      Reorthonormalization gradient
                      -----------------------------

                         C #1 z     0.0000000000
                         O #2 z     0.0000000000


 C #1       0.0000000000            0.0000000000            0.0000000000
 O #2       0.0000000000            0.0000000000            0.0000000000



                     Kinetic energy integral Hessian
                     -------------------------------


           Symmetry 1

           C #1 z      O #2 z

 C #1 z    1.090612
 O #2 z   -1.090612    1.090612


           Symmetry 2

           C #1 x      O #2 x

 C #1 x   -1.669632
 O #2 x    1.669632   -1.669632


           Symmetry 3

           C #1 y      O #2 y

 C #1 y   -1.669632
 O #2 y    1.669632   -1.669632




           C #1 x      C #1 y      C #1 z      O #2 x      O #2 y      O #2 z

 C #1 x   -1.669632
 C #1 y    0.000000   -1.669632
 C #1 z    0.000000    0.000000    1.090612

 O #2 x    1.669632    0.000000    0.000000   -1.669632
 O #2 y    0.000000    1.669632    0.000000    0.000000   -1.669632
 O #2 z    0.000000    0.000000   -1.090612    0.000000    0.000000    1.090612




                   Nuclear attraction integral Hessian
                   -----------------------------------


           Symmetry 1

           C #1 z      O #2 z

 C #1 z  -13.020560
 O #2 z   13.020560  -13.020560


           Symmetry 2

           C #1 x      O #2 x

 C #1 x   18.702090
 O #2 x  -18.702090   18.702090


           Symmetry 3

           C #1 y      O #2 y

 C #1 y   18.702090
 O #2 y  -18.702090   18.702090




           C #1 x      C #1 y      C #1 z      O #2 x      O #2 y      O #2 z

 C #1 x   18.702090
 C #1 y    0.000000   18.702090
 C #1 z    0.000000    0.000000  -13.020560

 O #2 x  -18.702090    0.000000    0.000000   18.702090
 O #2 y    0.000000  -18.702090    0.000000    0.000000   18.702090
 O #2 z    0.000000    0.000000   13.020560    0.000000    0.000000  -13.020560




                Highest order reorthonormalization Hessian
                ------------------------------------------


           Symmetry 1

           C #1 z      O #2 z

 C #1 z    0.000000
 O #2 z    0.000000    0.000000


           Symmetry 2

           C #1 x      O #2 x

 C #1 x    0.000000
 O #2 x    0.000000    0.000000


           Symmetry 3

           C #1 y      O #2 y

 C #1 y    0.000000
 O #2 y    0.000000    0.000000




           C #1 x      C #1 y      C #1 z      O #2 x      O #2 y      O #2 z




                Electronic contributions to dipole moment
                -----------------------------------------

                               au             Debye

                    z      0.63742336      1.62016887

  Conversion factor used: 1 a.u. =   2.54174691 Debye 



   Electronic contributions to static part of dipole moment derivatives
   --------------------------------------------------------------------


                     Total dipole moment derivatives
                     -------------------------------


           Symmetry 1
                              Ez

               C #1 z    -5.72880570
               O #2 z    -8.27119430

           Symmetry 2
                              Ex

               C #1 x    -5.76625032
               O #2 x    -8.23374968

           Symmetry 3
                              Ey

               C #1 y    -5.76625032
               O #2 y    -8.23374968



                       Ex          Ey          Ez

      C #1    x   -5.766250    0.000000    0.000000
      C #1    y    0.000000   -5.766250    0.000000
      C #1    z    0.000000    0.000000   -5.728806

      O #2    x   -8.233750    0.000000    0.000000
      O #2    y    0.000000   -8.233750    0.000000
      O #2    z    0.000000    0.000000   -8.271194

 Evaluation of 1e integral derivatives required    1.63 seconds.
                    8815  records have been written to the Sort file.
  Total length of Sort file :             180513570  words.
 Evaluation of 2el integral derivatives

                      Two-electron integral gradient
                      ------------------------------

                         C #1 z   -10.7414288588
                         O #2 z    10.7414288588


 C #1       0.0000000000            0.0000000000          -10.7414288588
 O #2       0.0000000000            0.0000000000           10.7414288588


 Evaluation of 2e integral derivatives required  541.76 seconds.

                            Molecular gradient
                            ------------------

                         C #1 z     0.5599415100
                         O #2 z    -0.5599415100


 C #1       0.0000000000            0.0000000000            0.5599415100
 O #2       0.0000000000            0.0000000000           -0.5599415100


  Molecular gradient norm 0.792E+00

                            Molecular hessian
                            -----------------


           Symmetry 1

           C #1 z      O #2 z

 C #1 z   57.495563
 O #2 z  -57.495563   57.495563


           Symmetry 2

           C #1 x      O #2 x

 C #1 x    0.707314
 O #2 x   -0.707314    0.707314


           Symmetry 3

           C #1 y      O #2 y

 C #1 y    0.707314
 O #2 y   -0.707314    0.707314




           C #1 x      C #1 y      C #1 z      O #2 x      O #2 y      O #2 z

 C #1 x    0.707314
 C #1 y    0.000000    0.707314
 C #1 z    0.000000    0.000000   57.495563

 O #2 x   -0.707314    0.000000    0.000000    0.707314
 O #2 y    0.000000   -0.707314    0.000000    0.000000    0.707314
 O #2 z    0.000000    0.000000  -57.495563    0.000000    0.000000   57.495563




                           Total dipole moment
                           -------------------

                               au             Debye

                    z      0.01820011      0.04626007

  Conversion factor used: 1 a.u. =   2.54174691 Debye 



                     Total dipole moment derivatives
                     -------------------------------


           Symmetry 1
                              Ez

               C #1 z     0.71898443
               O #2 z    -0.71898443

           Symmetry 2
                              Ex

               C #1 x     0.00553360
               O #2 x    -0.00553360

           Symmetry 3
                              Ey

               C #1 y     0.00553360
               O #2 y    -0.00553360



                       Ex          Ey          Ez

      C #1    x    0.005534    0.000000    0.000000
      C #1    y    0.000000    0.005534    0.000000
      C #1    z    0.000000    0.000000    0.718984

      O #2    x   -0.005534    0.000000    0.000000
      O #2    y    0.000000   -0.005534    0.000000
      O #2    z    0.000000    0.000000   -0.718984

 @CHECKOUT-I, Total execution time (CPU/WALL):      543.37/      96.10 seconds.
--executable xvdint finished with status     0 in       96.13 seconds (walltime).
 --invoking executable--
/nfs/workspaces/public/cfour_mpi/bin/xjoda
  @GTFLGS-I, Hessian will be transformed to curvilinear coordinates.
  @GTFLGS-I, Hessian will be transformed to curvilinear coordinates.
  igrd and ihes are                      0                     1
  gradient from JOBARC 
   0.000000000000000   0.000000000000000   0.559941509960237
   0.000000000000000   0.000000000000000  -0.559941509960237
 
  @PROJFCM-I, Projecting force constant matrix onto totally symmetric subspace.
  Largest difference between matrix elements of symmetrized
  and unsymmetrized FCM :    -0.6552969278E-10.
  read isotopes from ZMAT file 
 
  Summary of diagonal Born-Oppenheimer correction at the correlated level
  The total diagonal Born-Oppenheimer correction (DBOC) is:      0.0040094112 a.u.
  The total diagonal Born-Oppenheimer correction (DBOC) is:        879.964037 cm-1
  The total diagonal Born-Oppenheimer correction (DBOC) is:            10.527 kJ/mole
  hellooooooo 
  readis is  F
 
 @CHECKOUT-I, Total execution time (CPU/WALL):        0.01/       0.02 seconds.
--executable xjoda finished with status     0 in        0.04 seconds (walltime).
  The final electronic energy is      -113.275155169619467 a.u. 
  This computation required                         2644.35 seconds (walltime).
