 --invoking executable--
/nfs/workspaces/public/cfour_mpi/bin/xjoda


   *************************************************************************
         <<<     CCCCCC     CCCCCC   |||     CCCCCC     CCCCCC   >>>
       <<<      CCC        CCC       |||    CCC        CCC         >>>
      <<<      CCC        CCC        |||   CCC        CCC            >>>
    <<<        CCC        CCC        |||   CCC        CCC              >>>
      <<<      CCC        CCC        |||   CCC        CCC            >>>
       <<<      CCC        CCC       |||    CCC        CCC         >>>
         <<<     CCCCCC     CCCCCC   |||     CCCCCC     CCCCCC   >>>
   *************************************************************************

     ****************************************************************
     * CFOUR Coupled-Cluster techniques for Computational Chemistry *
     ****************************************************************
 

   Department of Chemistry                Institut fuer Physikalische Chemie
   University of Florida                  Universitaet Mainz
   Gainesville, FL 32611, USA             D-55099 Mainz, Germany

   Department of Chemistry                Fakultaet fuer Chemie und Biowiss.
   Johns Hopkins University               Karlsruher Institut fuer Technologie
   Baltimore, MD 21218, USA               D-76131 Karlsruhe, Germany

   Department of Chemistry                Department of Physical Chemistry
   Southern Methodist University          Eotvos Lorand University
   Dallas, TX 75275, USA                  H-1053 Budapest, Hungary

 
                       Version 2.1
 
                     vincent.theory.phys.ucl.ac.uk                     
                     Wed 26 Feb 14:42:55 GMT 2025                      
                     integer*8 version is running
 
********************************************************************************
*                          Input from ZMAT file                                *
********************************************************************************
Carbon Monoxide DBOC calculation                                                
C                                                                               
O 1 r                                                                           
                                                                                
r=0.9620689655172414                                                            
                                                                                
                                                                                
*CFOUR(CALC=CCSD,BASIS=AUG-PCVQZ,SCF_CONV=10                                    
CC_CONV=14,DBOC=ON,MEMORY=500000000                                             
ZFIELD=200)                                                                     
                                                                                
%isotopes                                                                       
13                                                                              
16                                                                              
********************************************************************************
  @GTFLGS-I, Hessian will be transformed to curvilinear coordinates.
    -------------------------------------------------------------------
                    CFOUR Control Parameters 
    -------------------------------------------------------------------
        External           Internal           Value            Units
          Name               Name
    -------------------------------------------------------------------
       ABCDTYPE             IABCDT         STANDARD    [  0]    ***   
       ANHARMONIC           IANHAR         OFF         [  0]    ***   
       ANH_ALGORIT          IANALG         STANDARD    [  0]    ***   
       ANH_DERIVAT          IANDER         SECOND      [  1]    ***   
       ANH_MODE             ANHMOD         VIBRATION   [  0]    ***   
       ANH_STEPSIZ          ICUBST             50000          x 10-6  
       ANH_SYMMETR          IANHSM         ABELIAN     [  0]    ***   
       AO_LADDERS           IAOLAD         SINGLEPASS  [  1]    ***   
       AV_SCF               IAVSCF         OFF         [  0]    ***   
       BASIS                IBASIS         AUG-PCVQZ   [ 52]    ***   
       BOTHVECTORS          BOTHVC         OFF         [  0]    ***   
       BOX_POTENT           IPIAB          OFF         [  0]    ***   
       BREIT                IBREIT         OFF         [  0]    ***   
       BRUCK_CONV           IBRTOL          10D-  4             ***   
       BRUECKNER            IBRKNR         OFF         [  0]    ***   
       BUFFERSIZE           IBUFFS              4096            ***   
       CACHE_RECS           ICHREC             10               ***   
       CALCLEVEL            ICLLVL         CCSD        [ 10]    ***   
       CCORBOPT             ICCORB         OFF         [  0]  x 0.01  
       CC_CONV              ICCCNV          10D- 14             ***   
       CC_EXPORDER          ICCEOR              5               ***   
       CC_EXTRAPOL          ICCEXT         DIIS        [  1]    ***   
       CC_GUESS             ICCGES         MP2         [  0]    ***   
       CC_MAXCYC            ICCCYC            100              cycles 
       CC_PROGRAM           ICCPRO         VCC         [  0]    ***   
       CHARGE               ICHRGE              0               ***   
       CHOLESKY             ICHOLE         OFF         [  0]    ***   
       CIS_CONV             ICISTL              5               ***   
       COMM_SIZE            IPSIZE            ***               ***   
       CONSTANT             ICONST         OLD         [  1]    ***   
       CONTINUUM            ICONTU         NONE        [  0]    ***   
       CONTRACTION          ICNTYP         GENERAL     [  1]    ***   
       COORDINATES          ICOORD         INTERNAL    [  0]    ***   
       CPHF_CONVER          ICPHFT          10D- 16             ***   
       CPHF_MAXCYC          ICPHFC             64              cycles 
       CUBIC                ICUBIC         OFF         [  0]    ***   
       CURVILINEAR          ICURVY         ON          [  1]    ***   
       DBOC                 IDBOC          ON          [  1]    ***   
       DCT                  IDCT           OFF         [  0]    ***   
       DERIV_LEV            IDRLVL         SECOND      [  2]    ***   
       DEVMEM_SIZE          IDVMEM          50000000           MByte  
       DIAG_MRCC            IEOMST          10D-  0             ***   
       DIFF_TYPE            IDIFTY         RELAXED     [  0]    ***   
       DIRECT               IDIRCT         OFF         [  0]    ***   
       DROPMO               IDRPMO      NONE         
       ECP                  IECP           OFF         [  0]    ***   
       EIGENVECTOR          IVEC                1               ***   
       EL_ANHARM            IELANH         OFF         [  0]    ***   
       EOMFOLLOW            IEOMSR         ENERGY      [  0]    ***   
       EOMIP                IEOMIP         OFF         [  0]    ***   
       EOMLEVEL             HBARFM         SAME        [  0]    ***   
       EOM_MRCC             IMRCCE         NEW         [  1]    ***   
       EOM_NONIT            EOMNON         OFF         [  0]    ***   
       EOM_NSING            IEOMSI          10D-  0             ***   
       EOM_NSTATES          IMRCCD         DAVIDSON    [  0]    ***   
       EOM_NTRIP            IEOMTR          10D-  0             ***   
       EOM_ORDER            IEXORD         ENERGY      [  0]    ***   
       EOM_PROPSTA          IEOMST              0               ***   
       ESTATE_CONV          IEXTOL          10D-  5             ***   
       ESTATE_DIAG          IEXDIG         ITERATIVE   [  0]    ***   
       ESTATE_LOCK          IESLOC         ON          [  1]    ***   
       ESTATE_MAXC          IEXMXC             40               ***   
       ESTATE_PROP          IEXPRP         OFF         [  0]    ***   
       EVAL_HESS            IRECAL              0            # of cyc.
       EXCITATION           IEXCIT              0               ***   
       EXCITE               IEXCIT         NONE        [  0]    ***   
       EXTERN_POT           IEXPOT         OFF         [  0]    ***   
       FCGRADNEW            IFCGNW         OFF         [  0]    ***   
       FC_FIELD             IFINFC              0             x 10-6  
       FD_CALTYPE           IFDCAL         GRADONLY    [  0]    ***   
       FD_PROJECT           IFDPRJ         OFF         [  1]    ***   
       FD_STEPSIZE          IDISFD              0            10-4 bohr
       FD_USEGROUP          IFDGRP         FULL        [  0]    ***   
       FILE_RECSIZ          IFLREC              4096           words  
       FINITE_PERT          IFIPER              0             x 10-6  
       FIXGEOM              IFIXGM         OFF         [  0]    ***   
       FOCK                 IFOCK          AO          [  1]    ***   
       FREQ_ALGORI          IVIALG         STANDARD    [  0]    ***   
       FROZEN_CORE          IFROCO         OFF         [  0]    ***   
       GAMMA_ABCD           IGABCD         STORE       [  0]    ***   
       GAMMA_ABCI           IGABCI         STORE       [  0]    ***   
       GENBAS_1             IGNBS1              0               ***   
       GENBAS_2             IGNBS2              0               ***   
       GENBAS_3             IGNBS3              0               ***   
       GENBAS_4             IGNBS4              0               ***   
       GEO_CONV             ICONTL              5              H/bohr 
       GEO_MAXCYC           IOPTCY             50               ***   
       GEO_MAXSTEP          IMXSTP            300            millibohr
       GEO_METHOD           INR            SINGLE_POINT[  5]    ***   
       GIAO                 IGIAO          OFF         [  1]    ***   
       GIMIC                IGIMIC         OFF         [  0]    ***   
       GRID                 IGRID          OFF         [  0]    ***   
       GRID_ALGO            IGALGO         SERIAL      [  0]    ***   
       GUESS                IGUESS         MOREAD      [  0]    ***   
       HBAR                 IHBAR          OFF         [  0]    ***   
       HESS_TYPE            IHESTP         SCF         [  0]    ***   
       HF2_FILE             IHF2Fl         USE         [  1]    ***   
       HFSTABILITY          ISTABL         OFF         [  0]    ***   
       INCORE               INCORE         OFF         [  0]    ***   
       INPUT_MRCC           IMRCC          ON          [  1]    ***   
       INTEGRALS            INTTYP         VMOL        [  1]    ***   
       JODA_PRINT           IJPRNT              0               ***   
       KEYWORD_OUT          IDMPKW         NO          [  0]    ***   
       LINDEP_TOL           ILINDP              8               ***   
       LINEQ_CONV           IZTACN          10D-  7           cycles  
       LINEQ_EXPOR          ILMAXD              5               ***   
       LINEQ_MAXCY          ILMAXC            100               ***   
       LINEQ_TYPE           ILTYPE         DIIS        [  1]    ***   
       LOCK_ORBOCC          ILOCOC         OFF         [  0]    ***   
       MEMORY_SIZE          IMEMSZ         500000000           words  
       MEM_UNIT             IMEMU          INTEGERWORDS[  0]    ***   
       MRCC                 IMRCCC         OFF         [  0]    ***   
       MULTIPLICTY          IMULTP              1               ***   
       NACOUPLING           IVCOUP         OFF         [  0]    ***   
       NEGEVAL              IDIE           ABORT       [  0]    ***   
       NEWNORM              INEWNO         OFF         [  0]    ***   
       NON-HF               INONHF         OFF         [  0]    ***   
       NTOP_TAMP            ITOPT2             15               ***   
       NUC_MODEL            INUCMO         POINT       [  0]    ***   
       OCCUPATION           IOCCU   ESTIMATED BY SCF 
       OPEN-SHELL           IOPEN          SPIN-ORBITAL[  0]    ***   
       OPTVIB               IOPTVB         OFF         [  0]    ***   
       ORBITALS             IORBTP         STANDARD    [  0]    ***   
       PARALLEL             IPARAL         ON          [  1]    ***   
       PARA_INT             IPINTS         ON          [  1]    ***   
       PARA_PRINT           IPPRIN              0               ***   
       PERT_ORB             IPTORB         STANDARD    [  0]    ***   
       POINTS               IGRDFD              0               ***   
       PRINT                IPRNT               0               ***   
       PROPS                IPROPS         OFF         [  0]    ***   
       PROP_INTEGR          IINTYP         INTERNAL    [  0]    ***   
       PSI                  IPSI           OFF         [  0]    ***   
       QC_ALG               IQCALG         FLM         [  0]    ***   
       QC_LINALG            IQCLIN         TRIDIAG     [  2]    ***   
       QC_MAXCYC            IQCMAX          10D-100           cycles  
       QC_MAXSCFCY          IQCMSC          10D- 15           cycles  
       QC_RTRUST            IQCRTR          10D-  0           x 10-3  
       QC_SKIPSCF           IQCSKI         OFF         [  0]    ***   
       QC_START             IQCSTA          10D-  1             ***   
       QRHFGUESS            IQGUES         OFF         [  0]    ***   
       QUARTIC              IQUART         OFF         [  0]    ***   
       RAMAN_INT            IRAMIN         OFF         [  0]    ***   
       RAMAN_ORB            IRAMRE         UNRELAXED   [  0]    ***   
       RDO                  IRDOFM         ON          [  1]    ***   
       REDUCE_REPR          REDREP         Ir          [  0]    ***   
       REFERENCE            IREFNC         RHF         [  0]    ***   
       RELATIVIST           IRELAT         OFF         [  0]    ***   
       RELAX_DENS           IRDENS         ON          [  1]    ***   
       RESET_FLAGS          IRESET         OFF         [  0]    ***   
       RESTART_CC           ICCRES         OFF         [  0]    ***   
       ROT_EVEC             ROTVEC              0               ***   
       SAVE_INTS            ISVINT         OFF         [  0]    ***   
       SCALE_ON             ISTCRT              0               ***   
       SCF_CONV             ISCFCV          10D- 10             ***   
       SCF_DAMPING          IDAMP               0             x 10-3  
       SCF_EXPORDE          IRPPOR              6               ***   
       SCF_EXPSTAR          IRPPLS              8               ***   
       SCF_EXTRAPO          IRPP           ON          [  1]    ***   
       SCF_MAXCYC           ISCFCY            150              cycles 
       SCF_NOSTOP           ISCFST         OFF         [  0]    ***   
       SCF_PRINT            ISCFPR              0               ***   
       SCF_PROG             ISCFPR         SCF         [  0]    ***   
       SD_FIELD             IFINSD              0             x 10-6  
       SOPERT               IPERSO         OFF         [  0]    ***   
       SPHERICAL            IDFGHI         ON          [  1]    ***   
       SPINORBIT            ISOCAL         OFF         [  0]    ***   
       SPINROTATIO          ISRCON         OFF         [  0]    ***   
       SPIN_FLIP            ISPFLP         OFF         [  0]    ***   
       SPIN_ORBIT           ISPORB         OFF         [  0]    ***   
       SPIN_SCAL            ISCSMP         OFF         [  0]    ***   
       STEEPSCALE           ISTPSC              1000          x 10-3  
       SUBGROUP             ISUBGP         DEFAULT     [  0]    ***   
       SUBGRPAXIS           ISBXYZ         X           [  0]    ***   
       SYMMETRY             ISYM           ON          [  0]    ***   
       SYM_CHECK            ISYMCK         OVERRIDE    [  1]    ***   
       T3_EXTRAPOL          IT3EXT         OFF         [  0]    ***   
       T4_EXTRAPOL          IT4EXP         OFF         [  0]    ***   
       TAMP_SUM             IEVERY              5               ***   
       TESTSUITE            ITESTS         OFF         [  0]    ***   
       THERMOCH             ITHERM         OFF         [  0]    ***   
       TOL_CHOLESK          ITOLCH          10D-  4             ***   
       TRANGRAD             IRESRM         OFF         [  0]    ***   
       TRANS_INV            ITRAIN         IGNORE      [  1]    ***   
       TREAT_PERT           ITREAT         SIMULTANEOUS[  0]    ***   
       TRIP_ALGORI          ITRALG         NORMAL      [  0]    ***   
       UIJ_THRESHO          IUIJTH              1               ***   
       UNITS                IUNITS         ANGSTROM    [  0]    ***   
       UNOS                 IUNOS          OFF         [  0]    ***   
       UPDATE_HESS          IHUPDT         ON          [  1]    ***   
       VIBPHASE             ISETPH         STANDARD    [  0]    ***   
       VIBRATION            IVIB           ANALYTIC    [  1]    ***   
       VIB_ALGORIT          IGEALG         STANDARD    [  0]    ***   
       VNATORB              IVNORB         OFF         [  0]    ***   
       VTRAN                IVTRAN         FULL/PARTIAL[  0]    ***   
       XFIELD               IXEFLD              0             x 10-6  
       XFORM_TOL            IXFTOL          10D- 11             ***   
       YFIELD               IYEFLD              0             x 10-6  
       ZFIELD               IZEFLD            200             x 10-6  
       ZSCALE_EXP           IZEXPS         OFF         [  0]    ***   
    -------------------------------------------------------------------
   2 entries found in Z-matrix 
   Job Title : Carbon Monoxide DBOC calculation                                                
   There are  1 unique internal coordinates.
   Of these,  0 will be optimized.
   User supplied Z-matrix: 
--------------------------------------------------------------------------------
       SYMBOL    BOND      LENGTH    ANGLE     ANGLE     DIHED     ANGLE
                  TO      (ANGST)    WRT      (DEG)      WRT      (DEG)
--------------------------------------------------------------------------------
        C    
        O          1         r    
                  *Initial values for internal coordinates* 
                      Name             Value
                        r               0.9620689655
--------------------------------------------------------------------------------
  read isotopes from ZMAT file 
   Rotational constants (in cm-1): 
          2.5393284920             2.5393284920
   Rotational constants (in MHz): 
      76127.1636936908         76127.1636936908
********************************************************************************
   The full molecular point group is CXv .
   The largest Abelian subgroup of the full molecular point group is C2v .
   The computational point group is C2v .
********************************************************************************
--------------------------------------------------------------------------------
   Analysis of internal coordinates specified by Z-matrix 
--------------------------------------------------------------------------------
   *The nuclear repulsion energy is   26.401954236559135 a.u.
   *There is   1 degree of freedom within the tot. symm. molecular subspace.
   *Z-matrix requests optimization of   0 coordinates.
   *The optimization is constrained.
   *The following   1 parameters can have non-zero 
    derivatives within the totally symmetric subspace:
             r    [ 1]
   *The following   0 parameters are to be optimized:

   *The following coordinates must be varied in an  unconstrained optimization.
             r    [ 1]
--------------------------------------------------------------------------------


 ----------------------------------------------------------------
         Coordinates used in calculation (QCOMP) 
 ----------------------------------------------------------------
 Z-matrix   Atomic            Coordinates (in bohr)
  Symbol    Number           X              Y              Z
 ----------------------------------------------------------------
     C         6        -0.00000000     0.00000000     1.00280158
     O         8         0.00000000     0.00000000    -0.81524566
 ----------------------------------------------------------------
 
   Interatomic distance matrix (Angstroms) 
 
                 C             O    
                [ 1]        [ 2]
  C    [ 1]     0.00000
  O    [ 2]     0.96207     0.00000
 rotcon2
   Rotational constants (in cm-1): 
          2.5393284920             0.0000000000
   Rotational constants (in MHz): 
      76127.1636936908             0.0000000000
  ECPDATA file not present.   Using default ECPDATA. 
  @GTFLGS-I, Hessian will be transformed to curvilinear coordinates.
  There are  218 basis functions.
 @CHECKOUT-I, Total execution time (CPU/WALL):        0.09/       0.14 seconds.
--executable xjoda finished with status     0 in        0.15 seconds (walltime).
 --invoking executable--
/nfs/workspaces/public/cfour_mpi/bin/xvmol
 SERIAL VERSION OF MOLECULE STARTED
********************************************************************************
                    INPUT FROM MOL FILE
********************************************************************************
INTGRL        1    0    1    0    0    0    0    0    0                         
         *** CFOUR Program System (Release V0.1) ***                            
Carbon Monoxide DBOC calculation                                                
    2    2 X  Y       0.10E-08              0    0                              
   9999.00      3.00                                                            
          6.00000000    1    5    1    1    1    1    1                         
C #1  -0.000000000000000   0.000000000000000   1.002801578308798                
   16    9                                                                      
   33980.0000000000       9.100000000000000E-005 -1.900000000000000E-005        
  0.000000000000000E+000  0.000000000000000E+000  0.000000000000000E+000        
  0.000000000000000E+000  0.000000000000000E+000  0.000000000000000E+000        
  0.000000000000000E+000                                                        
   5089.00000000000       7.040000000000000E-004 -1.510000000000000E-004        
  0.000000000000000E+000  0.000000000000000E+000  0.000000000000000E+000        
  0.000000000000000E+000  0.000000000000000E+000  0.000000000000000E+000        
  0.000000000000000E+000                                                        
   1157.00000000000       3.693000000000000E-003 -7.850000000000000E-004        
  0.000000000000000E+000  0.000000000000000E+000  0.000000000000000E+000        
  0.000000000000000E+000  0.000000000000000E+000  0.000000000000000E+000        
  0.000000000000000E+000                                                        
   326.600000000000       1.536000000000000E-002 -3.324000000000000E-003        
  0.000000000000000E+000  0.000000000000000E+000  0.000000000000000E+000        
  0.000000000000000E+000  0.000000000000000E+000  0.000000000000000E+000        
  0.000000000000000E+000                                                        
   106.100000000000       5.292900000000000E-002 -1.151200000000000E-002        
  0.000000000000000E+000  0.000000000000000E+000  0.000000000000000E+000        
  0.000000000000000E+000  0.000000000000000E+000  0.000000000000000E+000        
  0.000000000000000E+000                                                        
   38.1100000000000       0.147043000000000      -3.416000000000000E-002        
  0.000000000000000E+000  0.000000000000000E+000  0.000000000000000E+000        
  0.000000000000000E+000  0.000000000000000E+000  0.000000000000000E+000        
  0.000000000000000E+000                                                        
   14.7500000000000       0.305631000000000      -7.717300000000001E-002        
  0.000000000000000E+000  0.000000000000000E+000  0.000000000000000E+000        
  0.000000000000000E+000  0.000000000000000E+000  0.000000000000000E+000        
  0.000000000000000E+000                                                        
   6.03500000000000       0.399345000000000      -0.141493000000000             
  0.000000000000000E+000  0.000000000000000E+000  0.000000000000000E+000        
  0.000000000000000E+000  0.000000000000000E+000  0.000000000000000E+000        
  0.000000000000000E+000                                                        
   2.53000000000000       0.217051000000000      -0.118019000000000             
  0.000000000000000E+000  0.000000000000000E+000  0.000000000000000E+000        
  0.000000000000000E+000  0.000000000000000E+000  0.000000000000000E+000        
  0.000000000000000E+000                                                        
  0.735500000000000       1.589400000000000E-002  0.273806000000000             
   1.00000000000000       0.000000000000000E+000  0.000000000000000E+000        
  0.000000000000000E+000  0.000000000000000E+000  0.000000000000000E+000        
  0.000000000000000E+000                                                        
  0.290500000000000      -3.084000000000000E-003  0.586510000000000             
  0.000000000000000E+000   1.00000000000000       0.000000000000000E+000        
  0.000000000000000E+000  0.000000000000000E+000  0.000000000000000E+000        
  0.000000000000000E+000                                                        
  0.111100000000000       9.779999999999999E-004  0.285430000000000             
  0.000000000000000E+000  0.000000000000000E+000   1.00000000000000             
  0.000000000000000E+000  0.000000000000000E+000  0.000000000000000E+000        
  0.000000000000000E+000                                                        
   7.21600000000000       0.000000000000000E+000  0.000000000000000E+000        
  0.000000000000000E+000  0.000000000000000E+000  0.000000000000000E+000        
   1.00000000000000       0.000000000000000E+000  0.000000000000000E+000        
  0.000000000000000E+000                                                        
   19.5700000000000       0.000000000000000E+000  0.000000000000000E+000        
  0.000000000000000E+000  0.000000000000000E+000  0.000000000000000E+000        
  0.000000000000000E+000   1.00000000000000       0.000000000000000E+000        
  0.000000000000000E+000                                                        
   53.0730000000000       0.000000000000000E+000  0.000000000000000E+000        
  0.000000000000000E+000  0.000000000000000E+000  0.000000000000000E+000        
  0.000000000000000E+000  0.000000000000000E+000   1.00000000000000             
  0.000000000000000E+000                                                        
  4.145000000000000E-002  0.000000000000000E+000  0.000000000000000E+000        
  0.000000000000000E+000  0.000000000000000E+000  0.000000000000000E+000        
  0.000000000000000E+000  0.000000000000000E+000  0.000000000000000E+000        
   1.00000000000000                                                             
   10    8                                                                      
   34.5100000000000       5.378000000000000E-003  0.000000000000000E+000        
  0.000000000000000E+000  0.000000000000000E+000  0.000000000000000E+000        
  0.000000000000000E+000  0.000000000000000E+000  0.000000000000000E+000        
   7.91500000000000       3.613200000000000E-002  0.000000000000000E+000        
  0.000000000000000E+000  0.000000000000000E+000  0.000000000000000E+000        
  0.000000000000000E+000  0.000000000000000E+000  0.000000000000000E+000        
   2.36800000000000       0.142493000000000       0.000000000000000E+000        
  0.000000000000000E+000  0.000000000000000E+000  0.000000000000000E+000        
  0.000000000000000E+000  0.000000000000000E+000  0.000000000000000E+000        
  0.813200000000000       0.342150000000000        1.00000000000000             
  0.000000000000000E+000  0.000000000000000E+000  0.000000000000000E+000        
  0.000000000000000E+000  0.000000000000000E+000  0.000000000000000E+000        
  0.289000000000000       0.463864000000000       0.000000000000000E+000        
   1.00000000000000       0.000000000000000E+000  0.000000000000000E+000        
  0.000000000000000E+000  0.000000000000000E+000  0.000000000000000E+000        
  0.100700000000000       0.250028000000000       0.000000000000000E+000        
  0.000000000000000E+000   1.00000000000000       0.000000000000000E+000        
  0.000000000000000E+000  0.000000000000000E+000  0.000000000000000E+000        
   8.18200000000000       0.000000000000000E+000  0.000000000000000E+000        
  0.000000000000000E+000  0.000000000000000E+000   1.00000000000000             
  0.000000000000000E+000  0.000000000000000E+000  0.000000000000000E+000        
   24.1860000000000       0.000000000000000E+000  0.000000000000000E+000        
  0.000000000000000E+000  0.000000000000000E+000  0.000000000000000E+000        
   1.00000000000000       0.000000000000000E+000  0.000000000000000E+000        
   71.4940000000000       0.000000000000000E+000  0.000000000000000E+000        
  0.000000000000000E+000  0.000000000000000E+000  0.000000000000000E+000        
  0.000000000000000E+000   1.00000000000000       0.000000000000000E+000        
  3.218000000000000E-002  0.000000000000000E+000  0.000000000000000E+000        
  0.000000000000000E+000  0.000000000000000E+000  0.000000000000000E+000        
  0.000000000000000E+000  0.000000000000000E+000   1.00000000000000             
    6    6                                                                      
   1.84800000000000        1.00000000000000       0.000000000000000E+000        
  0.000000000000000E+000  0.000000000000000E+000  0.000000000000000E+000        
  0.000000000000000E+000                                                        
  0.649000000000000       0.000000000000000E+000   1.00000000000000             
  0.000000000000000E+000  0.000000000000000E+000  0.000000000000000E+000        
  0.000000000000000E+000                                                        
  0.228000000000000       0.000000000000000E+000  0.000000000000000E+000        
   1.00000000000000       0.000000000000000E+000  0.000000000000000E+000        
  0.000000000000000E+000                                                        
   8.65600000000000       0.000000000000000E+000  0.000000000000000E+000        
  0.000000000000000E+000   1.00000000000000       0.000000000000000E+000        
  0.000000000000000E+000                                                        
   33.2130000000000       0.000000000000000E+000  0.000000000000000E+000        
  0.000000000000000E+000  0.000000000000000E+000   1.00000000000000             
  0.000000000000000E+000                                                        
  7.660000000000000E-002  0.000000000000000E+000  0.000000000000000E+000        
  0.000000000000000E+000  0.000000000000000E+000  0.000000000000000E+000        
   1.00000000000000                                                             
    4    4                                                                      
   1.41900000000000        1.00000000000000       0.000000000000000E+000        
  0.000000000000000E+000  0.000000000000000E+000                                
  0.485000000000000       0.000000000000000E+000   1.00000000000000             
  0.000000000000000E+000  0.000000000000000E+000                                
   24.6940000000000       0.000000000000000E+000  0.000000000000000E+000        
   1.00000000000000       0.000000000000000E+000                                
  0.187000000000000       0.000000000000000E+000  0.000000000000000E+000        
  0.000000000000000E+000   1.00000000000000                                     
    2    2                                                                      
   1.01100000000000        1.00000000000000       0.000000000000000E+000        
  0.424000000000000       0.000000000000000E+000   1.00000000000000             
          8.00000000    1    5    1    1    1    1    1                         
O #2   0.000000000000000   0.000000000000000  -0.815245660540429                
   16    9                                                                      
   61420.0000000000       9.000000000000001E-005 -2.000000000000000E-005        
  0.000000000000000E+000  0.000000000000000E+000  0.000000000000000E+000        
  0.000000000000000E+000  0.000000000000000E+000  0.000000000000000E+000        
  0.000000000000000E+000                                                        
   9199.00000000000       6.980000000000001E-004 -1.590000000000000E-004        
  0.000000000000000E+000  0.000000000000000E+000  0.000000000000000E+000        
  0.000000000000000E+000  0.000000000000000E+000  0.000000000000000E+000        
  0.000000000000000E+000                                                        
   2091.00000000000       3.664000000000000E-003 -8.290000000000000E-004        
  0.000000000000000E+000  0.000000000000000E+000  0.000000000000000E+000        
  0.000000000000000E+000  0.000000000000000E+000  0.000000000000000E+000        
  0.000000000000000E+000                                                        
   590.900000000000       1.521800000000000E-002 -3.508000000000000E-003        
  0.000000000000000E+000  0.000000000000000E+000  0.000000000000000E+000        
  0.000000000000000E+000  0.000000000000000E+000  0.000000000000000E+000        
  0.000000000000000E+000                                                        
   192.300000000000       5.242300000000000E-002 -1.215600000000000E-002        
  0.000000000000000E+000  0.000000000000000E+000  0.000000000000000E+000        
  0.000000000000000E+000  0.000000000000000E+000  0.000000000000000E+000        
  0.000000000000000E+000                                                        
   69.3200000000000       0.145921000000000      -3.626100000000000E-002        
  0.000000000000000E+000  0.000000000000000E+000  0.000000000000000E+000        
  0.000000000000000E+000  0.000000000000000E+000  0.000000000000000E+000        
  0.000000000000000E+000                                                        
   26.9700000000000       0.305258000000000      -8.299200000000000E-002        
  0.000000000000000E+000  0.000000000000000E+000  0.000000000000000E+000        
  0.000000000000000E+000  0.000000000000000E+000  0.000000000000000E+000        
  0.000000000000000E+000                                                        
   11.1000000000000       0.398508000000000      -0.152090000000000             
  0.000000000000000E+000  0.000000000000000E+000  0.000000000000000E+000        
  0.000000000000000E+000  0.000000000000000E+000  0.000000000000000E+000        
  0.000000000000000E+000                                                        
   4.68200000000000       0.216980000000000      -0.115331000000000             
  0.000000000000000E+000  0.000000000000000E+000  0.000000000000000E+000        
  0.000000000000000E+000  0.000000000000000E+000  0.000000000000000E+000        
  0.000000000000000E+000                                                        
   1.42800000000000       1.759400000000000E-002  0.288979000000000             
   1.00000000000000       0.000000000000000E+000  0.000000000000000E+000        
  0.000000000000000E+000  0.000000000000000E+000  0.000000000000000E+000        
  0.000000000000000E+000                                                        
  0.554700000000000      -2.502000000000000E-003  0.586128000000000             
  0.000000000000000E+000   1.00000000000000       0.000000000000000E+000        
  0.000000000000000E+000  0.000000000000000E+000  0.000000000000000E+000        
  0.000000000000000E+000                                                        
  0.206700000000000       9.540000000000000E-004  0.277624000000000             
  0.000000000000000E+000  0.000000000000000E+000   1.00000000000000             
  0.000000000000000E+000  0.000000000000000E+000  0.000000000000000E+000        
  0.000000000000000E+000                                                        
   12.9740000000000       0.000000000000000E+000  0.000000000000000E+000        
  0.000000000000000E+000  0.000000000000000E+000  0.000000000000000E+000        
   1.00000000000000       0.000000000000000E+000  0.000000000000000E+000        
  0.000000000000000E+000                                                        
   34.9000000000000       0.000000000000000E+000  0.000000000000000E+000        
  0.000000000000000E+000  0.000000000000000E+000  0.000000000000000E+000        
  0.000000000000000E+000   1.00000000000000       0.000000000000000E+000        
  0.000000000000000E+000                                                        
   93.8810000000000       0.000000000000000E+000  0.000000000000000E+000        
  0.000000000000000E+000  0.000000000000000E+000  0.000000000000000E+000        
  0.000000000000000E+000  0.000000000000000E+000   1.00000000000000             
  0.000000000000000E+000                                                        
  6.959000000000000E-002  0.000000000000000E+000  0.000000000000000E+000        
  0.000000000000000E+000  0.000000000000000E+000  0.000000000000000E+000        
  0.000000000000000E+000  0.000000000000000E+000  0.000000000000000E+000        
   1.00000000000000                                                             
   10    8                                                                      
   63.4200000000000       6.044000000000000E-003  0.000000000000000E+000        
  0.000000000000000E+000  0.000000000000000E+000  0.000000000000000E+000        
  0.000000000000000E+000  0.000000000000000E+000  0.000000000000000E+000        
   14.6600000000000       4.179900000000000E-002  0.000000000000000E+000        
  0.000000000000000E+000  0.000000000000000E+000  0.000000000000000E+000        
  0.000000000000000E+000  0.000000000000000E+000  0.000000000000000E+000        
   4.45900000000000       0.161143000000000       0.000000000000000E+000        
  0.000000000000000E+000  0.000000000000000E+000  0.000000000000000E+000        
  0.000000000000000E+000  0.000000000000000E+000  0.000000000000000E+000        
   1.53100000000000       0.356731000000000        1.00000000000000             
  0.000000000000000E+000  0.000000000000000E+000  0.000000000000000E+000        
  0.000000000000000E+000  0.000000000000000E+000  0.000000000000000E+000        
  0.530200000000000       0.448309000000000       0.000000000000000E+000        
   1.00000000000000       0.000000000000000E+000  0.000000000000000E+000        
  0.000000000000000E+000  0.000000000000000E+000  0.000000000000000E+000        
  0.175000000000000       0.244940000000000       0.000000000000000E+000        
  0.000000000000000E+000   1.00000000000000       0.000000000000000E+000        
  0.000000000000000E+000  0.000000000000000E+000  0.000000000000000E+000        
   14.4750000000000       0.000000000000000E+000  0.000000000000000E+000        
  0.000000000000000E+000  0.000000000000000E+000   1.00000000000000             
  0.000000000000000E+000  0.000000000000000E+000  0.000000000000000E+000        
   42.7300000000000       0.000000000000000E+000  0.000000000000000E+000        
  0.000000000000000E+000  0.000000000000000E+000  0.000000000000000E+000        
   1.00000000000000       0.000000000000000E+000  0.000000000000000E+000        
   126.140000000000       0.000000000000000E+000  0.000000000000000E+000        
  0.000000000000000E+000  0.000000000000000E+000  0.000000000000000E+000        
  0.000000000000000E+000   1.00000000000000       0.000000000000000E+000        
  5.348000000000000E-002  0.000000000000000E+000  0.000000000000000E+000        
  0.000000000000000E+000  0.000000000000000E+000  0.000000000000000E+000        
  0.000000000000000E+000  0.000000000000000E+000   1.00000000000000             
    6    6                                                                      
   3.77500000000000        1.00000000000000       0.000000000000000E+000        
  0.000000000000000E+000  0.000000000000000E+000  0.000000000000000E+000        
  0.000000000000000E+000                                                        
   1.30000000000000       0.000000000000000E+000   1.00000000000000             
  0.000000000000000E+000  0.000000000000000E+000  0.000000000000000E+000        
  0.000000000000000E+000                                                        
  0.444000000000000       0.000000000000000E+000  0.000000000000000E+000        
   1.00000000000000       0.000000000000000E+000  0.000000000000000E+000        
  0.000000000000000E+000                                                        
   14.9270000000000       0.000000000000000E+000  0.000000000000000E+000        
  0.000000000000000E+000   1.00000000000000       0.000000000000000E+000        
  0.000000000000000E+000                                                        
   57.5440000000000       0.000000000000000E+000  0.000000000000000E+000        
  0.000000000000000E+000  0.000000000000000E+000   1.00000000000000             
  0.000000000000000E+000                                                        
  0.154000000000000       0.000000000000000E+000  0.000000000000000E+000        
  0.000000000000000E+000  0.000000000000000E+000  0.000000000000000E+000        
   1.00000000000000                                                             
    4    4                                                                      
   2.66600000000000        1.00000000000000       0.000000000000000E+000        
  0.000000000000000E+000  0.000000000000000E+000                                
  0.859000000000000       0.000000000000000E+000   1.00000000000000             
  0.000000000000000E+000  0.000000000000000E+000                                
   26.4830000000000       0.000000000000000E+000  0.000000000000000E+000        
   1.00000000000000       0.000000000000000E+000                                
  0.324000000000000       0.000000000000000E+000  0.000000000000000E+000        
  0.000000000000000E+000   1.00000000000000                                     
    2    2                                                                      
   1.84600000000000        1.00000000000000       0.000000000000000E+000        
  0.714000000000000       0.000000000000000E+000   1.00000000000000             
FINISH                                                                          
 
********************************************************************************
 ONE- AND TWO-ELECTRON INTEGRALS OVER SYMMETRY-ADAPTED AOS ARE CALCULATED.

  SPHERICAL HARMONICS ARE USED.
  
  INTEGRALS LESS THAN  0.10E-13 ARE NEGLECTED.

  NUCLEAR REPULSION ENERGY :   26.4019542366 A.U.
  @MOLECU-I, ONE ELECTRON INTEGRALS (CPU/WALL):        0.06/       0.08 SECONDS.
  @TWOEL-I,    4689670 INTEGRALS OF SYMMETRY TYPE  I I I I
  @TWOEL-I,   20066131 INTEGRALS OF SYMMETRY TYPE  I J I J
  @TWOEL-I,   10577989 INTEGRALS OF SYMMETRY TYPE  I I J J
  @TWOEL-I,   14816758 INTEGRALS OF SYMMETRY TYPE  I J K L
  @TWOEL-I, TOTAL NUMBER OF 2-E INTEGRALS   50150548.
  @MOLECU-I, TWO ELECTRON INTEGRALS (CPU/WALL):      181.88/      31.27 SECONDS.
 @CHECKOUT-I, Total execution time (CPU/WALL):      181.96/      31.38 seconds.

Running with 14 threads/proc

--executable xvmol finished with status     0 in       31.40 seconds (walltime).
 --invoking executable--
/nfs/workspaces/public/cfour_mpi/bin/xvmol2ja
 @GETMEM-I,  Allocated    3814 MB of main memory.
 @CHECKOUT-I, Total execution time (CPU/WALL):        0.13/       0.07 seconds.
--executable xvmol2ja finished with status     0 in        0.08 seconds (walltime).
 --invoking executable--
/nfs/workspaces/public/cfour_mpi/bin/xvprop
 @GETMEM-I,  Allocated    3814 MB of main memory.
   Property integrals will be calculated.
    --------------------------------------------------------------
                                   Property evaluated at 
    Property type                X             Y             Z
    --------------------------------------------------------------
    Dipole moment               ----          ----          ----  
    Quadrupole moment           ----          ----          ----  
    Octopole moment             ----          ----          ----  
    Relativisitic corr.         ----          ----          ----  
    Second moment            0.0000000     0.0000000     0.0000000
    Electron density         0.0000000     0.0000000     1.0028016
    Electron density         0.0000000     0.0000000    -0.8152457
    Field gradient           0.0000000     0.0000000     1.0028016
    Field gradient           0.0000000     0.0000000    -0.8152457
    Potential                0.0000000     0.0000000     1.0028016
    Potential                0.0000000     0.0000000    -0.8152457
    --------------------------------------------------------------
 @CHECKOUT-I, Total execution time (CPU/WALL):        1.36/       1.39 seconds.
--executable xvprop finished with status     0 in        1.40 seconds (walltime).
 --invoking executable--
/nfs/workspaces/public/cfour_mpi/bin/xvscf
  There are  218 functions in the AO basis.

  There are 4 irreducible representations.

       Irrep        # of functions
         1                 86
         2                 52
         3                 52
         4                 28


  Parameters for SCF calculation: 
        SCF reference function:  RHF  
  Maximum number of iterations:  150
     Full symmetry point group: CXv 
     Computational point group: C2v 
        Initial density matrix: MOREAD                 
     SCF convergence tolerance: 10**(-10)
  DIIS convergence acceleration:  ON
          Latest start for DIIS:   8
                     DIIS order:   6

  Memory information:    2523578 words required.
  Fock matrices are constructed from AO integral file.
 @GETMEM-I,  Allocated      19 MB of main memory.
  Initialization and symmetry analysis required      0.001 seconds.

  Adding electric field perturbation to one-electron Hamiltonian.
  Field direction     : Z
  Field strength      :  0.0002000 a.u.

  @INITGES-I, Occupancies from core Hamiltonian:

          Alpha population by irrep:   5    1    1    0
           Beta population by irrep:   5    1    1    0


 total no. of electrons in initial guess :  0.000000000000000E+000
  --------------------------------------------------------------------
  Iteration         Total Energy            Largest Density Difference
  --------------------------------------------------------------------
       0            26.402055267721781              0.0000000000D+00
   current occupation vector 
     5  1  1  0
     5  1  1  0
       1           -90.118637659705627              0.2023729405D+02
   current occupation vector 
     5  1  1  0
     5  1  1  0
       2           -92.354130533836610              0.1133177241D+03
   current occupation vector 
     5  1  1  0
     5  1  1  0
       3          -104.309519785077299              0.1133317566D+03
   current occupation vector 
     4  1  2  0
     4  1  2  0
       4          -102.299376098030933              0.1566455095D+02
   current occupation vector 
     5  1  1  0
     5  1  1  0
       5          -106.357325252555569              0.1566325376D+02
   current occupation vector 
     4  1  2  0
     4  1  2  0
       6          -103.711984875292416              0.1136933288D+02
   current occupation vector 
     5  1  1  0
     5  1  1  0
       7          -105.094874233687335              0.1109040213D+02
   current occupation vector 
     5  1  1  0
     5  1  1  0
       8          -102.534040843132999              0.4933954664D+01
   current occupation vector 
     5  1  1  0
     5  1  1  0
       9          -112.065279201694040              0.3257779290D+01
   current occupation vector 
     5  1  1  0
     5  1  1  0
      10          -112.620233954242508              0.7052274287D+00
   current occupation vector 
     5  1  1  0
     5  1  1  0
      11          -112.714333835582920              0.2301411983D+00
   current occupation vector 
     5  1  1  0
     5  1  1  0
      12          -112.716576000661860              0.4546976138D-01
   current occupation vector 
     5  1  1  0
     5  1  1  0
      13          -112.716673082040558              0.1346790139D-01
   current occupation vector 
     5  1  1  0
     5  1  1  0
      14          -112.716681238466691              0.3887511114D-02
   current occupation vector 
     5  1  1  0
     5  1  1  0
      15          -112.716682634591564              0.2044250536D-02
   current occupation vector 
     5  1  1  0
     5  1  1  0
      16          -112.716682747446157              0.5550560240D-03
   current occupation vector 
     5  1  1  0
     5  1  1  0
      17          -112.716682751509012              0.1244280812D-03
   current occupation vector 
     5  1  1  0
     5  1  1  0
      18          -112.716682751603742              0.1337888842D-04
   current occupation vector 
     5  1  1  0
     5  1  1  0
      19          -112.716682751607806              0.1992665909D-05
   current occupation vector 
     5  1  1  0
     5  1  1  0
      20          -112.716682751608829              0.6233885925D-06
   current occupation vector 
     5  1  1  0
     5  1  1  0
      21          -112.716682751608261              0.1052178216D-06
   current occupation vector 
     5  1  1  0
     5  1  1  0
      22          -112.716682751609113              0.2543961486D-07
   current occupation vector 
     5  1  1  0
     5  1  1  0
      23          -112.716682751608204              0.5851244822D-08
   current occupation vector 
     5  1  1  0
     5  1  1  0
      24          -112.716682751607948              0.1989504783D-08
   current occupation vector 
     5  1  1  0
     5  1  1  0
      25          -112.716682751609085              0.9304397253D-09
   current occupation vector 
     5  1  1  0
     5  1  1  0
      26          -112.716682751607806              0.1465279009D-09
   current occupation vector 
     5  1  1  0
     5  1  1  0
      27          -112.716682751608261              0.1605431343D-09
   current occupation vector 
     5  1  1  0
     5  1  1  0

  SCF has converged.

 Density matrix saved to file den.dat
 total electron number:   14.0000000000001     
     E(SCF)=      -112.716682751608261              0.5078271137D-10

  Eigenvector printing suppressed.

 @PUTMOS-I, Writing converged MOs to NEWMOS. 
 @PUTMOS-I, Symmetry   1 Full Blocks 21 Partial Blocksize   2
 @PUTMOS-I, Symmetry   2 Full Blocks 13 Partial Blocksize   0
 @PUTMOS-I, Symmetry   3 Full Blocks 13 Partial Blocksize   0
 @PUTMOS-I, Symmetry   4 Full Blocks  7 Partial Blocksize   0
 @PUTFOCK-I, Writing converged Fock matrix to NEWFOCK. 
 @PUTFOCK-I, Symmetry   1 Full Blocks 21 Partial Blocksize   2
 @PUTFOCK-I, Symmetry   2 Full Blocks 13 Partial Blocksize   0
 @PUTFOCK-I, Symmetry   3 Full Blocks 13 Partial Blocksize   0
 @PUTFOCK-I, Symmetry   4 Full Blocks  7 Partial Blocksize   0


 
  ORBITAL EIGENVALUES (ALPHA)  (1H = 27.2113834 eV)

       MO #        E(hartree)               E(eV)           FULLSYM    COMPSYM
       ----   --------------------   --------------------   -------   ---------
    1     1         -20.6524016851        -561.9804203847     SG+        A1 (1)
    2     2         -11.2844391809        -307.0652010044     SG+        A1 (1)
    3     3          -1.6395562540         -44.6145938324     SG+        A1 (1)
    4     4          -0.8188527856         -22.2821170969     SG+        A1 (1)
    5   139          -0.7239699315         -19.7002233770      PI        B2 (3)
    6    87          -0.7239699315         -19.7002233770      PI        B1 (2)
    7     5          -0.5304121902         -14.4332494679     SG+        A1 (1)
  +++++++++++++++++++++++++++++++++++++++++++++++++++++++++++++++++++++++++++++
    8     6           0.0565498922           1.5388007986     SG+        A1 (1)
    9   140           0.0652858509           1.7765183195      PI        B2 (3)
   10    88           0.0652858509           1.7765183195      PI        B1 (2)
   11     7           0.0779574869           2.1213310660     SG+        A1 (1)
   12   141           0.1543223568           4.1993248194      PI        B2 (3)
   13    89           0.1543223568           4.1993248194      PI        B1 (2)
   14     8           0.1559300568           4.2430725593     SG+        A1 (1)
   15   142           0.1992083678           5.4207352727      PI        B2 (3)
   16    90           0.1992083678           5.4207352727      PI        B1 (2)
   17     9           0.2264714900           6.1626025442     SG+        A1 (1)
   18    10           0.2275503660           6.1919602513      DE        A1 (1)
   19   191           0.2275503660           6.1919602513      DE        A2 (4)
   20    11           0.3028476021           8.2409022131     SG+        A1 (1)
   21   143           0.3425038155           9.3200026396      PI        B2 (3)
   22    91           0.3425038155           9.3200026397      PI        B1 (2)
   23    12           0.3987861002          10.8515214667     SG+        A1 (1)
   24   144           0.4048697989          11.0170673240      PI        B2 (3)
   25    92           0.4048697989          11.0170673241      PI        B1 (2)
   26    13           0.5074411225          13.8081749359     SG+        A1 (1)
   27   192           0.5215519369          14.1921497175      DE        A2 (4)
   28    14           0.5215519369          14.1921497175      DE        A1 (1)
   29   145           0.6177388991          16.8095300251      PI        B2 (3)
   30    93           0.6177388991          16.8095300251      PI        B1 (2)
   31    15           0.6608259348          17.9819878738     SG+        A1 (1)
   32   146           0.7504136553          20.4197936843      PH        B2 (3)
   33    94           0.7504136553          20.4197936843      PH        B1 (2)
   34   193           0.7703703341          20.9628425215      DE        A2 (4)
   35    16           0.7703703341          20.9628425215      DE        A1 (1)
   36    17           0.7933193331          21.5873165325     SG+        A1 (1)
   37   147           0.8455255977          23.0079212144      PI        B2 (3)
   38    95           0.8455255977          23.0079212144      PI        B1 (2)
   39   148           0.8707615174          23.6946254989      PI        B2 (3)
   40    96           0.8707615174          23.6946254990      PI        B1 (2)
   41    18           0.8788103193          23.9136445349     SG+        A1 (1)
   42   194           0.9060927146          24.6560362530      DE        A2 (4)
   43    19           0.9060927146          24.6560362530      DE        A1 (1)
   44    20           0.9615517254          26.1651526594     SG+        A1 (1)
   45   149           1.1225778803          30.5468970978      PI        B2 (3)
   46    97           1.1225778803          30.5468970978      PI        B1 (2)
   47    21           1.3424135307          36.5289292639     SG+        A1 (1)
   48    98           1.4582064626          39.6798151297      PH        B1 (2)
   49   150           1.4582064626          39.6798151297      PH        B2 (3)
   50   195           1.4973994950          40.7463117606      DE        A2 (4)
   51    22           1.4973994950          40.7463117607      DE        A1 (1)
   52   151           1.5272726421          41.5592014197      PI        B2 (3)
   53    99           1.5272726421          41.5592014197      PI        B1 (2)
   54    23           1.5593096714          42.4309733079     SG+        A1 (1)
   55    24           1.6568363209          45.0848083585     SG+        A1 (1)
   56    25           1.7630730733          47.9756573606     SG+        A1 (1)
   57   196           1.7753605440          48.3100164372      DE        A2 (4)
   58    26           1.7753605441          48.3100164374      DE        A1 (1)
   59   152           1.8641842205          50.7270315521      PI        B2 (3)
   60   100           1.8641842205          50.7270315522      PI        B1 (2)
   61   153           1.9924471038          54.2172420458      PI        B2 (3)
   62   101           1.9924471038          54.2172420458      PI        B1 (2)
   63   197           2.1152486065          57.5588408187      PI        A2 (4)
   64    27           2.1152486065          57.5588408187      PI        A1 (1)
   65    28           2.2269441855          60.5982320423     SG+        A1 (1)
   66    29           2.2356742850          60.8357901274      DE        A1 (1)
   67   198           2.2356742850          60.8357901274      DE        A2 (4)
   68   102           2.2635727494          61.5949459367      PH        B1 (2)
   69   154           2.2635727494          61.5949459367      PH        B2 (3)
   70    30           2.3447234655          63.8031691867     SG+        A1 (1)
   71   155           2.3548434795          64.0785487680      PI        B2 (3)
   72   103           2.3548434795          64.0785487680      PI        B1 (2)
   73   199           2.3891539564          65.0121843086      DE        A2 (4)
   74    31           2.3891539564          65.0121843086      DE        A1 (1)
   75   104           2.4278135580          66.0641655510      PH        B1 (2)
   76   156           2.4278135580          66.0641655510      PH        B2 (3)
   77    32           2.6049153845          70.8833512510     SG+        A1 (1)
   78   157           2.6113297054          71.0578937985      PI        B2 (3)
   79   105           2.6113297054          71.0578937985      PI        B1 (2)
   80   158           3.0240961435          82.2898395993      PI        B2 (3)
   81   106           3.0240961435          82.2898395993      PI        B1 (2)
   82   200           3.1392853120          85.4242962272      DE        A2 (4)
   83    33           3.1392853120          85.4242962276      DE        A1 (1)
   84    34           3.1542680014          85.8319959330     SG+        A1 (1)
   85    35           3.3752544749          91.8453435882     SG+        A1 (1)
   86   159           3.7497371307         102.0355347124      PI        B2 (3)
   87   107           3.7497371307         102.0355347124      PI        B1 (2)
   88   201           3.7678004622         102.5270629515      PI        A2 (4)
   89    36           3.7678004622         102.5270629515      PI        A1 (1)
   90    37           3.9986134316         108.8078031548     SG+        A1 (1)
   91   108           4.0634784275         110.5728694295      PH        B1 (2)
   92   160           4.0634784275         110.5728694295      PH        B2 (3)
   93   202           4.1807507434         113.7640113793      DE        A2 (4)
   94    38           4.1807507434         113.7640113793      DE        A1 (1)
   95   161           4.2142124161         114.6745497848      PI        B2 (3)
   96   109           4.2142124161         114.6745497848      PI        B1 (2)
   97    39           4.3399122355         118.0950157628     SG+        A1 (1)
   98   203           4.4572464351         121.2878416524      DE        A2 (4)
   99    40           4.4572464351         121.2878416525      DE        A1 (1)
  100   110           4.4859044777         122.0676666386      PH        B1 (2)
  101   162           4.4859044777         122.0676666386      PH        B2 (3)
  102    41           4.6988031371         127.8609336859     SG+        A1 (1)
  103   111           4.8902985535         133.0717888800      PI        B1 (2)
  104   163           4.8902985535         133.0717888801      PI        B2 (3)
  105    42           5.1002436882         138.7846864329     SG+        A1 (1)
  106   204           5.2035458801         141.5956819840      DE        A2 (4)
  107    43           5.2035458801         141.5956819840      DE        A1 (1)
  108   112           5.3283732452         144.9924072724      PI        B1 (2)
  109   164           5.3283732452         144.9924072725      PI        B2 (3)
  110   205           5.9270418701         161.2830087540      PI        A2 (4)
  111    44           5.9270418701         161.2830087540      PI        A1 (1)
  112   165           5.9945753481         163.1206881177      PI        B2 (3)
  113   113           5.9945753481         163.1206881177      PI        B1 (2)
  114    45           6.1589380627         167.5932249602     SG+        A1 (1)
  115   114           6.3013753748         171.4691412711      PH        B1 (2)
  116   166           6.3013753748         171.4691412711      PH        B2 (3)
  117    46           6.3365814100         172.4271461936     SG+        A1 (1)
  118   206           6.3418282835         172.5699208803      DE        A2 (4)
  119    47           6.3418282835         172.5699208804      DE        A1 (1)
  120   115           6.4029701024         174.2336743542      PI        B1 (2)
  121   167           6.4029701024         174.2336743542      PI        B2 (3)
  122   116           6.5221606464         177.4770139449      PH        B1 (2)
  123   168           6.5221606464         177.4770139449      PH        B2 (3)
  124   207           6.7465237543         183.5822444944      DE        A2 (4)
  125    48           6.7465237543         183.5822444947      DE        A1 (1)
  126    49           7.1477177879         194.4992891623     SG+        A1 (1)
  127   117           7.9278163557         215.7268503800      PI        B1 (2)
  128   169           7.9278163557         215.7268503801      PI        B2 (3)
  129   208           8.0686929131         219.5602963944      DE        A2 (4)
  130    50           8.0686929131         219.5602963947      DE        A1 (1)
  131    51           8.5013068221         231.3323193360     SG+        A1 (1)
  132    52           8.8399594246         240.5475251431     SG+        A1 (1)
  133   118           8.9512873342         243.5769115741      PI        B1 (2)
  134   170           8.9512873342         243.5769115744      PI        B2 (3)
  135    53           9.8635389101         268.4005389642     SG+        A1 (1)
  136   171          10.1831298252         277.0970498866      PI        B2 (3)
  137   119          10.1831298252         277.0970498867      PI        B1 (2)
  138   209          10.6055851741         288.5926443540      PI        A2 (4)
  139    54          10.6055851741         288.5926443540      PI        A1 (1)
  140   172          11.0399187733         300.4114624444      PH        B2 (3)
  141   120          11.0399187733         300.4114624444      PH        B1 (2)
  142   210          11.3398456028         308.5728863952      DE        A2 (4)
  143    55          11.3398456028         308.5728863952      DE        A1 (1)
  144    56          11.3761940101         309.5619768423     SG+        A1 (1)
  145   173          11.4582078021         311.7936855804      PI        B2 (3)
  146   121          11.4582078021         311.7936855804      PI        B1 (2)
  147   174          11.8722167735         323.0594424323      PH        B2 (3)
  148   122          11.8722167735         323.0594424323      PH        B1 (2)
  149   211          12.4607144625         339.0732786767      DE        A2 (4)
  150    57          12.4607144625         339.0732786775      DE        A1 (1)
  151    58          12.7895246433         348.0206585716     SG+        A1 (1)
  152   212          13.1245776432         357.1379142108      DE        A2 (4)
  153    59          13.1245776432         357.1379142109      DE        A1 (1)
  154   175          13.1856780765         358.8005415286      PI        B2 (3)
  155   123          13.1856780765         358.8005415286      PI        B1 (2)
  156    60          14.1115652738         383.9952130397     SG+        A1 (1)
  157   124          15.1317513870         411.7558885041      PI        B1 (2)
  158   176          15.1317513870         411.7558885045      PI        B2 (3)
  159    61          15.6587667481         426.0967055540     SG+        A1 (1)
  160    62          18.8620976875         513.2637719020     SG+        A1 (1)
  161   125          19.6765579810         535.4263632147      PI        B1 (2)
  162   177          19.6765579811         535.4263632148      PI        B2 (3)
  163    63          21.5456146981         586.2859821376     SG+        A1 (1)
  164   213          26.7483823832         727.8604883589      DE        A2 (4)
  165    64          26.7483823832         727.8604883591      DE        A1 (1)
  166   126          27.7477328477         755.0541970004      PI        B1 (2)
  167   178          27.7477328477         755.0541970004      PI        B2 (3)
  168    65          29.0023534864         789.1941602195     SG+        A1 (1)
  169   179          33.9856531861         924.7966389464      PI        B2 (3)
  170   127          33.9856531861         924.7966389467      PI        B1 (2)
  171    66          36.0616020956         981.2860806414     SG+        A1 (1)
  172    67          37.4622486458        1019.3996109280     SG+        A1 (1)
  173   214          47.2133516582        1284.7406135689      DE        A2 (4)
  174    68          47.2133516582        1284.7406135690      DE        A1 (1)
  175   128          48.1713637472        1310.8094478268      PI        B1 (2)
  176   180          48.1713637472        1310.8094478270      PI        B2 (3)
  177    69          48.8086859630        1328.1518669897     SG+        A1 (1)
  178    70          64.8974730863        1765.9500218434     SG+        A1 (1)
  179   129          67.1079179598        1826.0992847788      PI        B1 (2)
  180   181          67.1079179598        1826.0992847790      PI        B2 (3)
  181    71          68.5263311263        1864.6962692734     SG+        A1 (1)
  182   182          98.7651353401        2687.5359642936      PH        B2 (3)
  183   130          98.7651353401        2687.5359642936      PH        B1 (2)
  184    72          98.8128988538        2688.8356755763      DE        A1 (1)
  185   215          98.8128988538        2688.8356755763      DE        A2 (4)
  186   131          98.8747557245        2690.5188866002      PI        B1 (2)
  187   183          98.8747557245        2690.5188866002      PI        B2 (3)
  188    73          98.9239518618        2691.8575815553     SG+        A1 (1)
  189   184         103.3007870514        2810.9573219763      PH        B2 (3)
  190   132         103.3007870514        2810.9573219763      PH        B1 (2)
  191    74         103.3706801155        2812.8592089423      DE        A1 (1)
  192   216         103.3706801156        2812.8592089438      DE        A2 (4)
  193   133         103.4489136549        2814.9880517759      PI        B1 (2)
  194   185         103.4489136549        2814.9880517759      PI        B2 (3)
  195    75         103.5552474663        2817.8815418867     SG+        A1 (1)
  196   217         115.3469755773        3138.7507764655      DE        A2 (4)
  197    76         115.3469755773        3138.7507764656      DE        A1 (1)
  198   134         115.8364641120        3152.0704366519      PI        B1 (2)
  199   186         115.8364641120        3152.0704366519      PI        B2 (3)
  200    77         116.3378374079        3165.7134976345     SG+        A1 (1)
  201   187         117.2114836866        3189.4866214801      PI        B2 (3)
  202   135         117.2114836867        3189.4866214803      PI        B1 (2)
  203    78         119.1028743582        3240.9539782035     SG+        A1 (1)
  204    79         123.3907420318        3357.6327894376     SG+        A1 (1)
  205   218         198.6445479426        5405.3929543852      DE        A2 (4)
  206    80         198.6445479426        5405.3929543853      DE        A1 (1)
  207   136         199.1739907539        5419.7998257129      PI        B1 (2)
  208   188         199.1739907539        5419.7998257132      PI        B2 (3)
  209    81         199.5280689818        5429.4347841267     SG+        A1 (1)
  210    82         217.3070450057        5913.2253171707     SG+        A1 (1)
  211   137         225.5000590411        6136.1685632891      PI        B1 (2)
  212   189         225.5000590411        6136.1685632893      PI        B2 (3)
  213    83         226.6443067322        6167.3051259165     SG+        A1 (1)
  214   138         395.6326421718       10765.7115116905      PI        B1 (2)
  215   190         395.6326421718       10765.7115116906      PI        B2 (3)
  216    84         397.0044721206       10803.0409023885     SG+        A1 (1)
  217    85         509.8196714597       13872.8985449513     SG+        A1 (1)
  218    86         896.1762004884       24386.1941854463     SG+        A1 (1)


  VSCF finished.

 @CHECKOUT-I, Total execution time (CPU/WALL):       50.77/      10.41 seconds.
--executable xvscf finished with status     0 in       10.42 seconds (walltime).
 --invoking executable--
/nfs/workspaces/public/cfour_mpi/bin/xvtran
 @GETMEM-I,  Allocated    3814 MB of main memory.
  Full RHF integral transformation
  Transformation of IIII integrals :
  1 pass through the AO integral file was required.
     4689670 AO integrals were read.
     8907291 MO integrals were written to HF2.
  Transformation of IIJJ integrals :
  1 pass through the AO integral file was required.
    10577989 AO integrals were read.
    14733700 MO integrals were written to HF2.
  Transformation of IJIJ integrals :
  1 pass through the AO integral file was required.
    20066131 AO integrals were read.
    28011732 MO integrals were written to HF2.
  Transformation of IJKL integrals :
  1 pass through the AO integral file was required.
    14816758 AO integrals were read.
    18967965 MO integrals were written to HF2.
  Summary of active molecular orbitals: 
------------------------------------------------------------------------
 
  Index      Eigenvalue    Symmetry    Index      Eigenvalue    Symmetry
------------------------------------------------------------------------
     1       -20.6524017        1       110         4.2142124        2
     2       -11.2844392        1       111         4.4859045        2
     3        -1.6395563        1       112         4.8902986        2
     4        -0.8188528        1       113         5.3283732        2
     5        -0.5304122        1       114         5.9945753        2
     6        -0.7239699        2       115         6.3013754        2
     7        -0.7239699        3       116         6.4029701        2
     8         0.0565499        1       117         6.5221606        2
     9         0.0779575        1       118         7.9278164        2
    10         0.1559301        1       119         8.9512873        2
    11         0.2264715        1       120        10.1831298        2
    12         0.2275504        1       121        11.0399188        2
    13         0.3028476        1       122        11.4582078        2
    14         0.3987861        1       123        11.8722168        2
    15         0.5074411        1       124        13.1856781        2
    16         0.5215519        1       125        15.1317514        2
    17         0.6608259        1       126        19.6765580        2
    18         0.7703703        1       127        27.7477328        2
    19         0.7933193        1       128        33.9856532        2
    20         0.8788103        1       129        48.1713637        2
    21         0.9060927        1       130        67.1079180        2
    22         0.9615517        1       131        98.7651353        2
    23         1.3424135        1       132        98.8747557        2
    24         1.4973995        1       133       103.3007871        2
    25         1.5593097        1       134       103.4489137        2
    26         1.6568363        1       135       115.8364641        2
    27         1.7630731        1       136       117.2114837        2
    28         1.7753605        1       137       199.1739908        2
    29         2.1152486        1       138       225.5000590        2
    30         2.2269442        1       139       395.6326422        2
    31         2.2356743        1       140         0.0652859        3
    32         2.3447235        1       141         0.1543224        3
    33         2.3891540        1       142         0.1992084        3
    34         2.6049154        1       143         0.3425038        3
    35         3.1392853        1       144         0.4048698        3
    36         3.1542680        1       145         0.6177389        3
    37         3.3752545        1       146         0.7504137        3
    38         3.7678005        1       147         0.8455256        3
    39         3.9986134        1       148         0.8707615        3
    40         4.1807507        1       149         1.1225779        3
    41         4.3399122        1       150         1.4582065        3
    42         4.4572464        1       151         1.5272726        3
    43         4.6988031        1       152         1.8641842        3
    44         5.1002437        1       153         1.9924471        3
    45         5.2035459        1       154         2.2635727        3
    46         5.9270419        1       155         2.3548435        3
    47         6.1589381        1       156         2.4278136        3
    48         6.3365814        1       157         2.6113297        3
    49         6.3418283        1       158         3.0240961        3
    50         6.7465238        1       159         3.7497371        3
    51         7.1477178        1       160         4.0634784        3
    52         8.0686929        1       161         4.2142124        3
    53         8.5013068        1       162         4.4859045        3
    54         8.8399594        1       163         4.8902986        3
    55         9.8635389        1       164         5.3283732        3
    56        10.6055852        1       165         5.9945753        3
    57        11.3398456        1       166         6.3013754        3
    58        11.3761940        1       167         6.4029701        3
    59        12.4607145        1       168         6.5221606        3
    60        12.7895246        1       169         7.9278164        3
    61        13.1245776        1       170         8.9512873        3
    62        14.1115653        1       171        10.1831298        3
    63        15.6587667        1       172        11.0399188        3
    64        18.8620977        1       173        11.4582078        3
    65        21.5456147        1       174        11.8722168        3
    66        26.7483824        1       175        13.1856781        3
    67        29.0023535        1       176        15.1317514        3
    68        36.0616021        1       177        19.6765580        3
    69        37.4622486        1       178        27.7477328        3
    70        47.2133517        1       179        33.9856532        3
    71        48.8086860        1       180        48.1713637        3
    72        64.8974731        1       181        67.1079180        3
    73        68.5263311        1       182        98.7651353        3
    74        98.8128989        1       183        98.8747557        3
    75        98.9239519        1       184       103.3007871        3
    76       103.3706801        1       185       103.4489137        3
    77       103.5552475        1       186       115.8364641        3
    78       115.3469756        1       187       117.2114837        3
    79       116.3378374        1       188       199.1739908        3
    80       119.1028744        1       189       225.5000590        3
    81       123.3907420        1       190       395.6326422        3
    82       198.6445479        1       191         0.2275504        4
    83       199.5280690        1       192         0.5215519        4
    84       217.3070450        1       193         0.7703703        4
    85       226.6443067        1       194         0.9060927        4
    86       397.0044721        1       195         1.4973995        4
    87       509.8196715        1       196         1.7753605        4
    88       896.1762005        1       197         2.1152486        4
    89         0.0652859        2       198         2.2356743        4
    90         0.1543224        2       199         2.3891540        4
    91         0.1992084        2       200         3.1392853        4
    92         0.3425038        2       201         3.7678005        4
    93         0.4048698        2       202         4.1807507        4
    94         0.6177389        2       203         4.4572464        4
    95         0.7504137        2       204         5.2035459        4
    96         0.8455256        2       205         5.9270419        4
    97         0.8707615        2       206         6.3418283        4
    98         1.1225779        2       207         6.7465238        4
    99         1.4582065        2       208         8.0686929        4
   100         1.5272726        2       209        10.6055852        4
   101         1.8641842        2       210        11.3398456        4
   102         1.9924471        2       211        12.4607145        4
   103         2.2635727        2       212        13.1245776        4
   104         2.3548435        2       213        26.7483824        4
   105         2.4278136        2       214        47.2133517        4
   106         2.6113297        2       215        98.8128989        4
   107         3.0240961        2       216       103.3706801        4
   108         3.7497371        2       217       115.3469756        4
   109         4.0634784        2       218       198.6445479        4
------------------------------------------------------------------------
  -20.6524016851239       -11.2844391808611       -1.63955625395929     
 -0.818852785592340      -0.530412190211448      -0.723969931531031     
 -0.723969931531717       5.654989222479335E-002  7.795748693874140E-002
  0.155930056806017       0.226471490024150       0.227550365972232     
  0.302847602119770       0.398786100183016       0.507441122451248     
  0.521551936880281       0.660825934846208       0.770370334113495     
  0.793319333132042       0.878810319320096       0.906092714603730     
  0.961551725424097        1.34241353065090        1.49739949497330     
   1.55930967140317        1.65683632087866        1.76307307333061     
   1.77536054405110        2.11524860653249        2.22694418550813     
   2.23567428502765        2.34472346550019        2.38915395637722     
   2.60491538445692        3.13928531202880        3.15426800141958     
   3.37525447486881        3.76780046219671        3.99861343156722     
   4.18075074342973        4.33991223550822        4.45724643505325     
   4.69880313714173        5.10024368819413        5.20354588014117     
   5.92704187005778        6.15893806267247        6.33658141002773     
   6.34182828353972        6.74652375427115        7.14771778792766     
   8.06869291307961        8.50130682205465        8.83995942459467     
   9.86353891012346        10.6055851741076        11.3398456028216     
   11.3761940101245        12.4607144625192        12.7895246432628     
   13.1245776431535        14.1115652738064        15.6587667481116     
[...]
 Convergence information after     6 iterations: 
 Largest element of residual vector : -0.37880855E-03.
 Largest element of DIIS residual   : -0.96698658E-04.
 Convergence information after     7 iterations: 
 Largest element of residual vector : -0.65926155E-04.
 Largest element of DIIS residual   : -0.29105419E-04.
 Convergence information after     8 iterations: 
 Largest element of residual vector : -0.17944164E-04.
 Largest element of DIIS residual   :  0.11433782E-04.
 Convergence information after     9 iterations: 
 Largest element of residual vector :  0.57920776E-05.
 Largest element of DIIS residual   :  0.26762946E-05.
 Convergence information after    10 iterations: 
 Largest element of residual vector :  0.21449526E-05.
 Largest element of DIIS residual   :  0.11832292E-05.
 Convergence information after    11 iterations: 
 Largest element of residual vector :  0.60624457E-06.
 Largest element of DIIS residual   :  0.32876334E-06.
 Convergence information after    12 iterations: 
 Largest element of residual vector :  0.24401178E-06.
 Largest element of DIIS residual   :  0.15924142E-06.
 Convergence information after    13 iterations: 
 Largest element of residual vector :  0.10082367E-06.
 Largest element of DIIS residual   :  0.78613468E-07.
 Perturbed amplitude equations converged in    13 iterations.
  Dominant contributions to perturbed wavefunction:
    7    7  142   37   0.2594465692 ABAB
    7    7   37  142   0.2594465692 ABAB
    7    7  142   63   0.2096941154 ABAB
    7    7   63  142   0.2096941154 ABAB
    5    5  142   43   0.1878065537 ABAB
    5    5   43  142   0.1878065537 ABAB
    7    7  142   48   0.1849047299 ABAB
    7    7   48  142   0.1849047299 ABAB
    7    7  142   27   0.1808500864 ABAB
    7    7   27  142   0.1808500864 ABAB
    7    6   37   91   0.1782328172 ABAB
    6    7   91   37   0.1782328172 ABAB
    5    5  142   54   0.1669516657 ABAB
    5    5   54  142   0.1669516657 ABAB
    7    7  142   43   0.1618781211 ABAB
    7    7   43  142   0.1618781211 ABAB
    7    7  143   37   0.1588758325 ABAB
    7    7   37  143   0.1588758325 ABAB
    5    5  142   30  -0.1528411772 ABAB
    5    5   30  142  -0.1528411772 ABAB
  norm of converged amps    2.93003406592025     
 Starting iterative solution of the perturbed Lambda equations.
 The DIIS procedure is used to accelerate convergence.
 Convergence criterion is 10**(-7).
 Maximum number of iterations is 100.
 Convergence information after     1 iterations: 
 Largest element of residual vector : -0.59823382E-01.
 Largest element of DIIS residual   : -0.59823382E-01.
 Convergence information after     2 iterations: 
 Largest element of residual vector :  0.57053891E-02.
 Largest element of DIIS residual   :  0.63505859E-02.
 Convergence information after     3 iterations: 
 Largest element of residual vector : -0.35733647E-02.
 Largest element of DIIS residual   : -0.31775947E-02.
 Convergence information after     4 iterations: 
 Largest element of residual vector : -0.22119632E-02.
 Largest element of DIIS residual   : -0.16535244E-02.
 Convergence information after     5 iterations: 
 Largest element of residual vector : -0.11513093E-02.
 Largest element of DIIS residual   : -0.51061154E-03.
 Convergence information after     6 iterations: 
 Largest element of residual vector : -0.35200676E-03.
 Largest element of DIIS residual   : -0.86207834E-04.
 Convergence information after     7 iterations: 
 Largest element of residual vector : -0.58688318E-04.
 Largest element of DIIS residual   : -0.24208789E-04.
 Convergence information after     8 iterations: 
 Largest element of residual vector : -0.14499913E-04.
 Largest element of DIIS residual   :  0.99911541E-05.
 Convergence information after     9 iterations: 
 Largest element of residual vector :  0.51436777E-05.
 Largest element of DIIS residual   :  0.23419012E-05.
 Convergence information after    10 iterations: 
 Largest element of residual vector :  0.18729166E-05.
 Largest element of DIIS residual   :  0.10586283E-05.
 Convergence information after    11 iterations: 
 Largest element of residual vector :  0.55668145E-06.
 Largest element of DIIS residual   :  0.31400922E-06.
 Convergence information after    12 iterations: 
 Largest element of residual vector :  0.22801433E-06.
 Largest element of DIIS residual   :  0.14761510E-06.
 Convergence information after    13 iterations: 
 Largest element of residual vector :  0.94192277E-07.
 Largest element of DIIS residual   :  0.71177600E-07.
 Perturbed Lambda equations converged in    13 iterations.
  Dominant contributions to perturbed wavefunction:
    7    7  142   37   0.2497389408 ABAB
    7    7   37  142   0.2497389408 ABAB
    7    7  142   63   0.2016245045 ABAB
    7    7   63  142   0.2016245045 ABAB
    5    5  142   43   0.1803461997 ABAB
    5    5   43  142   0.1803461997 ABAB
    7    7  142   48   0.1779606673 ABAB
    7    7   48  142   0.1779606673 ABAB
    7    7  142   27   0.1734444969 ABAB
    7    7   27  142   0.1734444969 ABAB
    7    6   37   91   0.1698704620 ABAB
    6    7   91   37   0.1698704620 ABAB
    5    5  142   54   0.1602695569 ABAB
    5    5   54  142   0.1602695569 ABAB
    7    7  142   43   0.1543993348 ABAB
    7    7   43  142   0.1543993348 ABAB
    7    7  143   37   0.1535792183 ABAB
    7    7   37  143   0.1535792183 ABAB
    5    5  142   30  -0.1469687194 ABAB
    5    5   30  142  -0.1469687194 ABAB
        The DBOC first-order density matrix is being calculated 
             (Symmetry block 3, perturbation   2)
 term   10.2803437299648     
 final tnorm  0.906361746069604     
  norm contr. I: |<0|L dT/dx|0>|^2   0.000000000000000E+000
  norm contr. II: <0|[nabla(1+L)e-T][nabla e^T]|0>   10.2803437299648     
  total norm contribution   10.2803437299648     
 oo  1.366557746604547E-002
 vv  -77.2285935935785     
 vo  1.935774144301629E-002
  Correlated perturbed 1-el contribution to DBOC  -77.1955702746694       cm**-1
  SUM_I |dc_I/dx|^2 contribution to DBOC   38.7025088077168       cm**-1
 
 
  The total diagonal Born-Oppenheimer correction (DBOC) is:      0.0040289525 a.u.
  The total diagonal Born-Oppenheimer correction (DBOC) is:        884.252873 cm-1
 
 Total CC energy including DBOC  -113.193613689074     
 First-order density matrix is being calculated  (Symmetry block 3, perturbation   2)
 Calculation of the contributions of <pq||rs> to dI(i,j)/dx required   1.7 seconds.
 Calculation of the contributions of <pq||rs> to dI(a,b)/dx required  15.4 seconds.
 Calculation of the contributions of <pq||rs> to dI(i,a)/dx required   9.4 seconds.
 First-order Z-vector equations are solved for 1 perturbation.
 Convergence reached after  17 iterations.
        U*G(pq,rs) contribution is being calculated
             (Symmetry block 3, perturbation   2)

 CCSD contribution to force constants 

        0.0000000000        0.0000000000        0.0000000000
        0.0000000000        0.0000000000        0.0000000000
        0.0000000000        0.0000000000        0.0000000000
        0.0000000000        0.0000000000        0.0000000000
        0.0000000000        0.0000000000        0.0000000000
        0.0000000000        0.0000000000        0.0000000000
        0.0000000000        0.0000000000        0.0000000000
        0.0000000000        0.0000000000        0.0000000000
        0.0000000000        0.0000000000        0.0000000000
        0.0000000000        0.0000000000        0.0000000000
        0.0000000000        0.0000000000        0.0000000000
        0.0000000000      -14.2133780536       14.2133780536

 CCSD contribution to dipole derivatives 

        0.0000000000        0.0000000000        0.0000000000
        0.0000000000        0.0000000000        0.0000000000
        0.0000000000        0.0000000000        0.0000000000
        0.0000000000        0.0000000000       -0.0374054406
        0.0000000000        0.0000000000        0.0000000000
        0.0000000000        0.0000000000        0.0000000000
 @CHECKOUT-I, Total execution time (CPU/WALL):      986.63/     269.98 seconds.
--executable xsdcc finished with status     0 in      270.01 seconds (walltime).
 --invoking executable--
/nfs/workspaces/public/cfour_mpi/bin/xanti
 @GETMEM-I,  Allocated    3814 MB of main memory.
 CCSD MO derivative gammas will be sorted to Mulliken order.
 @CHECKOUT-I, Total execution time (CPU/WALL):        9.57/       9.34 seconds.
--executable xanti finished with status     0 in        9.37 seconds (walltime).
 --invoking executable--
/nfs/workspaces/public/cfour_mpi/bin/xbcktrn
 @GETMEM-I,  Allocated    3814 MB of main memory.
 CCSD MO derivative gammas will be transformed to the AO basis.
 @CHECKOUT-I, Total execution time (CPU/WALL):       22.57/       3.96 seconds.
--executable xbcktrn finished with status     0 in        3.98 seconds (walltime).
 --invoking executable--
/nfs/workspaces/public/cfour_mpi/bin/xvdint
 @GETMEM-I,  Allocated    3814 MB of main memory.
 One- and two-electron integral derivatives are calculated
 for RHF-CC/MBPT hessians and dipole derivatives.
 Spherical gaussians are used.
  magnet F F
                    8722  records have been written to the Sort file.
  Total length of Sort file :             178609116  words.
 Evaluation of 2el integral derivatives

                      Two-electron integral gradient
                      ------------------------------

                         C #1 z     0.0000000000
                         O #2 z     0.0000000000


 C #1       0.0000000000           -1.7493006800            0.0000000000
 O #2       0.0000000000            1.7493006800            0.0000000000


 Evaluation of 2e integral derivatives required  340.89 seconds.
  contribution to Hessian
        0.0000000000        0.0000000000        0.0000000000
        0.0000000000       -1.7493006800        1.7493006800
 @CHECKOUT-I, Total execution time (CPU/WALL):      340.88/      74.52 seconds.
--executable xvdint finished with status     0 in       74.55 seconds (walltime).
 --invoking executable--
/nfs/workspaces/public/cfour_mpi/bin/xanti
 @GETMEM-I,  Allocated    3814 MB of main memory.
 CCSD MO gammas will be sorted to Mulliken order.
 @CHECKOUT-I, Total execution time (CPU/WALL):       11.67/      10.54 seconds.
--executable xanti finished with status     0 in       10.55 seconds (walltime).
 --invoking executable--
/nfs/workspaces/public/cfour_mpi/bin/xbcktrn
 @GETMEM-I,  Allocated    3814 MB of main memory.
 CCSD MO gammas will be transformed to the AO basis.
 @CHECKOUT-I, Total execution time (CPU/WALL):       28.12/       5.13 seconds.
--executable xbcktrn finished with status     0 in        5.16 seconds (walltime).
 --invoking executable--
/nfs/workspaces/public/cfour_mpi/bin/xvdint
 @GETMEM-I,  Allocated    3814 MB of main memory.
 One- and two-electron integral derivatives are calculated
 for RHF-CC/MBPT hessians and dipole derivatives.
 Spherical gaussians are used.
  magnet F F

                     Kinetic energy integral gradient
                     --------------------------------

                         C #1 z    -1.9705387923
                         O #2 z     1.9705387923


 C #1       0.0000000000            0.0000000000           -1.9705387923
 O #2       0.0000000000            0.0000000000            1.9705387923



                   Nuclear attraction integral gradient
                   ------------------------------------

                         C #1 z    27.8611358766
                         O #2 z   -27.8611358766


 C #1       0.0000000000            0.0000000000           27.8611358766
 O #2       0.0000000000            0.0000000000          -27.8611358766



                      Reorthonormalization gradient
                      -----------------------------

                         C #1 z     0.0000000000
                         O #2 z     0.0000000000


 C #1       0.0000000000            0.0000000000            0.0000000000
 O #2       0.0000000000            0.0000000000            0.0000000000



                     Kinetic energy integral Hessian
                     -------------------------------


           Symmetry 1

           C #1 z      O #2 z

 C #1 z    0.517373
 O #2 z   -0.517373    0.517373


           Symmetry 2

           C #1 x      O #2 x

 C #1 x   -3.613722
 O #2 x    3.613722   -3.613722


           Symmetry 3

           C #1 y      O #2 y

 C #1 y   -3.613722
 O #2 y    3.613722   -3.613722




           C #1 x      C #1 y      C #1 z      O #2 x      O #2 y      O #2 z

 C #1 x   -3.613722
 C #1 y    0.000000   -3.613722
 C #1 z    0.000000    0.000000    0.517373

 O #2 x    3.613722    0.000000    0.000000   -3.613722
 O #2 y    0.000000    3.613722    0.000000    0.000000   -3.613722
 O #2 z    0.000000    0.000000   -0.517373    0.000000    0.000000    0.517373




                   Nuclear attraction integral Hessian
                   -----------------------------------


           Symmetry 1

           C #1 z      O #2 z

 C #1 z  -12.397098
 O #2 z   12.397098  -12.397098


           Symmetry 2

           C #1 x      O #2 x

 C #1 x   32.205788
 O #2 x  -32.205788   32.205788


           Symmetry 3

           C #1 y      O #2 y

 C #1 y   32.205788
 O #2 y  -32.205788   32.205788




           C #1 x      C #1 y      C #1 z      O #2 x      O #2 y      O #2 z

 C #1 x   32.205788
 C #1 y    0.000000   32.205788
 C #1 z    0.000000    0.000000  -12.397098

 O #2 x  -32.205788    0.000000    0.000000   32.205788
 O #2 y    0.000000  -32.205788    0.000000    0.000000   32.205788
 O #2 z    0.000000    0.000000   12.397098    0.000000    0.000000  -12.397098




                Highest order reorthonormalization Hessian
                ------------------------------------------


           Symmetry 1

           C #1 z      O #2 z

 C #1 z    0.000000
 O #2 z    0.000000    0.000000


           Symmetry 2

           C #1 x      O #2 x

 C #1 x    0.000000
 O #2 x    0.000000    0.000000


           Symmetry 3

           C #1 y      O #2 y

 C #1 y    0.000000
 O #2 y    0.000000    0.000000




           C #1 x      C #1 y      C #1 z      O #2 x      O #2 y      O #2 z




                Electronic contributions to dipole moment
                -----------------------------------------

                               au             Debye

                    z      0.24919043      0.63337900

  Conversion factor used: 1 a.u. =   2.54174691 Debye 



   Electronic contributions to static part of dipole moment derivatives
   --------------------------------------------------------------------


                     Total dipole moment derivatives
                     -------------------------------


           Symmetry 1
                              Ez

               C #1 z    -5.84317550
               O #2 z    -8.15682450

           Symmetry 2
                              Ex

               C #1 x    -5.89593743
               O #2 x    -8.10406257

           Symmetry 3
                              Ey

               C #1 y    -5.89593743
               O #2 y    -8.10406257



                       Ex          Ey          Ez

      C #1    x   -5.895937    0.000000    0.000000
      C #1    y    0.000000   -5.895937    0.000000
      C #1    z    0.000000    0.000000   -5.843176

      O #2    x   -8.104063    0.000000    0.000000
      O #2    y    0.000000   -8.104063    0.000000
      O #2    z    0.000000    0.000000   -8.156824

 Evaluation of 1e integral derivatives required    1.66 seconds.
                    8815  records have been written to the Sort file.
  Total length of Sort file :             180513570  words.
 Evaluation of 2el integral derivatives

                      Two-electron integral gradient
                      ------------------------------

                         C #1 z   -11.8322405225
                         O #2 z    11.8322405225


 C #1       0.0000000000            0.0000000000          -11.8322405225
 O #2       0.0000000000            0.0000000000           11.8322405225


 Evaluation of 2e integral derivatives required  674.78 seconds.

                            Molecular gradient
                            ------------------

                         C #1 z    -0.4637931779
                         O #2 z     0.4637931779


 C #1       0.0000000000            0.0000000000           -0.4637931779
 O #2       0.0000000000            0.0000000000            0.4637931779


  Molecular gradient norm 0.656E+00

                            Molecular hessian
                            -----------------


           Symmetry 1

           C #1 z      O #2 z

 C #1 z  102.443868
 O #2 z -102.443868  102.443868


           Symmetry 2

           C #1 x      O #2 x

 C #1 x   15.007762
 O #2 x  -15.007762   15.007762


           Symmetry 3

           C #1 y      O #2 y

 C #1 y   15.007762
 O #2 y  -15.007762   15.007762




           C #1 x      C #1 y      C #1 z      O #2 x      O #2 y      O #2 z

 C #1 x   15.007762
 C #1 y    0.000000   15.007762
 C #1 z    0.000000    0.000000  102.443868

 O #2 x  -15.007762    0.000000    0.000000   15.007762
 O #2 y    0.000000  -15.007762    0.000000    0.000000   15.007762
 O #2 z    0.000000    0.000000 -102.443868    0.000000    0.000000  102.443868




                           Total dipole moment
                           -------------------

                               au             Debye

                    z     -0.25596539     -0.65059923

  Conversion factor used: 1 a.u. =   2.54174691 Debye 



                     Total dipole moment derivatives
                     -------------------------------


           Symmetry 1
                              Ez

               C #1 z     0.65432623
               O #2 z    -0.65432623

           Symmetry 2
                              Ex

               C #1 x    -0.14416863
               O #2 x     0.14416863

           Symmetry 3
                              Ey

               C #1 y    -0.14416863
               O #2 y     0.14416863



                       Ex          Ey          Ez

      C #1    x   -0.144169    0.000000    0.000000
      C #1    y    0.000000   -0.144169    0.000000
      C #1    z    0.000000    0.000000    0.654326

      O #2    x    0.144169    0.000000    0.000000
      O #2    y    0.000000    0.144169    0.000000
      O #2    z    0.000000    0.000000   -0.654326

 @CHECKOUT-I, Total execution time (CPU/WALL):      676.44/     120.73 seconds.
--executable xvdint finished with status     0 in      120.74 seconds (walltime).
 --invoking executable--
/nfs/workspaces/public/cfour_mpi/bin/xjoda
  @GTFLGS-I, Hessian will be transformed to curvilinear coordinates.
  @GTFLGS-I, Hessian will be transformed to curvilinear coordinates.
  igrd and ihes are                      0                     1
  gradient from JOBARC 
   0.000000000000000   0.000000000000000  -0.463793177928495
   0.000000000000000   0.000000000000000   0.463793177928495
 
  @PROJFCM-I, Projecting force constant matrix onto totally symmetric subspace.
  Largest difference between matrix elements of symmetrized
  and unsymmetrized FCM :    -0.1890931856E-10.
  read isotopes from ZMAT file 
 
  Summary of diagonal Born-Oppenheimer correction at the correlated level
  The total diagonal Born-Oppenheimer correction (DBOC) is:      0.0040289525 a.u.
  The total diagonal Born-Oppenheimer correction (DBOC) is:        884.252873 cm-1
  The total diagonal Born-Oppenheimer correction (DBOC) is:            10.578 kJ/mole
  hellooooooo 
  readis is  F
 
 @CHECKOUT-I, Total execution time (CPU/WALL):        0.01/       0.05 seconds.
--executable xjoda finished with status     0 in        0.07 seconds (walltime).
  The final electronic energy is      -113.193613689074127 a.u. 
  This computation required                         2802.56 seconds (walltime).
