 --invoking executable--
/nfs/workspaces/public/cfour_mpi/bin/xjoda


   *************************************************************************
         <<<     CCCCCC     CCCCCC   |||     CCCCCC     CCCCCC   >>>
       <<<      CCC        CCC       |||    CCC        CCC         >>>
      <<<      CCC        CCC        |||   CCC        CCC            >>>
    <<<        CCC        CCC        |||   CCC        CCC              >>>
      <<<      CCC        CCC        |||   CCC        CCC            >>>
       <<<      CCC        CCC       |||    CCC        CCC         >>>
         <<<     CCCCCC     CCCCCC   |||     CCCCCC     CCCCCC   >>>
   *************************************************************************

     ****************************************************************
     * CFOUR Coupled-Cluster techniques for Computational Chemistry *
     ****************************************************************
 

   Department of Chemistry                Institut fuer Physikalische Chemie
   University of Florida                  Universitaet Mainz
   Gainesville, FL 32611, USA             D-55099 Mainz, Germany

   Department of Chemistry                Fakultaet fuer Chemie und Biowiss.
   Johns Hopkins University               Karlsruher Institut fuer Technologie
   Baltimore, MD 21218, USA               D-76131 Karlsruhe, Germany

   Department of Chemistry                Department of Physical Chemistry
   Southern Methodist University          Eotvos Lorand University
   Dallas, TX 75275, USA                  H-1053 Budapest, Hungary

 
                       Version 2.1
 
                     vincent.theory.phys.ucl.ac.uk                     
                     Fri 28 Feb 22:18:26 GMT 2025                      
                     integer*8 version is running
 
********************************************************************************
*                          Input from ZMAT file                                *
********************************************************************************
Carbon Monoxide DBOC calculation                                                
C                                                                               
O 1 r                                                                           
                                                                                
r=1.7379310344827585                                                            
                                                                                
                                                                                
*CFOUR(CALC=CCSD,BASIS=AUG-PCVQZ,SCF_CONV=10                                    
CC_CONV=14,DBOC=ON,MEMORY=500000000                                             
ZFIELD=-200)                                                                    
                                                                                
%isotopes                                                                       
13                                                                              
16                                                                              
********************************************************************************
  @GTFLGS-I, Hessian will be transformed to curvilinear coordinates.
    -------------------------------------------------------------------
                    CFOUR Control Parameters 
    -------------------------------------------------------------------
        External           Internal           Value            Units
          Name               Name
    -------------------------------------------------------------------
       ABCDTYPE             IABCDT         STANDARD    [  0]    ***   
       ANHARMONIC           IANHAR         OFF         [  0]    ***   
       ANH_ALGORIT          IANALG         STANDARD    [  0]    ***   
       ANH_DERIVAT          IANDER         SECOND      [  1]    ***   
       ANH_MODE             ANHMOD         VIBRATION   [  0]    ***   
       ANH_STEPSIZ          ICUBST             50000          x 10-6  
       ANH_SYMMETR          IANHSM         ABELIAN     [  0]    ***   
       AO_LADDERS           IAOLAD         SINGLEPASS  [  1]    ***   
       AV_SCF               IAVSCF         OFF         [  0]    ***   
       BASIS                IBASIS         AUG-PCVQZ   [ 52]    ***   
       BOTHVECTORS          BOTHVC         OFF         [  0]    ***   
       BOX_POTENT           IPIAB          OFF         [  0]    ***   
       BREIT                IBREIT         OFF         [  0]    ***   
       BRUCK_CONV           IBRTOL          10D-  4             ***   
       BRUECKNER            IBRKNR         OFF         [  0]    ***   
       BUFFERSIZE           IBUFFS              4096            ***   
       CACHE_RECS           ICHREC             10               ***   
       CALCLEVEL            ICLLVL         CCSD        [ 10]    ***   
       CCORBOPT             ICCORB         OFF         [  0]  x 0.01  
       CC_CONV              ICCCNV          10D- 14             ***   
       CC_EXPORDER          ICCEOR              5               ***   
       CC_EXTRAPOL          ICCEXT         DIIS        [  1]    ***   
       CC_GUESS             ICCGES         MP2         [  0]    ***   
       CC_MAXCYC            ICCCYC            100              cycles 
       CC_PROGRAM           ICCPRO         VCC         [  0]    ***   
       CHARGE               ICHRGE              0               ***   
       CHOLESKY             ICHOLE         OFF         [  0]    ***   
       CIS_CONV             ICISTL              5               ***   
       COMM_SIZE            IPSIZE            ***               ***   
       CONSTANT             ICONST         OLD         [  1]    ***   
       CONTINUUM            ICONTU         NONE        [  0]    ***   
       CONTRACTION          ICNTYP         GENERAL     [  1]    ***   
       COORDINATES          ICOORD         INTERNAL    [  0]    ***   
       CPHF_CONVER          ICPHFT          10D- 16             ***   
       CPHF_MAXCYC          ICPHFC             64              cycles 
       CUBIC                ICUBIC         OFF         [  0]    ***   
       CURVILINEAR          ICURVY         ON          [  1]    ***   
       DBOC                 IDBOC          ON          [  1]    ***   
       DCT                  IDCT           OFF         [  0]    ***   
       DERIV_LEV            IDRLVL         SECOND      [  2]    ***   
       DEVMEM_SIZE          IDVMEM          50000000           MByte  
       DIAG_MRCC            IEOMST          10D-  0             ***   
       DIFF_TYPE            IDIFTY         RELAXED     [  0]    ***   
       DIRECT               IDIRCT         OFF         [  0]    ***   
       DROPMO               IDRPMO      NONE         
       ECP                  IECP           OFF         [  0]    ***   
       EIGENVECTOR          IVEC                1               ***   
       EL_ANHARM            IELANH         OFF         [  0]    ***   
       EOMFOLLOW            IEOMSR         ENERGY      [  0]    ***   
       EOMIP                IEOMIP         OFF         [  0]    ***   
       EOMLEVEL             HBARFM         SAME        [  0]    ***   
       EOM_MRCC             IMRCCE         NEW         [  1]    ***   
       EOM_NONIT            EOMNON         OFF         [  0]    ***   
       EOM_NSING            IEOMSI          10D-  0             ***   
       EOM_NSTATES          IMRCCD         DAVIDSON    [  0]    ***   
       EOM_NTRIP            IEOMTR          10D-  0             ***   
       EOM_ORDER            IEXORD         ENERGY      [  0]    ***   
       EOM_PROPSTA          IEOMST              0               ***   
       ESTATE_CONV          IEXTOL          10D-  5             ***   
       ESTATE_DIAG          IEXDIG         ITERATIVE   [  0]    ***   
       ESTATE_LOCK          IESLOC         ON          [  1]    ***   
       ESTATE_MAXC          IEXMXC             40               ***   
       ESTATE_PROP          IEXPRP         OFF         [  0]    ***   
       EVAL_HESS            IRECAL              0            # of cyc.
       EXCITATION           IEXCIT              0               ***   
       EXCITE               IEXCIT         NONE        [  0]    ***   
       EXTERN_POT           IEXPOT         OFF         [  0]    ***   
       FCGRADNEW            IFCGNW         OFF         [  0]    ***   
       FC_FIELD             IFINFC              0             x 10-6  
       FD_CALTYPE           IFDCAL         GRADONLY    [  0]    ***   
       FD_PROJECT           IFDPRJ         OFF         [  1]    ***   
       FD_STEPSIZE          IDISFD              0            10-4 bohr
       FD_USEGROUP          IFDGRP         FULL        [  0]    ***   
       FILE_RECSIZ          IFLREC              4096           words  
       FINITE_PERT          IFIPER              0             x 10-6  
       FIXGEOM              IFIXGM         OFF         [  0]    ***   
       FOCK                 IFOCK          AO          [  1]    ***   
       FREQ_ALGORI          IVIALG         STANDARD    [  0]    ***   
       FROZEN_CORE          IFROCO         OFF         [  0]    ***   
       GAMMA_ABCD           IGABCD         STORE       [  0]    ***   
       GAMMA_ABCI           IGABCI         STORE       [  0]    ***   
       GENBAS_1             IGNBS1              0               ***   
       GENBAS_2             IGNBS2              0               ***   
       GENBAS_3             IGNBS3              0               ***   
       GENBAS_4             IGNBS4              0               ***   
       GEO_CONV             ICONTL              5              H/bohr 
       GEO_MAXCYC           IOPTCY             50               ***   
       GEO_MAXSTEP          IMXSTP            300            millibohr
       GEO_METHOD           INR            SINGLE_POINT[  5]    ***   
       GIAO                 IGIAO          OFF         [  1]    ***   
       GIMIC                IGIMIC         OFF         [  0]    ***   
       GRID                 IGRID          OFF         [  0]    ***   
       GRID_ALGO            IGALGO         SERIAL      [  0]    ***   
       GUESS                IGUESS         MOREAD      [  0]    ***   
       HBAR                 IHBAR          OFF         [  0]    ***   
       HESS_TYPE            IHESTP         SCF         [  0]    ***   
       HF2_FILE             IHF2Fl         USE         [  1]    ***   
       HFSTABILITY          ISTABL         OFF         [  0]    ***   
       INCORE               INCORE         OFF         [  0]    ***   
       INPUT_MRCC           IMRCC          ON          [  1]    ***   
       INTEGRALS            INTTYP         VMOL        [  1]    ***   
       JODA_PRINT           IJPRNT              0               ***   
       KEYWORD_OUT          IDMPKW         NO          [  0]    ***   
       LINDEP_TOL           ILINDP              8               ***   
       LINEQ_CONV           IZTACN          10D-  7           cycles  
       LINEQ_EXPOR          ILMAXD              5               ***   
       LINEQ_MAXCY          ILMAXC            100               ***   
       LINEQ_TYPE           ILTYPE         DIIS        [  1]    ***   
       LOCK_ORBOCC          ILOCOC         OFF         [  0]    ***   
       MEMORY_SIZE          IMEMSZ         500000000           words  
       MEM_UNIT             IMEMU          INTEGERWORDS[  0]    ***   
       MRCC                 IMRCCC         OFF         [  0]    ***   
       MULTIPLICTY          IMULTP              1               ***   
       NACOUPLING           IVCOUP         OFF         [  0]    ***   
       NEGEVAL              IDIE           ABORT       [  0]    ***   
       NEWNORM              INEWNO         OFF         [  0]    ***   
       NON-HF               INONHF         OFF         [  0]    ***   
       NTOP_TAMP            ITOPT2             15               ***   
       NUC_MODEL            INUCMO         POINT       [  0]    ***   
       OCCUPATION           IOCCU   ESTIMATED BY SCF 
       OPEN-SHELL           IOPEN          SPIN-ORBITAL[  0]    ***   
       OPTVIB               IOPTVB         OFF         [  0]    ***   
       ORBITALS             IORBTP         STANDARD    [  0]    ***   
       PARALLEL             IPARAL         ON          [  1]    ***   
       PARA_INT             IPINTS         ON          [  1]    ***   
       PARA_PRINT           IPPRIN              0               ***   
       PERT_ORB             IPTORB         STANDARD    [  0]    ***   
       POINTS               IGRDFD              0               ***   
       PRINT                IPRNT               0               ***   
       PROPS                IPROPS         OFF         [  0]    ***   
       PROP_INTEGR          IINTYP         INTERNAL    [  0]    ***   
       PSI                  IPSI           OFF         [  0]    ***   
       QC_ALG               IQCALG         FLM         [  0]    ***   
       QC_LINALG            IQCLIN         TRIDIAG     [  2]    ***   
       QC_MAXCYC            IQCMAX          10D-100           cycles  
       QC_MAXSCFCY          IQCMSC          10D- 15           cycles  
       QC_RTRUST            IQCRTR          10D-  0           x 10-3  
       QC_SKIPSCF           IQCSKI         OFF         [  0]    ***   
       QC_START             IQCSTA          10D-  1             ***   
       QRHFGUESS            IQGUES         OFF         [  0]    ***   
       QUARTIC              IQUART         OFF         [  0]    ***   
       RAMAN_INT            IRAMIN         OFF         [  0]    ***   
       RAMAN_ORB            IRAMRE         UNRELAXED   [  0]    ***   
       RDO                  IRDOFM         ON          [  1]    ***   
       REDUCE_REPR          REDREP         Ir          [  0]    ***   
       REFERENCE            IREFNC         RHF         [  0]    ***   
       RELATIVIST           IRELAT         OFF         [  0]    ***   
       RELAX_DENS           IRDENS         ON          [  1]    ***   
       RESET_FLAGS          IRESET         OFF         [  0]    ***   
       RESTART_CC           ICCRES         OFF         [  0]    ***   
       ROT_EVEC             ROTVEC              0               ***   
       SAVE_INTS            ISVINT         OFF         [  0]    ***   
       SCALE_ON             ISTCRT              0               ***   
       SCF_CONV             ISCFCV          10D- 10             ***   
       SCF_DAMPING          IDAMP               0             x 10-3  
       SCF_EXPORDE          IRPPOR              6               ***   
       SCF_EXPSTAR          IRPPLS              8               ***   
       SCF_EXTRAPO          IRPP           ON          [  1]    ***   
       SCF_MAXCYC           ISCFCY            150              cycles 
       SCF_NOSTOP           ISCFST         OFF         [  0]    ***   
       SCF_PRINT            ISCFPR              0               ***   
       SCF_PROG             ISCFPR         SCF         [  0]    ***   
       SD_FIELD             IFINSD              0             x 10-6  
       SOPERT               IPERSO         OFF         [  0]    ***   
       SPHERICAL            IDFGHI         ON          [  1]    ***   
       SPINORBIT            ISOCAL         OFF         [  0]    ***   
       SPINROTATIO          ISRCON         OFF         [  0]    ***   
       SPIN_FLIP            ISPFLP         OFF         [  0]    ***   
       SPIN_ORBIT           ISPORB         OFF         [  0]    ***   
       SPIN_SCAL            ISCSMP         OFF         [  0]    ***   
       STEEPSCALE           ISTPSC              1000          x 10-3  
       SUBGROUP             ISUBGP         DEFAULT     [  0]    ***   
       SUBGRPAXIS           ISBXYZ         X           [  0]    ***   
       SYMMETRY             ISYM           ON          [  0]    ***   
       SYM_CHECK            ISYMCK         OVERRIDE    [  1]    ***   
       T3_EXTRAPOL          IT3EXT         OFF         [  0]    ***   
       T4_EXTRAPOL          IT4EXP         OFF         [  0]    ***   
       TAMP_SUM             IEVERY              5               ***   
       TESTSUITE            ITESTS         OFF         [  0]    ***   
       THERMOCH             ITHERM         OFF         [  0]    ***   
       TOL_CHOLESK          ITOLCH          10D-  4             ***   
       TRANGRAD             IRESRM         OFF         [  0]    ***   
       TRANS_INV            ITRAIN         IGNORE      [  1]    ***   
       TREAT_PERT           ITREAT         SIMULTANEOUS[  0]    ***   
       TRIP_ALGORI          ITRALG         NORMAL      [  0]    ***   
       UIJ_THRESHO          IUIJTH              1               ***   
       UNITS                IUNITS         ANGSTROM    [  0]    ***   
       UNOS                 IUNOS          OFF         [  0]    ***   
       UPDATE_HESS          IHUPDT         ON          [  1]    ***   
       VIBPHASE             ISETPH         STANDARD    [  0]    ***   
       VIBRATION            IVIB           ANALYTIC    [  1]    ***   
       VIB_ALGORIT          IGEALG         STANDARD    [  0]    ***   
       VNATORB              IVNORB         OFF         [  0]    ***   
       VTRAN                IVTRAN         FULL/PARTIAL[  0]    ***   
       XFIELD               IXEFLD              0             x 10-6  
       XFORM_TOL            IXFTOL          10D- 11             ***   
       YFIELD               IYEFLD              0             x 10-6  
       ZFIELD               IZEFLD            ***             x 10-6  
       ZSCALE_EXP           IZEXPS         OFF         [  0]    ***   
    -------------------------------------------------------------------
   2 entries found in Z-matrix 
   Job Title : Carbon Monoxide DBOC calculation                                                
   There are  1 unique internal coordinates.
   Of these,  0 will be optimized.
   User supplied Z-matrix: 
--------------------------------------------------------------------------------
       SYMBOL    BOND      LENGTH    ANGLE     ANGLE     DIHED     ANGLE
                  TO      (ANGST)    WRT      (DEG)      WRT      (DEG)
--------------------------------------------------------------------------------
        C    
        O          1         r    
                  *Initial values for internal coordinates* 
                      Name             Value
                        r               1.7379310345
--------------------------------------------------------------------------------
  read isotopes from ZMAT file 
   Rotational constants (in cm-1): 
          0.7781551916             0.7781551916
   Rotational constants (in MHz): 
      23328.5090273077         23328.5090273077
********************************************************************************
   The full molecular point group is CXv .
   The largest Abelian subgroup of the full molecular point group is C2v .
   The computational point group is C2v .
********************************************************************************
--------------------------------------------------------------------------------
   Analysis of internal coordinates specified by Z-matrix 
--------------------------------------------------------------------------------
   *The nuclear repulsion energy is   14.615367523809523 a.u.
   *There is   1 degree of freedom within the tot. symm. molecular subspace.
   *Z-matrix requests optimization of   0 coordinates.
   *The optimization is constrained.
   *The following   1 parameters can have non-zero 
    derivatives within the totally symmetric subspace:
             r    [ 1]
   *The following   0 parameters are to be optimized:

   *The following coordinates must be varied in an  unconstrained optimization.
             r    [ 1]
--------------------------------------------------------------------------------


 ----------------------------------------------------------------
         Coordinates used in calculation (QCOMP) 
 ----------------------------------------------------------------
 Z-matrix   Atomic            Coordinates (in bohr)
  Symbol    Number           X              Y              Z
 ----------------------------------------------------------------
     C         6        -0.00000000     0.00000000     1.81151253
     O         8         0.00000000     0.00000000    -1.47270184
 ----------------------------------------------------------------
 
   Interatomic distance matrix (Angstroms) 
 
                 C             O    
                [ 1]        [ 2]
  C    [ 1]     0.00000
  O    [ 2]     1.73793     0.00000
 rotcon2
   Rotational constants (in cm-1): 
          0.7781551916             0.0000000000
   Rotational constants (in MHz): 
      23328.5090273077             0.0000000000
  ECPDATA file not present.   Using default ECPDATA. 
  @GTFLGS-I, Hessian will be transformed to curvilinear coordinates.
  There are  218 basis functions.
 @CHECKOUT-I, Total execution time (CPU/WALL):        0.33/       0.50 seconds.
--executable xjoda finished with status     0 in        0.54 seconds (walltime).
 --invoking executable--
/nfs/workspaces/public/cfour_mpi/bin/xvmol
 SERIAL VERSION OF MOLECULE STARTED
********************************************************************************
                    INPUT FROM MOL FILE
********************************************************************************
INTGRL        1    0    1    0    0    0    0    0    0                         
         *** CFOUR Program System (Release V0.1) ***                            
Carbon Monoxide DBOC calculation                                                
    2    2 X  Y       0.10E-08              0    0                              
   9999.00      3.00                                                            
          6.00000000    1    5    1    1    1    1    1                         
C #1  -0.000000000000000   0.000000000000000   1.811512528557828                
   16    9                                                                      
   33980.0000000000       9.100000000000000E-005 -1.900000000000000E-005        
  0.000000000000000E+000  0.000000000000000E+000  0.000000000000000E+000        
  0.000000000000000E+000  0.000000000000000E+000  0.000000000000000E+000        
  0.000000000000000E+000                                                        
   5089.00000000000       7.040000000000000E-004 -1.510000000000000E-004        
  0.000000000000000E+000  0.000000000000000E+000  0.000000000000000E+000        
  0.000000000000000E+000  0.000000000000000E+000  0.000000000000000E+000        
  0.000000000000000E+000                                                        
   1157.00000000000       3.693000000000000E-003 -7.850000000000000E-004        
  0.000000000000000E+000  0.000000000000000E+000  0.000000000000000E+000        
  0.000000000000000E+000  0.000000000000000E+000  0.000000000000000E+000        
  0.000000000000000E+000                                                        
   326.600000000000       1.536000000000000E-002 -3.324000000000000E-003        
  0.000000000000000E+000  0.000000000000000E+000  0.000000000000000E+000        
  0.000000000000000E+000  0.000000000000000E+000  0.000000000000000E+000        
  0.000000000000000E+000                                                        
   106.100000000000       5.292900000000000E-002 -1.151200000000000E-002        
  0.000000000000000E+000  0.000000000000000E+000  0.000000000000000E+000        
  0.000000000000000E+000  0.000000000000000E+000  0.000000000000000E+000        
  0.000000000000000E+000                                                        
   38.1100000000000       0.147043000000000      -3.416000000000000E-002        
  0.000000000000000E+000  0.000000000000000E+000  0.000000000000000E+000        
  0.000000000000000E+000  0.000000000000000E+000  0.000000000000000E+000        
  0.000000000000000E+000                                                        
   14.7500000000000       0.305631000000000      -7.717300000000001E-002        
  0.000000000000000E+000  0.000000000000000E+000  0.000000000000000E+000        
  0.000000000000000E+000  0.000000000000000E+000  0.000000000000000E+000        
  0.000000000000000E+000                                                        
   6.03500000000000       0.399345000000000      -0.141493000000000             
  0.000000000000000E+000  0.000000000000000E+000  0.000000000000000E+000        
  0.000000000000000E+000  0.000000000000000E+000  0.000000000000000E+000        
  0.000000000000000E+000                                                        
   2.53000000000000       0.217051000000000      -0.118019000000000             
  0.000000000000000E+000  0.000000000000000E+000  0.000000000000000E+000        
  0.000000000000000E+000  0.000000000000000E+000  0.000000000000000E+000        
  0.000000000000000E+000                                                        
  0.735500000000000       1.589400000000000E-002  0.273806000000000             
   1.00000000000000       0.000000000000000E+000  0.000000000000000E+000        
  0.000000000000000E+000  0.000000000000000E+000  0.000000000000000E+000        
  0.000000000000000E+000                                                        
  0.290500000000000      -3.084000000000000E-003  0.586510000000000             
  0.000000000000000E+000   1.00000000000000       0.000000000000000E+000        
  0.000000000000000E+000  0.000000000000000E+000  0.000000000000000E+000        
  0.000000000000000E+000                                                        
  0.111100000000000       9.779999999999999E-004  0.285430000000000             
  0.000000000000000E+000  0.000000000000000E+000   1.00000000000000             
  0.000000000000000E+000  0.000000000000000E+000  0.000000000000000E+000        
  0.000000000000000E+000                                                        
   7.21600000000000       0.000000000000000E+000  0.000000000000000E+000        
  0.000000000000000E+000  0.000000000000000E+000  0.000000000000000E+000        
   1.00000000000000       0.000000000000000E+000  0.000000000000000E+000        
  0.000000000000000E+000                                                        
   19.5700000000000       0.000000000000000E+000  0.000000000000000E+000        
  0.000000000000000E+000  0.000000000000000E+000  0.000000000000000E+000        
  0.000000000000000E+000   1.00000000000000       0.000000000000000E+000        
  0.000000000000000E+000                                                        
   53.0730000000000       0.000000000000000E+000  0.000000000000000E+000        
  0.000000000000000E+000  0.000000000000000E+000  0.000000000000000E+000        
  0.000000000000000E+000  0.000000000000000E+000   1.00000000000000             
  0.000000000000000E+000                                                        
  4.145000000000000E-002  0.000000000000000E+000  0.000000000000000E+000        
  0.000000000000000E+000  0.000000000000000E+000  0.000000000000000E+000        
  0.000000000000000E+000  0.000000000000000E+000  0.000000000000000E+000        
   1.00000000000000                                                             
   10    8                                                                      
   34.5100000000000       5.378000000000000E-003  0.000000000000000E+000        
  0.000000000000000E+000  0.000000000000000E+000  0.000000000000000E+000        
  0.000000000000000E+000  0.000000000000000E+000  0.000000000000000E+000        
   7.91500000000000       3.613200000000000E-002  0.000000000000000E+000        
  0.000000000000000E+000  0.000000000000000E+000  0.000000000000000E+000        
  0.000000000000000E+000  0.000000000000000E+000  0.000000000000000E+000        
   2.36800000000000       0.142493000000000       0.000000000000000E+000        
  0.000000000000000E+000  0.000000000000000E+000  0.000000000000000E+000        
  0.000000000000000E+000  0.000000000000000E+000  0.000000000000000E+000        
  0.813200000000000       0.342150000000000        1.00000000000000             
  0.000000000000000E+000  0.000000000000000E+000  0.000000000000000E+000        
  0.000000000000000E+000  0.000000000000000E+000  0.000000000000000E+000        
  0.289000000000000       0.463864000000000       0.000000000000000E+000        
   1.00000000000000       0.000000000000000E+000  0.000000000000000E+000        
  0.000000000000000E+000  0.000000000000000E+000  0.000000000000000E+000        
  0.100700000000000       0.250028000000000       0.000000000000000E+000        
  0.000000000000000E+000   1.00000000000000       0.000000000000000E+000        
  0.000000000000000E+000  0.000000000000000E+000  0.000000000000000E+000        
   8.18200000000000       0.000000000000000E+000  0.000000000000000E+000        
  0.000000000000000E+000  0.000000000000000E+000   1.00000000000000             
  0.000000000000000E+000  0.000000000000000E+000  0.000000000000000E+000        
   24.1860000000000       0.000000000000000E+000  0.000000000000000E+000        
  0.000000000000000E+000  0.000000000000000E+000  0.000000000000000E+000        
   1.00000000000000       0.000000000000000E+000  0.000000000000000E+000        
   71.4940000000000       0.000000000000000E+000  0.000000000000000E+000        
  0.000000000000000E+000  0.000000000000000E+000  0.000000000000000E+000        
  0.000000000000000E+000   1.00000000000000       0.000000000000000E+000        
  3.218000000000000E-002  0.000000000000000E+000  0.000000000000000E+000        
  0.000000000000000E+000  0.000000000000000E+000  0.000000000000000E+000        
  0.000000000000000E+000  0.000000000000000E+000   1.00000000000000             
    6    6                                                                      
   1.84800000000000        1.00000000000000       0.000000000000000E+000        
  0.000000000000000E+000  0.000000000000000E+000  0.000000000000000E+000        
  0.000000000000000E+000                                                        
  0.649000000000000       0.000000000000000E+000   1.00000000000000             
  0.000000000000000E+000  0.000000000000000E+000  0.000000000000000E+000        
  0.000000000000000E+000                                                        
  0.228000000000000       0.000000000000000E+000  0.000000000000000E+000        
   1.00000000000000       0.000000000000000E+000  0.000000000000000E+000        
  0.000000000000000E+000                                                        
   8.65600000000000       0.000000000000000E+000  0.000000000000000E+000        
  0.000000000000000E+000   1.00000000000000       0.000000000000000E+000        
  0.000000000000000E+000                                                        
   33.2130000000000       0.000000000000000E+000  0.000000000000000E+000        
  0.000000000000000E+000  0.000000000000000E+000   1.00000000000000             
  0.000000000000000E+000                                                        
  7.660000000000000E-002  0.000000000000000E+000  0.000000000000000E+000        
  0.000000000000000E+000  0.000000000000000E+000  0.000000000000000E+000        
   1.00000000000000                                                             
    4    4                                                                      
   1.41900000000000        1.00000000000000       0.000000000000000E+000        
  0.000000000000000E+000  0.000000000000000E+000                                
  0.485000000000000       0.000000000000000E+000   1.00000000000000             
  0.000000000000000E+000  0.000000000000000E+000                                
   24.6940000000000       0.000000000000000E+000  0.000000000000000E+000        
   1.00000000000000       0.000000000000000E+000                                
  0.187000000000000       0.000000000000000E+000  0.000000000000000E+000        
  0.000000000000000E+000   1.00000000000000                                     
    2    2                                                                      
   1.01100000000000        1.00000000000000       0.000000000000000E+000        
  0.424000000000000       0.000000000000000E+000   1.00000000000000             
          8.00000000    1    5    1    1    1    1    1                         
O #2   0.000000000000000   0.000000000000000  -1.472701838395614                
   16    9                                                                      
   61420.0000000000       9.000000000000001E-005 -2.000000000000000E-005        
  0.000000000000000E+000  0.000000000000000E+000  0.000000000000000E+000        
  0.000000000000000E+000  0.000000000000000E+000  0.000000000000000E+000        
  0.000000000000000E+000                                                        
   9199.00000000000       6.980000000000001E-004 -1.590000000000000E-004        
  0.000000000000000E+000  0.000000000000000E+000  0.000000000000000E+000        
  0.000000000000000E+000  0.000000000000000E+000  0.000000000000000E+000        
  0.000000000000000E+000                                                        
   2091.00000000000       3.664000000000000E-003 -8.290000000000000E-004        
  0.000000000000000E+000  0.000000000000000E+000  0.000000000000000E+000        
  0.000000000000000E+000  0.000000000000000E+000  0.000000000000000E+000        
  0.000000000000000E+000                                                        
   590.900000000000       1.521800000000000E-002 -3.508000000000000E-003        
  0.000000000000000E+000  0.000000000000000E+000  0.000000000000000E+000        
  0.000000000000000E+000  0.000000000000000E+000  0.000000000000000E+000        
  0.000000000000000E+000                                                        
   192.300000000000       5.242300000000000E-002 -1.215600000000000E-002        
  0.000000000000000E+000  0.000000000000000E+000  0.000000000000000E+000        
  0.000000000000000E+000  0.000000000000000E+000  0.000000000000000E+000        
  0.000000000000000E+000                                                        
   69.3200000000000       0.145921000000000      -3.626100000000000E-002        
  0.000000000000000E+000  0.000000000000000E+000  0.000000000000000E+000        
  0.000000000000000E+000  0.000000000000000E+000  0.000000000000000E+000        
  0.000000000000000E+000                                                        
   26.9700000000000       0.305258000000000      -8.299200000000000E-002        
  0.000000000000000E+000  0.000000000000000E+000  0.000000000000000E+000        
  0.000000000000000E+000  0.000000000000000E+000  0.000000000000000E+000        
  0.000000000000000E+000                                                        
   11.1000000000000       0.398508000000000      -0.152090000000000             
  0.000000000000000E+000  0.000000000000000E+000  0.000000000000000E+000        
  0.000000000000000E+000  0.000000000000000E+000  0.000000000000000E+000        
  0.000000000000000E+000                                                        
   4.68200000000000       0.216980000000000      -0.115331000000000             
  0.000000000000000E+000  0.000000000000000E+000  0.000000000000000E+000        
  0.000000000000000E+000  0.000000000000000E+000  0.000000000000000E+000        
  0.000000000000000E+000                                                        
   1.42800000000000       1.759400000000000E-002  0.288979000000000             
   1.00000000000000       0.000000000000000E+000  0.000000000000000E+000        
  0.000000000000000E+000  0.000000000000000E+000  0.000000000000000E+000        
  0.000000000000000E+000                                                        
  0.554700000000000      -2.502000000000000E-003  0.586128000000000             
  0.000000000000000E+000   1.00000000000000       0.000000000000000E+000        
  0.000000000000000E+000  0.000000000000000E+000  0.000000000000000E+000        
  0.000000000000000E+000                                                        
  0.206700000000000       9.540000000000000E-004  0.277624000000000             
  0.000000000000000E+000  0.000000000000000E+000   1.00000000000000             
  0.000000000000000E+000  0.000000000000000E+000  0.000000000000000E+000        
  0.000000000000000E+000                                                        
   12.9740000000000       0.000000000000000E+000  0.000000000000000E+000        
  0.000000000000000E+000  0.000000000000000E+000  0.000000000000000E+000        
   1.00000000000000       0.000000000000000E+000  0.000000000000000E+000        
  0.000000000000000E+000                                                        
   34.9000000000000       0.000000000000000E+000  0.000000000000000E+000        
  0.000000000000000E+000  0.000000000000000E+000  0.000000000000000E+000        
  0.000000000000000E+000   1.00000000000000       0.000000000000000E+000        
  0.000000000000000E+000                                                        
   93.8810000000000       0.000000000000000E+000  0.000000000000000E+000        
  0.000000000000000E+000  0.000000000000000E+000  0.000000000000000E+000        
  0.000000000000000E+000  0.000000000000000E+000   1.00000000000000             
  0.000000000000000E+000                                                        
  6.959000000000000E-002  0.000000000000000E+000  0.000000000000000E+000        
  0.000000000000000E+000  0.000000000000000E+000  0.000000000000000E+000        
  0.000000000000000E+000  0.000000000000000E+000  0.000000000000000E+000        
   1.00000000000000                                                             
   10    8                                                                      
   63.4200000000000       6.044000000000000E-003  0.000000000000000E+000        
  0.000000000000000E+000  0.000000000000000E+000  0.000000000000000E+000        
  0.000000000000000E+000  0.000000000000000E+000  0.000000000000000E+000        
   14.6600000000000       4.179900000000000E-002  0.000000000000000E+000        
  0.000000000000000E+000  0.000000000000000E+000  0.000000000000000E+000        
  0.000000000000000E+000  0.000000000000000E+000  0.000000000000000E+000        
   4.45900000000000       0.161143000000000       0.000000000000000E+000        
  0.000000000000000E+000  0.000000000000000E+000  0.000000000000000E+000        
  0.000000000000000E+000  0.000000000000000E+000  0.000000000000000E+000        
   1.53100000000000       0.356731000000000        1.00000000000000             
  0.000000000000000E+000  0.000000000000000E+000  0.000000000000000E+000        
  0.000000000000000E+000  0.000000000000000E+000  0.000000000000000E+000        
  0.530200000000000       0.448309000000000       0.000000000000000E+000        
   1.00000000000000       0.000000000000000E+000  0.000000000000000E+000        
  0.000000000000000E+000  0.000000000000000E+000  0.000000000000000E+000        
  0.175000000000000       0.244940000000000       0.000000000000000E+000        
  0.000000000000000E+000   1.00000000000000       0.000000000000000E+000        
  0.000000000000000E+000  0.000000000000000E+000  0.000000000000000E+000        
   14.4750000000000       0.000000000000000E+000  0.000000000000000E+000        
  0.000000000000000E+000  0.000000000000000E+000   1.00000000000000             
  0.000000000000000E+000  0.000000000000000E+000  0.000000000000000E+000        
   42.7300000000000       0.000000000000000E+000  0.000000000000000E+000        
  0.000000000000000E+000  0.000000000000000E+000  0.000000000000000E+000        
   1.00000000000000       0.000000000000000E+000  0.000000000000000E+000        
   126.140000000000       0.000000000000000E+000  0.000000000000000E+000        
  0.000000000000000E+000  0.000000000000000E+000  0.000000000000000E+000        
  0.000000000000000E+000   1.00000000000000       0.000000000000000E+000        
  5.348000000000000E-002  0.000000000000000E+000  0.000000000000000E+000        
  0.000000000000000E+000  0.000000000000000E+000  0.000000000000000E+000        
  0.000000000000000E+000  0.000000000000000E+000   1.00000000000000             
    6    6                                                                      
   3.77500000000000        1.00000000000000       0.000000000000000E+000        
  0.000000000000000E+000  0.000000000000000E+000  0.000000000000000E+000        
  0.000000000000000E+000                                                        
   1.30000000000000       0.000000000000000E+000   1.00000000000000             
  0.000000000000000E+000  0.000000000000000E+000  0.000000000000000E+000        
  0.000000000000000E+000                                                        
  0.444000000000000       0.000000000000000E+000  0.000000000000000E+000        
   1.00000000000000       0.000000000000000E+000  0.000000000000000E+000        
  0.000000000000000E+000                                                        
   14.9270000000000       0.000000000000000E+000  0.000000000000000E+000        
  0.000000000000000E+000   1.00000000000000       0.000000000000000E+000        
  0.000000000000000E+000                                                        
   57.5440000000000       0.000000000000000E+000  0.000000000000000E+000        
  0.000000000000000E+000  0.000000000000000E+000   1.00000000000000             
  0.000000000000000E+000                                                        
  0.154000000000000       0.000000000000000E+000  0.000000000000000E+000        
  0.000000000000000E+000  0.000000000000000E+000  0.000000000000000E+000        
   1.00000000000000                                                             
    4    4                                                                      
   2.66600000000000        1.00000000000000       0.000000000000000E+000        
  0.000000000000000E+000  0.000000000000000E+000                                
  0.859000000000000       0.000000000000000E+000   1.00000000000000             
  0.000000000000000E+000  0.000000000000000E+000                                
   26.4830000000000       0.000000000000000E+000  0.000000000000000E+000        
   1.00000000000000       0.000000000000000E+000                                
  0.324000000000000       0.000000000000000E+000  0.000000000000000E+000        
  0.000000000000000E+000   1.00000000000000                                     
    2    2                                                                      
   1.84600000000000        1.00000000000000       0.000000000000000E+000        
  0.714000000000000       0.000000000000000E+000   1.00000000000000             
FINISH                                                                          
 
********************************************************************************
 ONE- AND TWO-ELECTRON INTEGRALS OVER SYMMETRY-ADAPTED AOS ARE CALCULATED.

  SPHERICAL HARMONICS ARE USED.
  
  INTEGRALS LESS THAN  0.10E-13 ARE NEGLECTED.

  NUCLEAR REPULSION ENERGY :   14.6153675238 A.U.
  @MOLECU-I, ONE ELECTRON INTEGRALS (CPU/WALL):        0.06/       0.06 SECONDS.
  @TWOEL-I,    4377026 INTEGRALS OF SYMMETRY TYPE  I I I I
  @TWOEL-I,   18889992 INTEGRALS OF SYMMETRY TYPE  I J I J
  @TWOEL-I,    9948186 INTEGRALS OF SYMMETRY TYPE  I I J J
  @TWOEL-I,   13942594 INTEGRALS OF SYMMETRY TYPE  I J K L
  @TWOEL-I, TOTAL NUMBER OF 2-E INTEGRALS   47157798.
  @MOLECU-I, TWO ELECTRON INTEGRALS (CPU/WALL):      228.29/      29.05 SECONDS.
 @CHECKOUT-I, Total execution time (CPU/WALL):      228.35/      29.14 seconds.

Running with 14 threads/proc

--executable xvmol finished with status     0 in       29.20 seconds (walltime).
 --invoking executable--
/nfs/workspaces/public/cfour_mpi/bin/xvmol2ja
 @GETMEM-I,  Allocated    3814 MB of main memory.
 @CHECKOUT-I, Total execution time (CPU/WALL):        0.18/       0.06 seconds.
--executable xvmol2ja finished with status     0 in        0.10 seconds (walltime).
 --invoking executable--
/nfs/workspaces/public/cfour_mpi/bin/xvprop
 @GETMEM-I,  Allocated    3814 MB of main memory.
   Property integrals will be calculated.
    --------------------------------------------------------------
                                   Property evaluated at 
    Property type                X             Y             Z
    --------------------------------------------------------------
    Dipole moment               ----          ----          ----  
    Quadrupole moment           ----          ----          ----  
    Octopole moment             ----          ----          ----  
    Relativisitic corr.         ----          ----          ----  
    Second moment            0.0000000     0.0000000     0.0000000
    Electron density         0.0000000     0.0000000     1.8115125
    Electron density         0.0000000     0.0000000    -1.4727018
    Field gradient           0.0000000     0.0000000     1.8115125
    Field gradient           0.0000000     0.0000000    -1.4727018
    Potential                0.0000000     0.0000000     1.8115125
    Potential                0.0000000     0.0000000    -1.4727018
    --------------------------------------------------------------
 @CHECKOUT-I, Total execution time (CPU/WALL):        1.35/       1.39 seconds.
--executable xvprop finished with status     0 in        1.44 seconds (walltime).
 --invoking executable--
/nfs/workspaces/public/cfour_mpi/bin/xvscf
  There are  218 functions in the AO basis.

  There are 4 irreducible representations.

       Irrep        # of functions
         1                 86
         2                 52
         3                 52
         4                 28


  Parameters for SCF calculation: 
        SCF reference function:  RHF  
  Maximum number of iterations:  150
     Full symmetry point group: CXv 
     Computational point group: C2v 
        Initial density matrix: MOREAD                 
     SCF convergence tolerance: 10**(-10)
  DIIS convergence acceleration:  ON
          Latest start for DIIS:   8
                     DIIS order:   6

  Memory information:    2523578 words required.
  Fock matrices are constructed from AO integral file.
 @GETMEM-I,  Allocated      19 MB of main memory.
  Initialization and symmetry analysis required      0.002 seconds.

  Adding electric field perturbation to one-electron Hamiltonian.
  Field direction     : Z
  Field strength      : -0.0002000 a.u.

  @INITGES-I, Occupancies from core Hamiltonian:

          Alpha population by irrep:   5    1    1    0
           Beta population by irrep:   5    1    1    0


 total no. of electrons in initial guess :  0.000000000000000E+000
  --------------------------------------------------------------------
  Iteration         Total Energy            Largest Density Difference
  --------------------------------------------------------------------
       0            14.615185015902824              0.0000000000D+00
   current occupation vector 
     5  1  1  0
     5  1  1  0
       1           -93.727905442759464              0.1756377055D+02
   current occupation vector 
     5  1  1  0
     5  1  1  0
       2           -97.663773413686755              0.1756376421D+02
   current occupation vector 
     5  1  1  0
     5  1  1  0
       3           -99.835445805644426              0.6968453118D+01
   current occupation vector 
     5  1  1  0
     5  1  1  0
       4           -94.335716603597774              0.6966712977D+01
   current occupation vector 
     5  1  1  0
     5  1  1  0
       5           -99.847720305618196              0.7065214662D+01
   current occupation vector 
     5  1  1  0
     5  1  1  0
       6           -94.235288418297841              0.7065268380D+01
   current occupation vector 
     5  1  1  0
     5  1  1  0
       7           -99.844939908350611              0.7069547712D+01
   current occupation vector 
     5  1  1  0
     5  1  1  0
       8           -94.232917869644794              0.7069550503D+01
   current occupation vector 
     5  1  1  0
     5  1  1  0
       9          -106.982109842960554              0.6086079275D+01
   current occupation vector 
     5  1  1  0
     5  1  1  0
      10          -110.530075799138260              0.1322231540D+01
   current occupation vector 
     5  1  1  0
     5  1  1  0
      11          -112.222279864758804              0.9965972194D+00
   current occupation vector 
     5  1  1  0
     5  1  1  0
      12          -112.373017484396470              0.6616985068D+00
   current occupation vector 
     5  1  1  0
     5  1  1  0
      13          -112.437543250725753              0.1506449100D+00
   current occupation vector 
     5  1  1  0
     5  1  1  0
      14          -112.454963922059065              0.1236687638D+00
   current occupation vector 
     5  1  1  0
     5  1  1  0
      15          -112.456401264013593              0.4708240625D-01
   current occupation vector 
     5  1  1  0
     5  1  1  0
      16          -112.457989521319064              0.7777454122D-01
   current occupation vector 
     5  1  1  0
     5  1  1  0
      17          -112.459009554524627              0.7824435782D-01
   current occupation vector 
     5  1  1  0
     5  1  1  0
      18          -112.459235649071204              0.4844259847D-01
   current occupation vector 
     5  1  1  0
     5  1  1  0
      19          -112.459237523508293              0.2492415150D-02
   current occupation vector 
     5  1  1  0
     5  1  1  0
      20          -112.459237640454873              0.1486602775D-02
   current occupation vector 
     5  1  1  0
     5  1  1  0
      21          -112.459237646057758              0.3726984613D-03
   current occupation vector 
     5  1  1  0
     5  1  1  0
      22          -112.459237647100124              0.1200486788D-03
   current occupation vector 
     5  1  1  0
     5  1  1  0
      23          -112.459237647103450              0.6072989559D-05
   current occupation vector 
     5  1  1  0
     5  1  1  0
      24          -112.459237647103180              0.6041102910D-06
   current occupation vector 
     5  1  1  0
     5  1  1  0
      25          -112.459237647104402              0.8641920068D-07
   current occupation vector 
     5  1  1  0
     5  1  1  0
      26          -112.459237647103848              0.5113531132D-07
   current occupation vector 
     5  1  1  0
     5  1  1  0
      27          -112.459237647102839              0.4651198116D-07
   current occupation vector 
     5  1  1  0
     5  1  1  0
      28          -112.459237647104231              0.1457826371D-07
   current occupation vector 
     5  1  1  0
     5  1  1  0
      29          -112.459237647103421              0.3213833644D-09
   current occupation vector 
     5  1  1  0
     5  1  1  0
      30          -112.459237647104146              0.5387961188D-09
   current occupation vector 
     5  1  1  0
     5  1  1  0

  SCF has converged.

 Density matrix saved to file den.dat
 total electron number:   13.9999999999997     
     E(SCF)=      -112.459237647103080              0.7564608315D-10

  Eigenvector printing suppressed.

 @PUTMOS-I, Writing converged MOs to NEWMOS. 
 @PUTMOS-I, Symmetry   1 Full Blocks 21 Partial Blocksize   2
 @PUTMOS-I, Symmetry   2 Full Blocks 13 Partial Blocksize   0
 @PUTMOS-I, Symmetry   3 Full Blocks 13 Partial Blocksize   0
 @PUTMOS-I, Symmetry   4 Full Blocks  7 Partial Blocksize   0
 @PUTFOCK-I, Writing converged Fock matrix to NEWFOCK. 
 @PUTFOCK-I, Symmetry   1 Full Blocks 21 Partial Blocksize   2
 @PUTFOCK-I, Symmetry   2 Full Blocks 13 Partial Blocksize   0
 @PUTFOCK-I, Symmetry   3 Full Blocks 13 Partial Blocksize   0
 @PUTFOCK-I, Symmetry   4 Full Blocks  7 Partial Blocksize   0


 
  ORBITAL EIGENVALUES (ALPHA)  (1H = 27.2113834 eV)

       MO #        E(hartree)               E(eV)           FULLSYM    COMPSYM
       ----   --------------------   --------------------   -------   ---------
    1     1         -20.6286792167        -561.3348992021     SG+        A1 (1)
    2     2         -11.5361559738        -313.9147631654     SG+        A1 (1)
    3     3          -1.2341844642         -33.5838666428     SG+        A1 (1)
    4     4          -0.8134750020         -22.1357801660     SG+        A1 (1)
    5     5          -0.4970873576         -13.5264346703     SG+        A1 (1)
    6    87          -0.4795392343         -13.0489259603      PI        B1 (2)
    7   139          -0.4795392343         -13.0489259603      PI        B2 (3)
  +++++++++++++++++++++++++++++++++++++++++++++++++++++++++++++++++++++++++++++
    8    88          -0.0253482185          -0.6897600910      PI        B1 (2)
    9   140          -0.0253482185          -0.6897600910      PI        B2 (3)
   10     6           0.0557816570           1.5178960542     SG+        A1 (1)
   11     7           0.0693023068           1.8858116402     SG+        A1 (1)
   12    89           0.0802046938           2.1824806728      PI        B1 (2)
   13   141           0.0802046938           2.1824806728      PI        B2 (3)
   14     8           0.1526736466           4.1544611321     SG+        A1 (1)
   15     9           0.1655788122           4.5056285427     SG+        A1 (1)
   16   142           0.1840123045           5.0072293683      PI        B2 (3)
   17    90           0.1840123045           5.0072293683      PI        B1 (2)
   18   191           0.2190612056           5.9609584533      DE        A2 (4)
   19    10           0.2190612056           5.9609584533      DE        A1 (1)
   20   143           0.2788535958           7.5879921084      PI        B2 (3)
   21    91           0.2788535958           7.5879921084      PI        B1 (2)
   22    11           0.2874956582           7.8231545800     SG+        A1 (1)
   23    12           0.3055226295           8.3136934094     SG+        A1 (1)
   24    13           0.4081327834          11.1058576469     SG+        A1 (1)
   25   144           0.4096491208          11.1471192849      PI        B2 (3)
   26    92           0.4096491208          11.1471192849      PI        B1 (2)
   27    14           0.5162382165          14.0475560343     SG+        A1 (1)
   28   192           0.5508582790          14.9896158298      DE        A2 (4)
   29    15           0.5508582790          14.9896158298      DE        A1 (1)
   30    93           0.6244216365          16.9913765540      PI        B1 (2)
   31   145           0.6244216365          16.9913765540      PI        B2 (3)
   32    16           0.6973895891          18.9769354890     SG+        A1 (1)
   33    94           0.7243980610          19.7118733726      PH        B1 (2)
   34   146           0.7243980610          19.7118733726      PH        B2 (3)
   35   193           0.7305961600          19.8805322201      DE        A2 (4)
   36    17           0.7305961600          19.8805322201      DE        A1 (1)
   37   147           0.7669932354          20.8709469940      PI        B2 (3)
   38    95           0.7669932354          20.8709469940      PI        B1 (2)
   39    18           0.8056127342          21.9218369832     SG+        A1 (1)
   40   194           0.8465445230          23.0356475816      DE        A2 (4)
   41    19           0.8465445230          23.0356475816      DE        A1 (1)
   42    96           0.8620555290          23.4577235112      PI        B1 (2)
   43   148           0.8620555290          23.4577235112      PI        B2 (3)
   44    20           0.9079114470          24.7055264770     SG+        A1 (1)
   45    97           1.0567481717          28.7555796566      PI        B1 (2)
   46   149           1.0567481717          28.7555796566      PI        B2 (3)
   47    21           1.1509685571          31.3194466884     SG+        A1 (1)
   48    22           1.3207605882          35.9397227443     SG+        A1 (1)
   49    98           1.4184906278          38.5990923219      PH        B1 (2)
   50   150           1.4184906278          38.5990923219      PH        B2 (3)
   51    99           1.4518977271          39.5081457084      PI        B1 (2)
   52   151           1.4518977271          39.5081457084      PI        B2 (3)
   53    23           1.5763947943          42.8958831379     SG+        A1 (1)
   54   195           1.5865046728          43.1709869165      DE        A2 (4)
   55    24           1.5865046728          43.1709869165      DE        A1 (1)
   56   100           1.6421941322          44.6863741485      PI        B1 (2)
   57   152           1.6421941322          44.6863741485      PI        B2 (3)
   58   196           1.6574528475          45.1015849009      DE        A2 (4)
   59    25           1.6574528475          45.1015849009      DE        A1 (1)
   60    26           1.8615558470          50.6555098746     SG+        A1 (1)
   61    27           1.9219701111          52.2994655776     SG+        A1 (1)
   62   101           2.0145691963          54.8192147852      PI        B1 (2)
   63   153           2.0145691963          54.8192147852      PI        B2 (3)
   64    28           2.0548995046          55.9166582687      PI        A1 (1)
   65   197           2.0548995046          55.9166582687      PI        A2 (4)
   66   198           2.1126608122          57.4884233546      DE        A2 (4)
   67    29           2.1126608122          57.4884233546      DE        A1 (1)
   68   154           2.1637276896          58.8780237338      PH        B2 (3)
   69   102           2.1637276896          58.8780237338      PH        B1 (2)
   70   155           2.1947811936          59.7230325386      PH        B2 (3)
   71   103           2.1947811936          59.7230325386      PH        B1 (2)
   72   104           2.1984311907          59.8223540077      PI        B1 (2)
   73   156           2.1984311907          59.8223540077      PI        B2 (3)
   74    30           2.2204068034          60.4203408306     SG+        A1 (1)
   75    31           2.2655220373          61.6479887583      DE        A1 (1)
   76   199           2.2655220373          61.6479887583      DE        A2 (4)
   77    32           2.3530631380          64.0301032130     SG+        A1 (1)
   78   105           2.4618540964          66.9904556908      PI        B1 (2)
   79   157           2.4618540964          66.9904556908      PI        B2 (3)
   80   200           2.5441538794          69.2299466412      DE        A2 (4)
   81    33           2.5441538794          69.2299466412      DE        A1 (1)
   82   106           2.6450934321          71.9766515090      PI        B1 (2)
   83   158           2.6450934321          71.9766515090      PI        B2 (3)
   84    34           2.6483971543          72.0665503615     SG+        A1 (1)
   85    35           2.7944856493          76.0418204098     SG+        A1 (1)
   86   107           3.2444784487          88.2867470002      PI        B1 (2)
   87   159           3.2444784487          88.2867470002      PI        B2 (3)
   88   201           3.7231179827         101.3111908708      PI        A2 (4)
   89    36           3.7231179827         101.3111908708      PI        A1 (1)
   90    37           3.7785104322         102.8184960526     SG+        A1 (1)
   91   108           3.8558014753         104.9216922597      PH        B1 (2)
   92   160           3.8558014753         104.9216922597      PH        B2 (3)
   93    38           4.0560008721         110.3693948018     SG+        A1 (1)
   94    39           4.1266682493         112.2923518971      DE        A1 (1)
   95   202           4.1266682493         112.2923518971      DE        A2 (4)
   96   109           4.1372769755         112.5810300114      PI        B1 (2)
   97   161           4.1372769755         112.5810300114      PI        B2 (3)
   98   162           4.1532687257         113.0161876592      PH        B2 (3)
   99   110           4.1532687257         113.0161876592      PH        B1 (2)
  100    40           4.3032833557         117.0982932716     SG+        A1 (1)
  101   203           4.3128755105         117.3593090721      DE        A2 (4)
  102    41           4.3128755105         117.3593090721      DE        A1 (1)
  103   111           4.4631659297         121.4489192913      PI        B1 (2)
  104   163           4.4631659297         121.4489192913      PI        B2 (3)
  105   204           4.5596837561         124.0753028688      DE        A2 (4)
  106    42           4.5596837561         124.0753028688      DE        A1 (1)
  107    43           4.8674193358         132.4492137159     SG+        A1 (1)
  108   164           4.9999765356         136.0562785012      PI        B2 (3)
  109   112           4.9999765356         136.0562785012      PI        B1 (2)
  110    44           5.0724950494         138.0296075841     SG+        A1 (1)
  111   165           5.3541647802         145.6942306208      PI        B2 (3)
  112   113           5.3541647802         145.6942306208      PI        B1 (2)
  113    45           5.8053704458         157.9721609785      PI        A1 (1)
  114   205           5.8053704458         157.9721609785      PI        A2 (4)
  115   166           5.8766926683         159.9129373206      PH        B2 (3)
  116   114           5.8766926683         159.9129373206      PH        B1 (2)
  117    46           5.9259466743         161.2532069614     SG+        A1 (1)
  118   206           6.0263772486         163.9860618241      DE        A2 (4)
  119    47           6.0263772486         163.9860618242      DE        A1 (1)
  120   167           6.0961484691         165.8846332547      PI        B2 (3)
  121   115           6.0961484691         165.8846332547      PI        B1 (2)
  122    48           6.1280503578         166.7527277818     SG+        A1 (1)
  123   207           6.2371857813         169.7224536323      DE        A2 (4)
  124    49           6.2371857813         169.7224536323      DE        A1 (1)
  125   116           6.3295881771         172.2368506505      PH        B1 (2)
  126   168           6.3295881771         172.2368506505      PH        B2 (3)
  127   208           6.4573322332         175.7129431386      DE        A2 (4)
  128    50           6.4573322332         175.7129431386      DE        A1 (1)
  129   117           6.6734674023         181.5942800913      PI        B1 (2)
  130   169           6.6734674023         181.5942800913      PI        B2 (3)
  131   118           6.9493971934         189.1027114285      PI        B1 (2)
  132   170           6.9493971934         189.1027114285      PI        B2 (3)
  133    51           7.0396954545         191.5598520315     SG+        A1 (1)
  134    52           7.4013137018         201.3999848027     SG+        A1 (1)
  135    53           9.2736479065         252.3487887005     SG+        A1 (1)
  136   171           9.5823119699         260.7479648703      PI        B2 (3)
  137   119           9.5823119699         260.7479648705      PI        B1 (2)
  138    54          10.6417065050         289.5755557365     SG+        A1 (1)
  139   209          10.6845297411         290.7408352346      PI        A2 (4)
  140    55          10.6845297411         290.7408352346      PI        A1 (1)
  141   120          10.7240391856         291.8159418762      PH        B1 (2)
  142   172          10.7240391856         291.8159418762      PH        B2 (3)
  143   210          10.9123222869         296.9393855338      DE        A2 (4)
  144    56          10.9123222869         296.9393855338      DE        A1 (1)
  145   121          11.0013976377         299.3632490564      PI        B1 (2)
  146   173          11.0013976377         299.3632490564      PI        B2 (3)
  147    57          11.0909709594         301.8006630538     SG+        A1 (1)
  148   122          11.9189194325         324.3302863919      PH        B1 (2)
  149   174          11.9189194325         324.3302863919      PH        B2 (3)
  150   211          11.9728078699         325.7966653217      DE        A2 (4)
  151    58          11.9728078699         325.7966653218      DE        A1 (1)
  152   123          12.1663032490         331.0619422706      PI        B1 (2)
  153   175          12.1663032490         331.0619422706      PI        B2 (3)
  154    59          12.4516683130         338.8271204345     SG+        A1 (1)
  155    60          12.7243969270         346.2484433144      DE        A1 (1)
  156   212          12.7243969270         346.2484433144      DE        A2 (4)
  157   124          13.0856678175         356.0791240281      PI        B1 (2)
  158   176          13.0856678175         356.0791240282      PI        B2 (3)
  159    61          13.3066633169         362.0927172903     SG+        A1 (1)
  160    62          17.1585944608         466.9090924777     SG+        A1 (1)
  161   177          18.6531819410         507.5788854274      PI        B2 (3)
  162   125          18.6531819410         507.5788854276      PI        B1 (2)
  163    63          19.3490314219         526.5139124390     SG+        A1 (1)
  164   213          26.2298467612         713.7504167415      DE        A2 (4)
  165    64          26.2298467612         713.7504167415      DE        A1 (1)
  166   178          26.4297532896         719.1901499297      PI        B2 (3)
  167   126          26.4297532896         719.1901499297      PI        B1 (2)
  168    65          26.8323183293         730.1445015693     SG+        A1 (1)
  169   179          33.3233934164         906.7756344436      PI        B2 (3)
  170   127          33.3233934165         906.7756344442      PI        B1 (2)
  171    66          34.1098368723         928.1758488432     SG+        A1 (1)
  172    67          35.4898653530         965.7283329360     SG+        A1 (1)
  173    68          47.0849451228        1281.2464941052      DE        A1 (1)
  174   214          47.0849451228        1281.2464941053      DE        A2 (4)
  175   128          47.2576738458        1285.9466816091      PI        B1 (2)
  176   180          47.2576738458        1285.9466816091      PI        B2 (3)
  177    69          47.3896269193        1289.5373072853     SG+        A1 (1)
  178    70          63.6152013431        1731.0576338152     SG+        A1 (1)
  179   181          66.2508460606        1802.7771727306      PI        B2 (3)
  180   129          66.2508460607        1802.7771727308      PI        B1 (2)
  181    71          66.7730858966        1816.9880411340     SG+        A1 (1)
  182   130          98.4903978157        2680.0599761816      PH        B1 (2)
  183   182          98.4903978157        2680.0599761817      PH        B2 (3)
  184   215          98.5060690862        2680.4864131312      DE        A2 (4)
  185    72          98.5060690862        2680.4864131312      DE        A1 (1)
  186   131          98.5204063040        2680.8765486623      PI        B1 (2)
  187   183          98.5204063040        2680.8765486623      PI        B2 (3)
  188    73          98.5268870747        2681.0528993977     SG+        A1 (1)
  189   216         103.3248449375        2811.6119703387      DE        A2 (4)
  190    74         103.3248449375        2811.6119703398      DE        A1 (1)
  191   184         103.3311461995        2811.7834363948      PI        B2 (3)
  192   132         103.3311461995        2811.7834363948      PI        B1 (2)
  193   133         103.3374438834        2811.9548050883      PH        B1 (2)
  194   185         103.3374438834        2811.9548050883      PH        B2 (3)
  195    75         103.3429524553        2812.1047009495     SG+        A1 (1)
  196    76         114.9395559865        3127.6643257747      DE        A1 (1)
  197   217         114.9395559865        3127.6643257747      DE        A2 (4)
  198   186         115.0375696435        3130.3314129737      PI        B2 (3)
  199   134         115.0375696435        3130.3314129737      PI        B1 (2)
  200    77         115.2058429974        3134.9103637220     SG+        A1 (1)
  201   187         116.6479896444        3174.1531690522      PI        B2 (3)
  202   135         116.6479896444        3174.1531690527      PI        B1 (2)
  203    78         117.3157126144        3192.3228347956     SG+        A1 (1)
  204    79         121.7520940277        3313.0429103409     SG+        A1 (1)
  205    80         198.5700981303        5403.3670720002      DE        A1 (1)
  206   218         198.5700981303        5403.3670720002      DE        A2 (4)
  207   136         198.6640267230        5405.9229989479      PI        B1 (2)
  208   188         198.6640267230        5405.9229989480      PI        B2 (3)
  209    81         198.7344063732        5407.8381265918     SG+        A1 (1)
  210    82         216.1519286402        5881.7930028777     SG+        A1 (1)
  211   189         224.7418729788        6115.5372716602      PI        B2 (3)
  212   137         224.7418729788        6115.5372716604      PI        B1 (2)
  213    83         225.1538062382        6126.7465455174     SG+        A1 (1)
  214   190         395.2034985994       10754.0339214100      PI        B2 (3)
  215   138         395.2034985994       10754.0339214102      PI        B1 (2)
  216    84         395.7135237923       10767.9124124762     SG+        A1 (1)
  217    85         508.5109819722       13837.2872935561     SG+        A1 (1)
  218    86         894.9627821042       24353.1753925687     SG+        A1 (1)


  VSCF finished.

 @CHECKOUT-I, Total execution time (CPU/WALL):       55.74/      12.55 seconds.
--executable xvscf finished with status     0 in       12.62 seconds (walltime).
 --invoking executable--
/nfs/workspaces/public/cfour_mpi/bin/xvtran
 @GETMEM-I,  Allocated    3814 MB of main memory.
  Full RHF integral transformation
  Transformation of IIII integrals :
  1 pass through the AO integral file was required.
     4377026 AO integrals were read.
     8526616 MO integrals were written to HF2.
  Transformation of IIJJ integrals :
  1 pass through the AO integral file was required.
     9948186 AO integrals were read.
    14273823 MO integrals were written to HF2.
  Transformation of IJIJ integrals :
  1 pass through the AO integral file was required.
    18889992 AO integrals were read.
    26457292 MO integrals were written to HF2.
  Transformation of IJKL integrals :
  1 pass through the AO integral file was required.
    13942594 AO integrals were read.
    17947167 MO integrals were written to HF2.
  Summary of active molecular orbitals: 
------------------------------------------------------------------------
 
  Index      Eigenvalue    Symmetry    Index      Eigenvalue    Symmetry
------------------------------------------------------------------------
     1       -20.6286792        1       110         4.1372770        2
     2       -11.5361560        1       111         4.1532687        2
     3        -1.2341845        1       112         4.4631659        2
     4        -0.8134750        1       113         4.9999765        2
     5        -0.4970874        1       114         5.3541648        2
     6        -0.4795392        2       115         5.8766927        2
     7        -0.4795392        3       116         6.0961485        2
     8         0.0557817        1       117         6.3295882        2
     9         0.0693023        1       118         6.6734674        2
    10         0.1526736        1       119         6.9493972        2
    11         0.1655788        1       120         9.5823120        2
    12         0.2190612        1       121        10.7240392        2
    13         0.2874957        1       122        11.0013976        2
    14         0.3055226        1       123        11.9189194        2
    15         0.4081328        1       124        12.1663032        2
    16         0.5162382        1       125        13.0856678        2
    17         0.5508583        1       126        18.6531819        2
    18         0.6973896        1       127        26.4297533        2
    19         0.7305962        1       128        33.3233934        2
    20         0.8056127        1       129        47.2576738        2
    21         0.8465445        1       130        66.2508461        2
    22         0.9079114        1       131        98.4903978        2
    23         1.1509686        1       132        98.5204063        2
    24         1.3207606        1       133       103.3311462        2
    25         1.5763948        1       134       103.3374439        2
    26         1.5865047        1       135       115.0375696        2
    27         1.6574528        1       136       116.6479896        2
    28         1.8615558        1       137       198.6640267        2
    29         1.9219701        1       138       224.7418730        2
    30         2.0548995        1       139       395.2034986        2
    31         2.1126608        1       140        -0.0253482        3
    32         2.2204068        1       141         0.0802047        3
    33         2.2655220        1       142         0.1840123        3
    34         2.3530631        1       143         0.2788536        3
    35         2.5441539        1       144         0.4096491        3
    36         2.6483972        1       145         0.6244216        3
    37         2.7944856        1       146         0.7243981        3
    38         3.7231180        1       147         0.7669932        3
    39         3.7785104        1       148         0.8620555        3
    40         4.0560009        1       149         1.0567482        3
    41         4.1266682        1       150         1.4184906        3
    42         4.3032834        1       151         1.4518977        3
    43         4.3128755        1       152         1.6421941        3
    44         4.5596838        1       153         2.0145692        3
    45         4.8674193        1       154         2.1637277        3
    46         5.0724950        1       155         2.1947812        3
    47         5.8053704        1       156         2.1984312        3
    48         5.9259467        1       157         2.4618541        3
    49         6.0263772        1       158         2.6450934        3
    50         6.1280504        1       159         3.2444784        3
    51         6.2371858        1       160         3.8558015        3
    52         6.4573322        1       161         4.1372770        3
    53         7.0396955        1       162         4.1532687        3
    54         7.4013137        1       163         4.4631659        3
    55         9.2736479        1       164         4.9999765        3
    56        10.6417065        1       165         5.3541648        3
    57        10.6845297        1       166         5.8766927        3
    58        10.9123223        1       167         6.0961485        3
    59        11.0909710        1       168         6.3295882        3
    60        11.9728079        1       169         6.6734674        3
    61        12.4516683        1       170         6.9493972        3
    62        12.7243969        1       171         9.5823120        3
    63        13.3066633        1       172        10.7240392        3
    64        17.1585945        1       173        11.0013976        3
    65        19.3490314        1       174        11.9189194        3
    66        26.2298468        1       175        12.1663032        3
    67        26.8323183        1       176        13.0856678        3
    68        34.1098369        1       177        18.6531819        3
    69        35.4898654        1       178        26.4297533        3
    70        47.0849451        1       179        33.3233934        3
    71        47.3896269        1       180        47.2576738        3
    72        63.6152013        1       181        66.2508461        3
    73        66.7730859        1       182        98.4903978        3
    74        98.5060691        1       183        98.5204063        3
    75        98.5268871        1       184       103.3311462        3
    76       103.3248449        1       185       103.3374439        3
    77       103.3429525        1       186       115.0375696        3
    78       114.9395560        1       187       116.6479896        3
    79       115.2058430        1       188       198.6640267        3
    80       117.3157126        1       189       224.7418730        3
    81       121.7520940        1       190       395.2034986        3
    82       198.5700981        1       191         0.2190612        4
    83       198.7344064        1       192         0.5508583        4
    84       216.1519286        1       193         0.7305962        4
    85       225.1538062        1       194         0.8465445        4
    86       395.7135238        1       195         1.5865047        4
    87       508.5109820        1       196         1.6574528        4
    88       894.9627821        1       197         2.0548995        4
    89        -0.0253482        2       198         2.1126608        4
    90         0.0802047        2       199         2.2655220        4
    91         0.1840123        2       200         2.5441539        4
    92         0.2788536        2       201         3.7231180        4
    93         0.4096491        2       202         4.1266682        4
    94         0.6244216        2       203         4.3128755        4
    95         0.7243981        2       204         4.5596838        4
    96         0.7669932        2       205         5.8053704        4
    97         0.8620555        2       206         6.0263772        4
    98         1.0567482        2       207         6.2371858        4
    99         1.4184906        2       208         6.4573322        4
   100         1.4518977        2       209        10.6845297        4
   101         1.6421941        2       210        10.9123223        4
   102         2.0145692        2       211        11.9728079        4
   103         2.1637277        2       212        12.7243969        4
   104         2.1947812        2       213        26.2298468        4
   105         2.1984312        2       214        47.0849451        4
   106         2.4618541        2       215        98.5060691        4
   107         2.6450934        2       216       103.3248449        4
   108         3.2444784        2       217       114.9395560        4
   109         3.8558015        2       218       198.5700981        4
------------------------------------------------------------------------
  -20.6286792167314       -11.5361559738029       -1.23418446424245     
 -0.813475002010706      -0.497087357577224      -0.479539234313741     
 -0.479539234313735       5.578165695973336E-002  6.930230677646994E-002
  0.152673646576046       0.165578812238650       0.219061205585780     
  0.287495658158912       0.305522629527363       0.408132783389256     
  0.516238216475990       0.550858279031114       0.697389589131431     
  0.730596159991540       0.805612734236691       0.846544523039570     
  0.907911446979950        1.15096855709358        1.32076058817080     
   1.57639479431435        1.58650467276609        1.65745284750473     
   1.86155584704875        1.92197011114234        2.05489950462063     
   2.11266081218662        2.22040680337546        2.26552203730495     
   2.35306313801864        2.54415387940920        2.64839715431412     
   2.79448564933487        3.72311798270524        3.77851043224086     
   4.05600087211194        4.12666824932811        4.30328335573052     
   4.31287551048029        4.55968375605809        4.86741933583199     
   5.07249504940987        5.80537044575446        5.92594667426483     
[...]
 Convergence information after    20 iterations: 
 Largest element of residual vector : -0.19990368E-06.
 Largest element of DIIS residual   : -0.10204998E-06.
 Convergence information after    21 iterations: 
 Largest element of residual vector :  0.11995769E-06.
 Largest element of DIIS residual   :  0.55075137E-07.
 Perturbed amplitude equations converged in    21 iterations.
  Dominant contributions to perturbed wavefunction:
    7    0   46    0   0.2893244707 AA  
    7    0   22    0   0.2524437552 AA  
    7    7  140   22  -0.2229555493 ABAB
    7    7   22  140  -0.2229555493 ABAB
    7    0   36    0   0.2225116750 AA  
    7    0   28    0   0.2078643486 AA  
    7    7  140   46  -0.2071505371 ABAB
    7    7   46  140  -0.2071505371 ABAB
    7    0   32    0   0.2014981754 AA  
    7    7  140   32  -0.1875300184 ABAB
    7    7   32  140  -0.1875300184 ABAB
    7    0   25    0   0.1846016936 AA  
    7    0   54    0  -0.1825633019 AA  
    7    0   16    0  -0.1789261896 AA  
    7    0   56    0   0.1736533562 AA  
    7    0   39    0   0.1683755377 AA  
    7    0   24    0   0.1659945164 AA  
    7    7  140   36  -0.1542209388 ABAB
    7    7   36  140  -0.1542209388 ABAB
    7    7  140   28  -0.1494157711 ABAB
  norm of converged amps    1.57038970880045     
 Starting iterative solution of the perturbed Lambda equations.
 The DIIS procedure is used to accelerate convergence.
 Convergence criterion is 10**(-7).
 Maximum number of iterations is 100.
 Convergence information after     1 iterations: 
 Largest element of residual vector :  0.76773860E-01.
 Largest element of DIIS residual   :  0.76773860E-01.
 Convergence information after     2 iterations: 
 Largest element of residual vector :  0.19992606E-01.
 Largest element of DIIS residual   :  0.14789233E-01.
 Convergence information after     3 iterations: 
 Largest element of residual vector :  0.64547987E-02.
 Largest element of DIIS residual   :  0.56636566E-02.
 Convergence information after     4 iterations: 
 Largest element of residual vector :  0.30984917E-02.
 Largest element of DIIS residual   :  0.29593425E-02.
 Convergence information after     5 iterations: 
 Largest element of residual vector :  0.30799452E-02.
 Largest element of DIIS residual   :  0.27170065E-02.
 Convergence information after     6 iterations: 
 Largest element of residual vector :  0.18580625E-02.
 Largest element of DIIS residual   :  0.92804681E-03.
 Convergence information after     7 iterations: 
 Largest element of residual vector :  0.10087132E-02.
 Largest element of DIIS residual   :  0.49193278E-03.
 Convergence information after     8 iterations: 
 Largest element of residual vector :  0.38295700E-03.
 Largest element of DIIS residual   :  0.19128499E-03.
 Convergence information after     9 iterations: 
 Largest element of residual vector :  0.16149627E-03.
 Largest element of DIIS residual   :  0.95702339E-04.
 Convergence information after    10 iterations: 
 Largest element of residual vector :  0.11202232E-03.
 Largest element of DIIS residual   : -0.76540114E-04.
 Convergence information after    11 iterations: 
 Largest element of residual vector : -0.42460690E-04.
 Largest element of DIIS residual   : -0.18629792E-04.
 Convergence information after    12 iterations: 
 Largest element of residual vector :  0.24696920E-04.
 Largest element of DIIS residual   :  0.12591898E-04.
 Convergence information after    13 iterations: 
 Largest element of residual vector :  0.70101317E-05.
 Largest element of DIIS residual   :  0.54676072E-05.
 Convergence information after    14 iterations: 
 Largest element of residual vector :  0.67579001E-05.
 Largest element of DIIS residual   :  0.33421170E-05.
 Convergence information after    15 iterations: 
 Largest element of residual vector :  0.37573554E-05.
 Largest element of DIIS residual   :  0.18917047E-05.
 Convergence information after    16 iterations: 
 Largest element of residual vector :  0.15130511E-05.
 Largest element of DIIS residual   :  0.42772611E-06.
 Convergence information after    17 iterations: 
 Largest element of residual vector :  0.82834162E-06.
 Largest element of DIIS residual   :  0.40065728E-06.
 Convergence information after    18 iterations: 
 Largest element of residual vector :  0.18704380E-06.
 Largest element of DIIS residual   : -0.15252443E-06.
 Convergence information after    19 iterations: 
 Largest element of residual vector :  0.16879764E-06.
 Largest element of DIIS residual   :  0.77803676E-07.
 Perturbed Lambda equations converged in    19 iterations.
  Dominant contributions to perturbed wavefunction:
    7    7  140   22  -0.1560778423 ABAB
    7    7   22  140  -0.1560778423 ABAB
    7    7  140   46  -0.1400201200 ABAB
    7    7   46  140  -0.1400201200 ABAB
    7    7  140   32  -0.1321188391 ABAB
    7    7   32  140  -0.1321188391 ABAB
    7    7  140   36  -0.1041156362 ABAB
    7    7   36  140  -0.1041156362 ABAB
    7    7  140   28  -0.1012327600 ABAB
    7    7   28  140  -0.1012327600 ABAB
    7    7  140   56  -0.1010986991 ABAB
    7    7   56  140  -0.1010986991 ABAB
    7    7  140   39  -0.0991088778 ABAB
    7    7   39  140  -0.0991088778 ABAB
    7    6   22   89  -0.0980196134 ABAB
    6    7   89   22  -0.0980196134 ABAB
    7    7  140   45  -0.0974861798 ABAB
    7    7   45  140  -0.0974861798 ABAB
    7    7  140   16   0.0973410178 ABAB
    7    7   16  140   0.0973410178 ABAB
        The DBOC first-order density matrix is being calculated 
             (Symmetry block 3, perturbation   2)
 term   2.57436110492503     
 final tnorm  0.683748527978676     
  norm contr. I: |<0|L dT/dx|0>|^2   0.000000000000000E+000
  norm contr. II: <0|[nabla(1+L)e-T][nabla e^T]|0>   2.57436110492503     
  total norm contribution   2.57436110492503     
 oo  1.272000755172582E-002
 vv  -19.2363032212540     
 vo  8.229302344056474E-004
  Correlated perturbed 1-el contribution to DBOC  -19.2227602834679       cm**-1
  SUM_I |dc_I/dx|^2 contribution to DBOC   9.69172198466413       cm**-1
 
 
  The total diagonal Born-Oppenheimer correction (DBOC) is:      0.0040063257 a.u.
  The total diagonal Born-Oppenheimer correction (DBOC) is:        879.286859 cm-1
 
 Total CC energy including DBOC  -113.014364531724     
 First-order density matrix is being calculated  (Symmetry block 3, perturbation   2)
 Calculation of the contributions of <pq||rs> to dI(i,j)/dx required   3.1 seconds.
 Calculation of the contributions of <pq||rs> to dI(a,b)/dx required  17.1 seconds.
 Calculation of the contributions of <pq||rs> to dI(i,a)/dx required  10.3 seconds.
 First-order Z-vector equations are solved for 1 perturbation.
 Convergence reached after  20 iterations.
        U*G(pq,rs) contribution is being calculated
             (Symmetry block 3, perturbation   2)

 CCSD contribution to force constants 

        0.0000000000        0.0000000000        0.0000000000
        0.0000000000        0.0000000000        0.0000000000
        0.0000000000        0.0000000000        0.0000000000
        0.0000000000        0.0000000000        0.0000000000
        0.0000000000        0.0000000000        0.0000000000
        0.0000000000        0.0000000000        0.0000000000
        0.0000000000        0.0000000000        0.0000000000
        0.0000000000        0.0000000000        0.0000000000
        0.0000000000        0.0000000000        0.0000000000
        0.0000000000        0.0000000000        0.0000000000
        0.0000000000        0.0000000000        0.0000000000
        0.0000000000       -9.8056997761        9.8056997761

 CCSD contribution to dipole derivatives 

        0.0000000000        0.0000000000        0.0000000000
        0.0000000000        0.0000000000        0.0000000000
        0.0000000000        0.0000000000        0.0000000000
        0.0000000000        0.0000000000       -0.0559195312
        0.0000000000        0.0000000000        0.0000000000
        0.0000000000        0.0000000000        0.0000000000
 @CHECKOUT-I, Total execution time (CPU/WALL):     1481.19/     541.19 seconds.
--executable xsdcc finished with status     0 in      541.49 seconds (walltime).
 --invoking executable--
/nfs/workspaces/public/cfour_mpi/bin/xanti
 @GETMEM-I,  Allocated    3814 MB of main memory.
 CCSD MO derivative gammas will be sorted to Mulliken order.
 @CHECKOUT-I, Total execution time (CPU/WALL):       13.08/      35.66 seconds.
--executable xanti finished with status     0 in       35.82 seconds (walltime).
 --invoking executable--
/nfs/workspaces/public/cfour_mpi/bin/xbcktrn
 @GETMEM-I,  Allocated    3814 MB of main memory.
 CCSD MO derivative gammas will be transformed to the AO basis.
 @CHECKOUT-I, Total execution time (CPU/WALL):       23.06/      10.38 seconds.
--executable xbcktrn finished with status     0 in       10.44 seconds (walltime).
 --invoking executable--
/nfs/workspaces/public/cfour_mpi/bin/xvdint
 @GETMEM-I,  Allocated    3814 MB of main memory.
 One- and two-electron integral derivatives are calculated
 for RHF-CC/MBPT hessians and dipole derivatives.
 Spherical gaussians are used.
  magnet F F
                    8722  records have been written to the Sort file.
  Total length of Sort file :             178609116  words.
 Evaluation of 2el integral derivatives

                      Two-electron integral gradient
                      ------------------------------

                         C #1 z     0.0000000000
                         O #2 z     0.0000000000


 C #1       0.0000000000            0.0713273062            0.0000000000
 O #2       0.0000000000           -0.0713273062            0.0000000000


 Evaluation of 2e integral derivatives required  362.37 seconds.
  contribution to Hessian
        0.0000000000        0.0000000000        0.0000000000
        0.0000000000        0.0713273062       -0.0713273062
 @CHECKOUT-I, Total execution time (CPU/WALL):      362.36/      75.06 seconds.
--executable xvdint finished with status     0 in       75.21 seconds (walltime).
 --invoking executable--
/nfs/workspaces/public/cfour_mpi/bin/xanti
 @GETMEM-I,  Allocated    3814 MB of main memory.
 CCSD MO gammas will be sorted to Mulliken order.
 @CHECKOUT-I, Total execution time (CPU/WALL):       16.00/      53.53 seconds.
--executable xanti finished with status     0 in       53.71 seconds (walltime).
 --invoking executable--
/nfs/workspaces/public/cfour_mpi/bin/xbcktrn
 @GETMEM-I,  Allocated    3814 MB of main memory.
 CCSD MO gammas will be transformed to the AO basis.
 @CHECKOUT-I, Total execution time (CPU/WALL):       57.59/      11.79 seconds.
--executable xbcktrn finished with status     0 in       11.87 seconds (walltime).
 --invoking executable--
/nfs/workspaces/public/cfour_mpi/bin/xvdint
 @GETMEM-I,  Allocated    3814 MB of main memory.
 One- and two-electron integral derivatives are calculated
 for RHF-CC/MBPT hessians and dipole derivatives.
 Spherical gaussians are used.
  magnet F F

                     Kinetic energy integral gradient
                     --------------------------------

                         C #1 z    -0.3947962403
                         O #2 z     0.3947962403


 C #1       0.0000000000            0.0000000000           -0.3947962403
 O #2       0.0000000000            0.0000000000            0.3947962403



                   Nuclear attraction integral gradient
                   ------------------------------------

                         C #1 z    11.8017663579
                         O #2 z   -11.8017663579


 C #1       0.0000000000            0.0000000000           11.8017663579
 O #2       0.0000000000            0.0000000000          -11.8017663579



                      Reorthonormalization gradient
                      -----------------------------

                         C #1 z     0.0000000000
                         O #2 z     0.0000000000


 C #1       0.0000000000            0.0000000000            0.0000000000
 O #2       0.0000000000            0.0000000000            0.0000000000



                     Kinetic energy integral Hessian
                     -------------------------------


           Symmetry 1

           C #1 z      O #2 z

 C #1 z    0.419493
 O #2 z   -0.419493    0.419493


           Symmetry 2

           C #1 x      O #2 x

 C #1 x   -0.263022
 O #2 x    0.263022   -0.263022


           Symmetry 3

           C #1 y      O #2 y

 C #1 y   -0.263022
 O #2 y    0.263022   -0.263022




           C #1 x      C #1 y      C #1 z      O #2 x      O #2 y      O #2 z

 C #1 x   -0.263022
 C #1 y    0.000000   -0.263022
 C #1 z    0.000000    0.000000    0.419493

 O #2 x    0.263022    0.000000    0.000000   -0.263022
 O #2 y    0.000000    0.263022    0.000000    0.000000   -0.263022
 O #2 z    0.000000    0.000000   -0.419493    0.000000    0.000000    0.419493




                   Nuclear attraction integral Hessian
                   -----------------------------------


           Symmetry 1

           C #1 z      O #2 z

 C #1 z   -6.982583
 O #2 z    6.982583   -6.982583


           Symmetry 2

           C #1 x      O #2 x

 C #1 x    5.565048
 O #2 x   -5.565048    5.565048


           Symmetry 3

           C #1 y      O #2 y

 C #1 y    5.565048
 O #2 y   -5.565048    5.565048




           C #1 x      C #1 y      C #1 z      O #2 x      O #2 y      O #2 z

 C #1 x    5.565048
 C #1 y    0.000000    5.565048
 C #1 z    0.000000    0.000000   -6.982583

 O #2 x   -5.565048    0.000000    0.000000    5.565048
 O #2 y    0.000000   -5.565048    0.000000    0.000000    5.565048
 O #2 z    0.000000    0.000000    6.982583    0.000000    0.000000   -6.982583




                Highest order reorthonormalization Hessian
                ------------------------------------------


           Symmetry 1

           C #1 z      O #2 z

 C #1 z    0.000000
 O #2 z    0.000000    0.000000


           Symmetry 2

           C #1 x      O #2 x

 C #1 x    0.000000
 O #2 x    0.000000    0.000000


           Symmetry 3

           C #1 y      O #2 y

 C #1 y    0.000000
 O #2 y    0.000000    0.000000




           C #1 x      C #1 y      C #1 z      O #2 x      O #2 y      O #2 z




                Electronic contributions to dipole moment
                -----------------------------------------

                               au             Debye

                    z      1.48794923      3.78199035

  Conversion factor used: 1 a.u. =   2.54174691 Debye 



   Electronic contributions to static part of dipole moment derivatives
   --------------------------------------------------------------------


                     Total dipole moment derivatives
                     -------------------------------


           Symmetry 1
                              Ez

               C #1 z    -5.70374496
               O #2 z    -8.29625504

           Symmetry 2
                              Ex

               C #1 x    -5.69251168
               O #2 x    -8.30748832

           Symmetry 3
                              Ey

               C #1 y    -5.69251168
               O #2 y    -8.30748832



                       Ex          Ey          Ez

      C #1    x   -5.692512    0.000000    0.000000
      C #1    y    0.000000   -5.692512    0.000000
      C #1    z    0.000000    0.000000   -5.703745

      O #2    x   -8.307488    0.000000    0.000000
      O #2    y    0.000000   -8.307488    0.000000
      O #2    z    0.000000    0.000000   -8.296255

 Evaluation of 1e integral derivatives required    1.48 seconds.
                    8815  records have been written to the Sort file.
  Total length of Sort file :             180513570  words.
 Evaluation of 2el integral derivatives

                      Two-electron integral gradient
                      ------------------------------

                         C #1 z    -6.4477427918
                         O #2 z     6.4477427918


 C #1       0.0000000000            0.0000000000           -6.4477427918
 O #2       0.0000000000            0.0000000000            6.4477427918


 Evaluation of 2e integral derivatives required  748.63 seconds.

                            Molecular gradient
                            ------------------

                         C #1 z     0.5090404955
                         O #2 z    -0.5090404955


 C #1       0.0000000000            0.0000000000            0.5090404955
 O #2       0.0000000000            0.0000000000           -0.5090404955


  Molecular gradient norm 0.720E+00

                            Molecular hessian
                            -----------------


           Symmetry 1

           C #1 z      O #2 z

 C #1 z    8.079667
 O #2 z   -8.079667    8.079667


           Symmetry 2

           C #1 x      O #2 x

 C #1 x    9.961220
 O #2 x   -9.961220    9.961220


           Symmetry 3

           C #1 y      O #2 y

 C #1 y    9.961220
 O #2 y   -9.961220    9.961220




           C #1 x      C #1 y      C #1 z      O #2 x      O #2 y      O #2 z

 C #1 x    9.961220
 C #1 y    0.000000    9.961220
 C #1 z    0.000000    0.000000    8.079667

 O #2 x   -9.961220    0.000000    0.000000    9.961220
 O #2 y    0.000000   -9.961220    0.000000    0.000000    9.961220
 O #2 z    0.000000    0.000000   -8.079667    0.000000    0.000000    8.079667




                           Total dipole moment
                           -------------------

                               au             Debye

                    z      0.57540969      1.46254581

  Conversion factor used: 1 a.u. =   2.54174691 Debye 



                     Total dipole moment derivatives
                     -------------------------------


           Symmetry 1
                              Ez

               C #1 z     0.43883742
               O #2 z    -0.43883742

           Symmetry 2
                              Ex

               C #1 x     0.18984147
               O #2 x    -0.18984147

           Symmetry 3
                              Ey

               C #1 y     0.18984147
               O #2 y    -0.18984147



                       Ex          Ey          Ez

      C #1    x    0.189841    0.000000    0.000000
      C #1    y    0.000000    0.189841    0.000000
      C #1    z    0.000000    0.000000    0.438837

      O #2    x   -0.189841    0.000000    0.000000
      O #2    y    0.000000   -0.189841    0.000000
      O #2    z    0.000000    0.000000   -0.438837

 @CHECKOUT-I, Total execution time (CPU/WALL):      750.11/     131.11 seconds.
--executable xvdint finished with status     0 in      131.31 seconds (walltime).
 --invoking executable--
/nfs/workspaces/public/cfour_mpi/bin/xjoda
  @GTFLGS-I, Hessian will be transformed to curvilinear coordinates.
  @GTFLGS-I, Hessian will be transformed to curvilinear coordinates.
  igrd and ihes are                      0                     1
  gradient from JOBARC 
   0.000000000000000   0.000000000000000   0.509040495491240
   0.000000000000000   0.000000000000000  -0.509040495491240
 
  @PROJFCM-I, Projecting force constant matrix onto totally symmetric subspace.
  Largest difference between matrix elements of symmetrized
  and unsymmetrized FCM :     0.3730349363E-12.
  read isotopes from ZMAT file 
 
  Summary of diagonal Born-Oppenheimer correction at the correlated level
  The total diagonal Born-Oppenheimer correction (DBOC) is:      0.0040063257 a.u.
  The total diagonal Born-Oppenheimer correction (DBOC) is:        879.286859 cm-1
  The total diagonal Born-Oppenheimer correction (DBOC) is:            10.519 kJ/mole
  hellooooooo 
  readis is  F
 
 @CHECKOUT-I, Total execution time (CPU/WALL):        0.02/       0.10 seconds.
--executable xjoda finished with status     0 in        0.20 seconds (walltime).
  The final electronic energy is      -113.014364531723828 a.u. 
  This computation required                         4750.00 seconds (walltime).
