 --invoking executable--
/nfs/workspaces/public/cfour_mpi/bin/xjoda


   *************************************************************************
         <<<     CCCCCC     CCCCCC   |||     CCCCCC     CCCCCC   >>>
       <<<      CCC        CCC       |||    CCC        CCC         >>>
      <<<      CCC        CCC        |||   CCC        CCC            >>>
    <<<        CCC        CCC        |||   CCC        CCC              >>>
      <<<      CCC        CCC        |||   CCC        CCC            >>>
       <<<      CCC        CCC       |||    CCC        CCC         >>>
         <<<     CCCCCC     CCCCCC   |||     CCCCCC     CCCCCC   >>>
   *************************************************************************

     ****************************************************************
     * CFOUR Coupled-Cluster techniques for Computational Chemistry *
     ****************************************************************
 

   Department of Chemistry                Institut fuer Physikalische Chemie
   University of Florida                  Universitaet Mainz
   Gainesville, FL 32611, USA             D-55099 Mainz, Germany

   Department of Chemistry                Fakultaet fuer Chemie und Biowiss.
   Johns Hopkins University               Karlsruher Institut fuer Technologie
   Baltimore, MD 21218, USA               D-76131 Karlsruhe, Germany

   Department of Chemistry                Department of Physical Chemistry
   Southern Methodist University          Eotvos Lorand University
   Dallas, TX 75275, USA                  H-1053 Budapest, Hungary

 
                       Version 2.1
 
                     vincent.theory.phys.ucl.ac.uk                     
                     Thu 27 Feb 18:10:32 GMT 2025                      
                     integer*8 version is running
 
********************************************************************************
*                          Input from ZMAT file                                *
********************************************************************************
Carbon Monoxide DBOC calculation                                                
C                                                                               
O 1 r                                                                           
                                                                                
r=1.396551724137931                                                             
                                                                                
                                                                                
*CFOUR(CALC=CCSD,BASIS=AUG-PCVQZ,SCF_CONV=10                                    
CC_CONV=14,DBOC=ON,MEMORY=500000000                                             
ZFIELD=-200)                                                                    
                                                                                
%isotopes                                                                       
13                                                                              
16                                                                              
********************************************************************************
  @GTFLGS-I, Hessian will be transformed to curvilinear coordinates.
    -------------------------------------------------------------------
                    CFOUR Control Parameters 
    -------------------------------------------------------------------
        External           Internal           Value            Units
          Name               Name
    -------------------------------------------------------------------
       ABCDTYPE             IABCDT         STANDARD    [  0]    ***   
       ANHARMONIC           IANHAR         OFF         [  0]    ***   
       ANH_ALGORIT          IANALG         STANDARD    [  0]    ***   
       ANH_DERIVAT          IANDER         SECOND      [  1]    ***   
       ANH_MODE             ANHMOD         VIBRATION   [  0]    ***   
       ANH_STEPSIZ          ICUBST             50000          x 10-6  
       ANH_SYMMETR          IANHSM         ABELIAN     [  0]    ***   
       AO_LADDERS           IAOLAD         SINGLEPASS  [  1]    ***   
       AV_SCF               IAVSCF         OFF         [  0]    ***   
       BASIS                IBASIS         AUG-PCVQZ   [ 52]    ***   
       BOTHVECTORS          BOTHVC         OFF         [  0]    ***   
       BOX_POTENT           IPIAB          OFF         [  0]    ***   
       BREIT                IBREIT         OFF         [  0]    ***   
       BRUCK_CONV           IBRTOL          10D-  4             ***   
       BRUECKNER            IBRKNR         OFF         [  0]    ***   
       BUFFERSIZE           IBUFFS              4096            ***   
       CACHE_RECS           ICHREC             10               ***   
       CALCLEVEL            ICLLVL         CCSD        [ 10]    ***   
       CCORBOPT             ICCORB         OFF         [  0]  x 0.01  
       CC_CONV              ICCCNV          10D- 14             ***   
       CC_EXPORDER          ICCEOR              5               ***   
       CC_EXTRAPOL          ICCEXT         DIIS        [  1]    ***   
       CC_GUESS             ICCGES         MP2         [  0]    ***   
       CC_MAXCYC            ICCCYC            100              cycles 
       CC_PROGRAM           ICCPRO         VCC         [  0]    ***   
       CHARGE               ICHRGE              0               ***   
       CHOLESKY             ICHOLE         OFF         [  0]    ***   
       CIS_CONV             ICISTL              5               ***   
       COMM_SIZE            IPSIZE            ***               ***   
       CONSTANT             ICONST         OLD         [  1]    ***   
       CONTINUUM            ICONTU         NONE        [  0]    ***   
       CONTRACTION          ICNTYP         GENERAL     [  1]    ***   
       COORDINATES          ICOORD         INTERNAL    [  0]    ***   
       CPHF_CONVER          ICPHFT          10D- 16             ***   
       CPHF_MAXCYC          ICPHFC             64              cycles 
       CUBIC                ICUBIC         OFF         [  0]    ***   
       CURVILINEAR          ICURVY         ON          [  1]    ***   
       DBOC                 IDBOC          ON          [  1]    ***   
       DCT                  IDCT           OFF         [  0]    ***   
       DERIV_LEV            IDRLVL         SECOND      [  2]    ***   
       DEVMEM_SIZE          IDVMEM          50000000           MByte  
       DIAG_MRCC            IEOMST          10D-  0             ***   
       DIFF_TYPE            IDIFTY         RELAXED     [  0]    ***   
       DIRECT               IDIRCT         OFF         [  0]    ***   
       DROPMO               IDRPMO      NONE         
       ECP                  IECP           OFF         [  0]    ***   
       EIGENVECTOR          IVEC                1               ***   
       EL_ANHARM            IELANH         OFF         [  0]    ***   
       EOMFOLLOW            IEOMSR         ENERGY      [  0]    ***   
       EOMIP                IEOMIP         OFF         [  0]    ***   
       EOMLEVEL             HBARFM         SAME        [  0]    ***   
       EOM_MRCC             IMRCCE         NEW         [  1]    ***   
       EOM_NONIT            EOMNON         OFF         [  0]    ***   
       EOM_NSING            IEOMSI          10D-  0             ***   
       EOM_NSTATES          IMRCCD         DAVIDSON    [  0]    ***   
       EOM_NTRIP            IEOMTR          10D-  0             ***   
       EOM_ORDER            IEXORD         ENERGY      [  0]    ***   
       EOM_PROPSTA          IEOMST              0               ***   
       ESTATE_CONV          IEXTOL          10D-  5             ***   
       ESTATE_DIAG          IEXDIG         ITERATIVE   [  0]    ***   
       ESTATE_LOCK          IESLOC         ON          [  1]    ***   
       ESTATE_MAXC          IEXMXC             40               ***   
       ESTATE_PROP          IEXPRP         OFF         [  0]    ***   
       EVAL_HESS            IRECAL              0            # of cyc.
       EXCITATION           IEXCIT              0               ***   
       EXCITE               IEXCIT         NONE        [  0]    ***   
       EXTERN_POT           IEXPOT         OFF         [  0]    ***   
       FCGRADNEW            IFCGNW         OFF         [  0]    ***   
       FC_FIELD             IFINFC              0             x 10-6  
       FD_CALTYPE           IFDCAL         GRADONLY    [  0]    ***   
       FD_PROJECT           IFDPRJ         OFF         [  1]    ***   
       FD_STEPSIZE          IDISFD              0            10-4 bohr
       FD_USEGROUP          IFDGRP         FULL        [  0]    ***   
       FILE_RECSIZ          IFLREC              4096           words  
       FINITE_PERT          IFIPER              0             x 10-6  
       FIXGEOM              IFIXGM         OFF         [  0]    ***   
       FOCK                 IFOCK          AO          [  1]    ***   
       FREQ_ALGORI          IVIALG         STANDARD    [  0]    ***   
       FROZEN_CORE          IFROCO         OFF         [  0]    ***   
       GAMMA_ABCD           IGABCD         STORE       [  0]    ***   
       GAMMA_ABCI           IGABCI         STORE       [  0]    ***   
       GENBAS_1             IGNBS1              0               ***   
       GENBAS_2             IGNBS2              0               ***   
       GENBAS_3             IGNBS3              0               ***   
       GENBAS_4             IGNBS4              0               ***   
       GEO_CONV             ICONTL              5              H/bohr 
       GEO_MAXCYC           IOPTCY             50               ***   
       GEO_MAXSTEP          IMXSTP            300            millibohr
       GEO_METHOD           INR            SINGLE_POINT[  5]    ***   
       GIAO                 IGIAO          OFF         [  1]    ***   
       GIMIC                IGIMIC         OFF         [  0]    ***   
       GRID                 IGRID          OFF         [  0]    ***   
       GRID_ALGO            IGALGO         SERIAL      [  0]    ***   
       GUESS                IGUESS         MOREAD      [  0]    ***   
       HBAR                 IHBAR          OFF         [  0]    ***   
       HESS_TYPE            IHESTP         SCF         [  0]    ***   
       HF2_FILE             IHF2Fl         USE         [  1]    ***   
       HFSTABILITY          ISTABL         OFF         [  0]    ***   
       INCORE               INCORE         OFF         [  0]    ***   
       INPUT_MRCC           IMRCC          ON          [  1]    ***   
       INTEGRALS            INTTYP         VMOL        [  1]    ***   
       JODA_PRINT           IJPRNT              0               ***   
       KEYWORD_OUT          IDMPKW         NO          [  0]    ***   
       LINDEP_TOL           ILINDP              8               ***   
       LINEQ_CONV           IZTACN          10D-  7           cycles  
       LINEQ_EXPOR          ILMAXD              5               ***   
       LINEQ_MAXCY          ILMAXC            100               ***   
       LINEQ_TYPE           ILTYPE         DIIS        [  1]    ***   
       LOCK_ORBOCC          ILOCOC         OFF         [  0]    ***   
       MEMORY_SIZE          IMEMSZ         500000000           words  
       MEM_UNIT             IMEMU          INTEGERWORDS[  0]    ***   
       MRCC                 IMRCCC         OFF         [  0]    ***   
       MULTIPLICTY          IMULTP              1               ***   
       NACOUPLING           IVCOUP         OFF         [  0]    ***   
       NEGEVAL              IDIE           ABORT       [  0]    ***   
       NEWNORM              INEWNO         OFF         [  0]    ***   
       NON-HF               INONHF         OFF         [  0]    ***   
       NTOP_TAMP            ITOPT2             15               ***   
       NUC_MODEL            INUCMO         POINT       [  0]    ***   
       OCCUPATION           IOCCU   ESTIMATED BY SCF 
       OPEN-SHELL           IOPEN          SPIN-ORBITAL[  0]    ***   
       OPTVIB               IOPTVB         OFF         [  0]    ***   
       ORBITALS             IORBTP         STANDARD    [  0]    ***   
       PARALLEL             IPARAL         ON          [  1]    ***   
       PARA_INT             IPINTS         ON          [  1]    ***   
       PARA_PRINT           IPPRIN              0               ***   
       PERT_ORB             IPTORB         STANDARD    [  0]    ***   
       POINTS               IGRDFD              0               ***   
       PRINT                IPRNT               0               ***   
       PROPS                IPROPS         OFF         [  0]    ***   
       PROP_INTEGR          IINTYP         INTERNAL    [  0]    ***   
       PSI                  IPSI           OFF         [  0]    ***   
       QC_ALG               IQCALG         FLM         [  0]    ***   
       QC_LINALG            IQCLIN         TRIDIAG     [  2]    ***   
       QC_MAXCYC            IQCMAX          10D-100           cycles  
       QC_MAXSCFCY          IQCMSC          10D- 15           cycles  
       QC_RTRUST            IQCRTR          10D-  0           x 10-3  
       QC_SKIPSCF           IQCSKI         OFF         [  0]    ***   
       QC_START             IQCSTA          10D-  1             ***   
       QRHFGUESS            IQGUES         OFF         [  0]    ***   
       QUARTIC              IQUART         OFF         [  0]    ***   
       RAMAN_INT            IRAMIN         OFF         [  0]    ***   
       RAMAN_ORB            IRAMRE         UNRELAXED   [  0]    ***   
       RDO                  IRDOFM         ON          [  1]    ***   
       REDUCE_REPR          REDREP         Ir          [  0]    ***   
       REFERENCE            IREFNC         RHF         [  0]    ***   
       RELATIVIST           IRELAT         OFF         [  0]    ***   
       RELAX_DENS           IRDENS         ON          [  1]    ***   
       RESET_FLAGS          IRESET         OFF         [  0]    ***   
       RESTART_CC           ICCRES         OFF         [  0]    ***   
       ROT_EVEC             ROTVEC              0               ***   
       SAVE_INTS            ISVINT         OFF         [  0]    ***   
       SCALE_ON             ISTCRT              0               ***   
       SCF_CONV             ISCFCV          10D- 10             ***   
       SCF_DAMPING          IDAMP               0             x 10-3  
       SCF_EXPORDE          IRPPOR              6               ***   
       SCF_EXPSTAR          IRPPLS              8               ***   
       SCF_EXTRAPO          IRPP           ON          [  1]    ***   
       SCF_MAXCYC           ISCFCY            150              cycles 
       SCF_NOSTOP           ISCFST         OFF         [  0]    ***   
       SCF_PRINT            ISCFPR              0               ***   
       SCF_PROG             ISCFPR         SCF         [  0]    ***   
       SD_FIELD             IFINSD              0             x 10-6  
       SOPERT               IPERSO         OFF         [  0]    ***   
       SPHERICAL            IDFGHI         ON          [  1]    ***   
       SPINORBIT            ISOCAL         OFF         [  0]    ***   
       SPINROTATIO          ISRCON         OFF         [  0]    ***   
       SPIN_FLIP            ISPFLP         OFF         [  0]    ***   
       SPIN_ORBIT           ISPORB         OFF         [  0]    ***   
       SPIN_SCAL            ISCSMP         OFF         [  0]    ***   
       STEEPSCALE           ISTPSC              1000          x 10-3  
       SUBGROUP             ISUBGP         DEFAULT     [  0]    ***   
       SUBGRPAXIS           ISBXYZ         X           [  0]    ***   
       SYMMETRY             ISYM           ON          [  0]    ***   
       SYM_CHECK            ISYMCK         OVERRIDE    [  1]    ***   
       T3_EXTRAPOL          IT3EXT         OFF         [  0]    ***   
       T4_EXTRAPOL          IT4EXP         OFF         [  0]    ***   
       TAMP_SUM             IEVERY              5               ***   
       TESTSUITE            ITESTS         OFF         [  0]    ***   
       THERMOCH             ITHERM         OFF         [  0]    ***   
       TOL_CHOLESK          ITOLCH          10D-  4             ***   
       TRANGRAD             IRESRM         OFF         [  0]    ***   
       TRANS_INV            ITRAIN         IGNORE      [  1]    ***   
       TREAT_PERT           ITREAT         SIMULTANEOUS[  0]    ***   
       TRIP_ALGORI          ITRALG         NORMAL      [  0]    ***   
       UIJ_THRESHO          IUIJTH              1               ***   
       UNITS                IUNITS         ANGSTROM    [  0]    ***   
       UNOS                 IUNOS          OFF         [  0]    ***   
       UPDATE_HESS          IHUPDT         ON          [  1]    ***   
       VIBPHASE             ISETPH         STANDARD    [  0]    ***   
       VIBRATION            IVIB           ANALYTIC    [  1]    ***   
       VIB_ALGORIT          IGEALG         STANDARD    [  0]    ***   
       VNATORB              IVNORB         OFF         [  0]    ***   
       VTRAN                IVTRAN         FULL/PARTIAL[  0]    ***   
       XFIELD               IXEFLD              0             x 10-6  
       XFORM_TOL            IXFTOL          10D- 11             ***   
       YFIELD               IYEFLD              0             x 10-6  
       ZFIELD               IZEFLD            ***             x 10-6  
       ZSCALE_EXP           IZEXPS         OFF         [  0]    ***   
    -------------------------------------------------------------------
   2 entries found in Z-matrix 
   Job Title : Carbon Monoxide DBOC calculation                                                
   There are  1 unique internal coordinates.
   Of these,  0 will be optimized.
   User supplied Z-matrix: 
--------------------------------------------------------------------------------
       SYMBOL    BOND      LENGTH    ANGLE     ANGLE     DIHED     ANGLE
                  TO      (ANGST)    WRT      (DEG)      WRT      (DEG)
--------------------------------------------------------------------------------
        C    
        O          1         r    
                  *Initial values for internal coordinates* 
                      Name             Value
                        r               1.3965517241
--------------------------------------------------------------------------------
  read isotopes from ZMAT file 
   Rotational constants (in cm-1): 
          1.2050837930             1.2050837930
   Rotational constants (in MHz): 
      36127.5083010552         36127.5083010552
********************************************************************************
   The full molecular point group is CXv .
   The largest Abelian subgroup of the full molecular point group is C2v .
   The computational point group is C2v .
********************************************************************************
--------------------------------------------------------------------------------
   Analysis of internal coordinates specified by Z-matrix 
--------------------------------------------------------------------------------
   *The nuclear repulsion energy is   18.188012918518517 a.u.
   *There is   1 degree of freedom within the tot. symm. molecular subspace.
   *Z-matrix requests optimization of   0 coordinates.
   *The optimization is constrained.
   *The following   1 parameters can have non-zero 
    derivatives within the totally symmetric subspace:
             r    [ 1]
   *The following   0 parameters are to be optimized:

   *The following coordinates must be varied in an  unconstrained optimization.
             r    [ 1]
--------------------------------------------------------------------------------


 ----------------------------------------------------------------
         Coordinates used in calculation (QCOMP) 
 ----------------------------------------------------------------
 Z-matrix   Atomic            Coordinates (in bohr)
  Symbol    Number           X              Y              Z
 ----------------------------------------------------------------
     C         6        -0.00000000     0.00000000     1.45567971
     O         8         0.00000000     0.00000000    -1.18342112
 ----------------------------------------------------------------
 
   Interatomic distance matrix (Angstroms) 
 
                 C             O    
                [ 1]        [ 2]
  C    [ 1]     0.00000
  O    [ 2]     1.39655     0.00000
 rotcon2
   Rotational constants (in cm-1): 
          1.2050837930             0.0000000000
   Rotational constants (in MHz): 
      36127.5083010552             0.0000000000
  ECPDATA file not present.   Using default ECPDATA. 
  @GTFLGS-I, Hessian will be transformed to curvilinear coordinates.
  There are  218 basis functions.
 @CHECKOUT-I, Total execution time (CPU/WALL):        0.23/       0.28 seconds.
--executable xjoda finished with status     0 in        0.31 seconds (walltime).
 --invoking executable--
/nfs/workspaces/public/cfour_mpi/bin/xvmol
 SERIAL VERSION OF MOLECULE STARTED
********************************************************************************
                    INPUT FROM MOL FILE
********************************************************************************
INTGRL        1    0    1    0    0    0    0    0    0                         
         *** CFOUR Program System (Release V0.1) ***                            
Carbon Monoxide DBOC calculation                                                
    2    2 X  Y       0.10E-08              0    0                              
   9999.00      3.00                                                            
          6.00000000    1    5    1    1    1    1    1                         
C #1  -0.000000000000000   0.000000000000000   1.455679710448255                
   16    9                                                                      
   33980.0000000000       9.100000000000000E-005 -1.900000000000000E-005        
  0.000000000000000E+000  0.000000000000000E+000  0.000000000000000E+000        
  0.000000000000000E+000  0.000000000000000E+000  0.000000000000000E+000        
  0.000000000000000E+000                                                        
   5089.00000000000       7.040000000000000E-004 -1.510000000000000E-004        
  0.000000000000000E+000  0.000000000000000E+000  0.000000000000000E+000        
  0.000000000000000E+000  0.000000000000000E+000  0.000000000000000E+000        
  0.000000000000000E+000                                                        
   1157.00000000000       3.693000000000000E-003 -7.850000000000000E-004        
  0.000000000000000E+000  0.000000000000000E+000  0.000000000000000E+000        
  0.000000000000000E+000  0.000000000000000E+000  0.000000000000000E+000        
  0.000000000000000E+000                                                        
   326.600000000000       1.536000000000000E-002 -3.324000000000000E-003        
  0.000000000000000E+000  0.000000000000000E+000  0.000000000000000E+000        
  0.000000000000000E+000  0.000000000000000E+000  0.000000000000000E+000        
  0.000000000000000E+000                                                        
   106.100000000000       5.292900000000000E-002 -1.151200000000000E-002        
  0.000000000000000E+000  0.000000000000000E+000  0.000000000000000E+000        
  0.000000000000000E+000  0.000000000000000E+000  0.000000000000000E+000        
  0.000000000000000E+000                                                        
   38.1100000000000       0.147043000000000      -3.416000000000000E-002        
  0.000000000000000E+000  0.000000000000000E+000  0.000000000000000E+000        
  0.000000000000000E+000  0.000000000000000E+000  0.000000000000000E+000        
  0.000000000000000E+000                                                        
   14.7500000000000       0.305631000000000      -7.717300000000001E-002        
  0.000000000000000E+000  0.000000000000000E+000  0.000000000000000E+000        
  0.000000000000000E+000  0.000000000000000E+000  0.000000000000000E+000        
  0.000000000000000E+000                                                        
   6.03500000000000       0.399345000000000      -0.141493000000000             
  0.000000000000000E+000  0.000000000000000E+000  0.000000000000000E+000        
  0.000000000000000E+000  0.000000000000000E+000  0.000000000000000E+000        
  0.000000000000000E+000                                                        
   2.53000000000000       0.217051000000000      -0.118019000000000             
  0.000000000000000E+000  0.000000000000000E+000  0.000000000000000E+000        
  0.000000000000000E+000  0.000000000000000E+000  0.000000000000000E+000        
  0.000000000000000E+000                                                        
  0.735500000000000       1.589400000000000E-002  0.273806000000000             
   1.00000000000000       0.000000000000000E+000  0.000000000000000E+000        
  0.000000000000000E+000  0.000000000000000E+000  0.000000000000000E+000        
  0.000000000000000E+000                                                        
  0.290500000000000      -3.084000000000000E-003  0.586510000000000             
  0.000000000000000E+000   1.00000000000000       0.000000000000000E+000        
  0.000000000000000E+000  0.000000000000000E+000  0.000000000000000E+000        
  0.000000000000000E+000                                                        
  0.111100000000000       9.779999999999999E-004  0.285430000000000             
  0.000000000000000E+000  0.000000000000000E+000   1.00000000000000             
  0.000000000000000E+000  0.000000000000000E+000  0.000000000000000E+000        
  0.000000000000000E+000                                                        
   7.21600000000000       0.000000000000000E+000  0.000000000000000E+000        
  0.000000000000000E+000  0.000000000000000E+000  0.000000000000000E+000        
   1.00000000000000       0.000000000000000E+000  0.000000000000000E+000        
  0.000000000000000E+000                                                        
   19.5700000000000       0.000000000000000E+000  0.000000000000000E+000        
  0.000000000000000E+000  0.000000000000000E+000  0.000000000000000E+000        
  0.000000000000000E+000   1.00000000000000       0.000000000000000E+000        
  0.000000000000000E+000                                                        
   53.0730000000000       0.000000000000000E+000  0.000000000000000E+000        
  0.000000000000000E+000  0.000000000000000E+000  0.000000000000000E+000        
  0.000000000000000E+000  0.000000000000000E+000   1.00000000000000             
  0.000000000000000E+000                                                        
  4.145000000000000E-002  0.000000000000000E+000  0.000000000000000E+000        
  0.000000000000000E+000  0.000000000000000E+000  0.000000000000000E+000        
  0.000000000000000E+000  0.000000000000000E+000  0.000000000000000E+000        
   1.00000000000000                                                             
   10    8                                                                      
   34.5100000000000       5.378000000000000E-003  0.000000000000000E+000        
  0.000000000000000E+000  0.000000000000000E+000  0.000000000000000E+000        
  0.000000000000000E+000  0.000000000000000E+000  0.000000000000000E+000        
   7.91500000000000       3.613200000000000E-002  0.000000000000000E+000        
  0.000000000000000E+000  0.000000000000000E+000  0.000000000000000E+000        
  0.000000000000000E+000  0.000000000000000E+000  0.000000000000000E+000        
   2.36800000000000       0.142493000000000       0.000000000000000E+000        
  0.000000000000000E+000  0.000000000000000E+000  0.000000000000000E+000        
  0.000000000000000E+000  0.000000000000000E+000  0.000000000000000E+000        
  0.813200000000000       0.342150000000000        1.00000000000000             
  0.000000000000000E+000  0.000000000000000E+000  0.000000000000000E+000        
  0.000000000000000E+000  0.000000000000000E+000  0.000000000000000E+000        
  0.289000000000000       0.463864000000000       0.000000000000000E+000        
   1.00000000000000       0.000000000000000E+000  0.000000000000000E+000        
  0.000000000000000E+000  0.000000000000000E+000  0.000000000000000E+000        
  0.100700000000000       0.250028000000000       0.000000000000000E+000        
  0.000000000000000E+000   1.00000000000000       0.000000000000000E+000        
  0.000000000000000E+000  0.000000000000000E+000  0.000000000000000E+000        
   8.18200000000000       0.000000000000000E+000  0.000000000000000E+000        
  0.000000000000000E+000  0.000000000000000E+000   1.00000000000000             
  0.000000000000000E+000  0.000000000000000E+000  0.000000000000000E+000        
   24.1860000000000       0.000000000000000E+000  0.000000000000000E+000        
  0.000000000000000E+000  0.000000000000000E+000  0.000000000000000E+000        
   1.00000000000000       0.000000000000000E+000  0.000000000000000E+000        
   71.4940000000000       0.000000000000000E+000  0.000000000000000E+000        
  0.000000000000000E+000  0.000000000000000E+000  0.000000000000000E+000        
  0.000000000000000E+000   1.00000000000000       0.000000000000000E+000        
  3.218000000000000E-002  0.000000000000000E+000  0.000000000000000E+000        
  0.000000000000000E+000  0.000000000000000E+000  0.000000000000000E+000        
  0.000000000000000E+000  0.000000000000000E+000   1.00000000000000             
    6    6                                                                      
   1.84800000000000        1.00000000000000       0.000000000000000E+000        
  0.000000000000000E+000  0.000000000000000E+000  0.000000000000000E+000        
  0.000000000000000E+000                                                        
  0.649000000000000       0.000000000000000E+000   1.00000000000000             
  0.000000000000000E+000  0.000000000000000E+000  0.000000000000000E+000        
  0.000000000000000E+000                                                        
  0.228000000000000       0.000000000000000E+000  0.000000000000000E+000        
   1.00000000000000       0.000000000000000E+000  0.000000000000000E+000        
  0.000000000000000E+000                                                        
   8.65600000000000       0.000000000000000E+000  0.000000000000000E+000        
  0.000000000000000E+000   1.00000000000000       0.000000000000000E+000        
  0.000000000000000E+000                                                        
   33.2130000000000       0.000000000000000E+000  0.000000000000000E+000        
  0.000000000000000E+000  0.000000000000000E+000   1.00000000000000             
  0.000000000000000E+000                                                        
  7.660000000000000E-002  0.000000000000000E+000  0.000000000000000E+000        
  0.000000000000000E+000  0.000000000000000E+000  0.000000000000000E+000        
   1.00000000000000                                                             
    4    4                                                                      
   1.41900000000000        1.00000000000000       0.000000000000000E+000        
  0.000000000000000E+000  0.000000000000000E+000                                
  0.485000000000000       0.000000000000000E+000   1.00000000000000             
  0.000000000000000E+000  0.000000000000000E+000                                
   24.6940000000000       0.000000000000000E+000  0.000000000000000E+000        
   1.00000000000000       0.000000000000000E+000                                
  0.187000000000000       0.000000000000000E+000  0.000000000000000E+000        
  0.000000000000000E+000   1.00000000000000                                     
    2    2                                                                      
   1.01100000000000        1.00000000000000       0.000000000000000E+000        
  0.424000000000000       0.000000000000000E+000   1.00000000000000             
          8.00000000    1    5    1    1    1    1    1                         
O #2   0.000000000000000   0.000000000000000  -1.183421120139333                
   16    9                                                                      
   61420.0000000000       9.000000000000001E-005 -2.000000000000000E-005        
  0.000000000000000E+000  0.000000000000000E+000  0.000000000000000E+000        
  0.000000000000000E+000  0.000000000000000E+000  0.000000000000000E+000        
  0.000000000000000E+000                                                        
   9199.00000000000       6.980000000000001E-004 -1.590000000000000E-004        
  0.000000000000000E+000  0.000000000000000E+000  0.000000000000000E+000        
  0.000000000000000E+000  0.000000000000000E+000  0.000000000000000E+000        
  0.000000000000000E+000                                                        
   2091.00000000000       3.664000000000000E-003 -8.290000000000000E-004        
  0.000000000000000E+000  0.000000000000000E+000  0.000000000000000E+000        
  0.000000000000000E+000  0.000000000000000E+000  0.000000000000000E+000        
  0.000000000000000E+000                                                        
   590.900000000000       1.521800000000000E-002 -3.508000000000000E-003        
  0.000000000000000E+000  0.000000000000000E+000  0.000000000000000E+000        
  0.000000000000000E+000  0.000000000000000E+000  0.000000000000000E+000        
  0.000000000000000E+000                                                        
   192.300000000000       5.242300000000000E-002 -1.215600000000000E-002        
  0.000000000000000E+000  0.000000000000000E+000  0.000000000000000E+000        
  0.000000000000000E+000  0.000000000000000E+000  0.000000000000000E+000        
  0.000000000000000E+000                                                        
   69.3200000000000       0.145921000000000      -3.626100000000000E-002        
  0.000000000000000E+000  0.000000000000000E+000  0.000000000000000E+000        
  0.000000000000000E+000  0.000000000000000E+000  0.000000000000000E+000        
  0.000000000000000E+000                                                        
   26.9700000000000       0.305258000000000      -8.299200000000000E-002        
  0.000000000000000E+000  0.000000000000000E+000  0.000000000000000E+000        
  0.000000000000000E+000  0.000000000000000E+000  0.000000000000000E+000        
  0.000000000000000E+000                                                        
   11.1000000000000       0.398508000000000      -0.152090000000000             
  0.000000000000000E+000  0.000000000000000E+000  0.000000000000000E+000        
  0.000000000000000E+000  0.000000000000000E+000  0.000000000000000E+000        
  0.000000000000000E+000                                                        
   4.68200000000000       0.216980000000000      -0.115331000000000             
  0.000000000000000E+000  0.000000000000000E+000  0.000000000000000E+000        
  0.000000000000000E+000  0.000000000000000E+000  0.000000000000000E+000        
  0.000000000000000E+000                                                        
   1.42800000000000       1.759400000000000E-002  0.288979000000000             
   1.00000000000000       0.000000000000000E+000  0.000000000000000E+000        
  0.000000000000000E+000  0.000000000000000E+000  0.000000000000000E+000        
  0.000000000000000E+000                                                        
  0.554700000000000      -2.502000000000000E-003  0.586128000000000             
  0.000000000000000E+000   1.00000000000000       0.000000000000000E+000        
  0.000000000000000E+000  0.000000000000000E+000  0.000000000000000E+000        
  0.000000000000000E+000                                                        
  0.206700000000000       9.540000000000000E-004  0.277624000000000             
  0.000000000000000E+000  0.000000000000000E+000   1.00000000000000             
  0.000000000000000E+000  0.000000000000000E+000  0.000000000000000E+000        
  0.000000000000000E+000                                                        
   12.9740000000000       0.000000000000000E+000  0.000000000000000E+000        
  0.000000000000000E+000  0.000000000000000E+000  0.000000000000000E+000        
   1.00000000000000       0.000000000000000E+000  0.000000000000000E+000        
  0.000000000000000E+000                                                        
   34.9000000000000       0.000000000000000E+000  0.000000000000000E+000        
  0.000000000000000E+000  0.000000000000000E+000  0.000000000000000E+000        
  0.000000000000000E+000   1.00000000000000       0.000000000000000E+000        
  0.000000000000000E+000                                                        
   93.8810000000000       0.000000000000000E+000  0.000000000000000E+000        
  0.000000000000000E+000  0.000000000000000E+000  0.000000000000000E+000        
  0.000000000000000E+000  0.000000000000000E+000   1.00000000000000             
  0.000000000000000E+000                                                        
  6.959000000000000E-002  0.000000000000000E+000  0.000000000000000E+000        
  0.000000000000000E+000  0.000000000000000E+000  0.000000000000000E+000        
  0.000000000000000E+000  0.000000000000000E+000  0.000000000000000E+000        
   1.00000000000000                                                             
   10    8                                                                      
   63.4200000000000       6.044000000000000E-003  0.000000000000000E+000        
  0.000000000000000E+000  0.000000000000000E+000  0.000000000000000E+000        
  0.000000000000000E+000  0.000000000000000E+000  0.000000000000000E+000        
   14.6600000000000       4.179900000000000E-002  0.000000000000000E+000        
  0.000000000000000E+000  0.000000000000000E+000  0.000000000000000E+000        
  0.000000000000000E+000  0.000000000000000E+000  0.000000000000000E+000        
   4.45900000000000       0.161143000000000       0.000000000000000E+000        
  0.000000000000000E+000  0.000000000000000E+000  0.000000000000000E+000        
  0.000000000000000E+000  0.000000000000000E+000  0.000000000000000E+000        
   1.53100000000000       0.356731000000000        1.00000000000000             
  0.000000000000000E+000  0.000000000000000E+000  0.000000000000000E+000        
  0.000000000000000E+000  0.000000000000000E+000  0.000000000000000E+000        
  0.530200000000000       0.448309000000000       0.000000000000000E+000        
   1.00000000000000       0.000000000000000E+000  0.000000000000000E+000        
  0.000000000000000E+000  0.000000000000000E+000  0.000000000000000E+000        
  0.175000000000000       0.244940000000000       0.000000000000000E+000        
  0.000000000000000E+000   1.00000000000000       0.000000000000000E+000        
  0.000000000000000E+000  0.000000000000000E+000  0.000000000000000E+000        
   14.4750000000000       0.000000000000000E+000  0.000000000000000E+000        
  0.000000000000000E+000  0.000000000000000E+000   1.00000000000000             
  0.000000000000000E+000  0.000000000000000E+000  0.000000000000000E+000        
   42.7300000000000       0.000000000000000E+000  0.000000000000000E+000        
  0.000000000000000E+000  0.000000000000000E+000  0.000000000000000E+000        
   1.00000000000000       0.000000000000000E+000  0.000000000000000E+000        
   126.140000000000       0.000000000000000E+000  0.000000000000000E+000        
  0.000000000000000E+000  0.000000000000000E+000  0.000000000000000E+000        
  0.000000000000000E+000   1.00000000000000       0.000000000000000E+000        
  5.348000000000000E-002  0.000000000000000E+000  0.000000000000000E+000        
  0.000000000000000E+000  0.000000000000000E+000  0.000000000000000E+000        
  0.000000000000000E+000  0.000000000000000E+000   1.00000000000000             
    6    6                                                                      
   3.77500000000000        1.00000000000000       0.000000000000000E+000        
  0.000000000000000E+000  0.000000000000000E+000  0.000000000000000E+000        
  0.000000000000000E+000                                                        
   1.30000000000000       0.000000000000000E+000   1.00000000000000             
  0.000000000000000E+000  0.000000000000000E+000  0.000000000000000E+000        
  0.000000000000000E+000                                                        
  0.444000000000000       0.000000000000000E+000  0.000000000000000E+000        
   1.00000000000000       0.000000000000000E+000  0.000000000000000E+000        
  0.000000000000000E+000                                                        
   14.9270000000000       0.000000000000000E+000  0.000000000000000E+000        
  0.000000000000000E+000   1.00000000000000       0.000000000000000E+000        
  0.000000000000000E+000                                                        
   57.5440000000000       0.000000000000000E+000  0.000000000000000E+000        
  0.000000000000000E+000  0.000000000000000E+000   1.00000000000000             
  0.000000000000000E+000                                                        
  0.154000000000000       0.000000000000000E+000  0.000000000000000E+000        
  0.000000000000000E+000  0.000000000000000E+000  0.000000000000000E+000        
   1.00000000000000                                                             
    4    4                                                                      
   2.66600000000000        1.00000000000000       0.000000000000000E+000        
  0.000000000000000E+000  0.000000000000000E+000                                
  0.859000000000000       0.000000000000000E+000   1.00000000000000             
  0.000000000000000E+000  0.000000000000000E+000                                
   26.4830000000000       0.000000000000000E+000  0.000000000000000E+000        
   1.00000000000000       0.000000000000000E+000                                
  0.324000000000000       0.000000000000000E+000  0.000000000000000E+000        
  0.000000000000000E+000   1.00000000000000                                     
    2    2                                                                      
   1.84600000000000        1.00000000000000       0.000000000000000E+000        
  0.714000000000000       0.000000000000000E+000   1.00000000000000             
FINISH                                                                          
 
********************************************************************************
 ONE- AND TWO-ELECTRON INTEGRALS OVER SYMMETRY-ADAPTED AOS ARE CALCULATED.

  SPHERICAL HARMONICS ARE USED.
  
  INTEGRALS LESS THAN  0.10E-13 ARE NEGLECTED.

  NUCLEAR REPULSION ENERGY :   18.1880129185 A.U.
  @MOLECU-I, ONE ELECTRON INTEGRALS (CPU/WALL):        0.06/       0.08 SECONDS.
  @TWOEL-I,    4497710 INTEGRALS OF SYMMETRY TYPE  I I I I
  @TWOEL-I,   19389721 INTEGRALS OF SYMMETRY TYPE  I J I J
  @TWOEL-I,   10209393 INTEGRALS OF SYMMETRY TYPE  I I J J
  @TWOEL-I,   14352813 INTEGRALS OF SYMMETRY TYPE  I J K L
  @TWOEL-I, TOTAL NUMBER OF 2-E INTEGRALS   48449637.
  @MOLECU-I, TWO ELECTRON INTEGRALS (CPU/WALL):      227.25/      31.68 SECONDS.
 @CHECKOUT-I, Total execution time (CPU/WALL):      227.31/      31.80 seconds.

Running with 14 threads/proc

--executable xvmol finished with status     0 in       31.84 seconds (walltime).
 --invoking executable--
/nfs/workspaces/public/cfour_mpi/bin/xvmol2ja
 @GETMEM-I,  Allocated    3814 MB of main memory.
 @CHECKOUT-I, Total execution time (CPU/WALL):        0.20/       0.09 seconds.
--executable xvmol2ja finished with status     0 in        0.14 seconds (walltime).
 --invoking executable--
/nfs/workspaces/public/cfour_mpi/bin/xvprop
 @GETMEM-I,  Allocated    3814 MB of main memory.
   Property integrals will be calculated.
    --------------------------------------------------------------
                                   Property evaluated at 
    Property type                X             Y             Z
    --------------------------------------------------------------
    Dipole moment               ----          ----          ----  
    Quadrupole moment           ----          ----          ----  
    Octopole moment             ----          ----          ----  
    Relativisitic corr.         ----          ----          ----  
    Second moment            0.0000000     0.0000000     0.0000000
    Electron density         0.0000000     0.0000000     1.4556797
    Electron density         0.0000000     0.0000000    -1.1834211
    Field gradient           0.0000000     0.0000000     1.4556797
    Field gradient           0.0000000     0.0000000    -1.1834211
    Potential                0.0000000     0.0000000     1.4556797
    Potential                0.0000000     0.0000000    -1.1834211
    --------------------------------------------------------------
 @CHECKOUT-I, Total execution time (CPU/WALL):        1.38/       1.41 seconds.
--executable xvprop finished with status     0 in        1.44 seconds (walltime).
 --invoking executable--
/nfs/workspaces/public/cfour_mpi/bin/xvscf
  There are  218 functions in the AO basis.

  There are 4 irreducible representations.

       Irrep        # of functions
         1                 86
         2                 52
         3                 52
         4                 28


  Parameters for SCF calculation: 
        SCF reference function:  RHF  
  Maximum number of iterations:  150
     Full symmetry point group: CXv 
     Computational point group: C2v 
        Initial density matrix: MOREAD                 
     SCF convergence tolerance: 10**(-10)
  DIIS convergence acceleration:  ON
          Latest start for DIIS:   8
                     DIIS order:   6

  Memory information:    2523578 words required.
  Fock matrices are constructed from AO integral file.
 @GETMEM-I,  Allocated      19 MB of main memory.
  Initialization and symmetry analysis required      0.001 seconds.

  Adding electric field perturbation to one-electron Hamiltonian.
  Field direction     : Z
  Field strength      : -0.0002000 a.u.

  @INITGES-I, Occupancies from core Hamiltonian:

          Alpha population by irrep:   5    1    1    0
           Beta population by irrep:   5    1    1    0


 total no. of electrons in initial guess :  0.000000000000000E+000
  --------------------------------------------------------------------
  Iteration         Total Energy            Largest Density Difference
  --------------------------------------------------------------------
       0            18.187866260379202              0.0000000000D+00
   current occupation vector 
     5  1  1  0
     5  1  1  0
       1           -93.157111839105937              0.1763729144D+02
   current occupation vector 
     5  1  1  0
     5  1  1  0
       2           -98.377233147469695              0.1763462721D+02
   current occupation vector 
     5  1  1  0
     5  1  1  0
       3          -103.312291950467994              0.6691999689D+01
   current occupation vector 
     5  1  1  0
     5  1  1  0
       4           -98.601977313016704              0.6685263396D+01
   current occupation vector 
     5  1  1  0
     5  1  1  0
       5          -101.287809123542473              0.6446705582D+01
   current occupation vector 
     5  1  1  0
     5  1  1  0
       6           -97.024492001993508              0.6433692655D+01
   current occupation vector 
     5  1  1  0
     5  1  1  0
       7          -101.264840010083702              0.6576538084D+01
   current occupation vector 
     5  1  1  0
     5  1  1  0
       8           -96.937771672101491              0.6576544021D+01
   current occupation vector 
     5  1  1  0
     5  1  1  0
       9          -108.165238180754159              0.5044228802D+01
   current occupation vector 
     5  1  1  0
     5  1  1  0
      10          -110.062532363302410              0.9997780633D+00
   current occupation vector 
     5  1  1  0
     5  1  1  0
      11          -112.397857010296093              0.1363874417D+01
   current occupation vector 
     5  1  1  0
     5  1  1  0
      12          -112.658738665110604              0.5148856359D+00
   current occupation vector 
     5  1  1  0
     5  1  1  0
      13          -112.661230674604639              0.8203158635D-01
   current occupation vector 
     5  1  1  0
     5  1  1  0
      14          -112.661728280106217              0.3296575820D-01
   current occupation vector 
     5  1  1  0
     5  1  1  0
      15          -112.661761117574684              0.9426226550D-02
   current occupation vector 
     5  1  1  0
     5  1  1  0
      16          -112.661762584018334              0.2135721034D-02
   current occupation vector 
     5  1  1  0
     5  1  1  0
      17          -112.661762795961579              0.9507136478D-03
   current occupation vector 
     5  1  1  0
     5  1  1  0
      18          -112.661762830440523              0.3831328727D-03
   current occupation vector 
     5  1  1  0
     5  1  1  0
      19          -112.661762831778020              0.9747528671D-04
   current occupation vector 
     5  1  1  0
     5  1  1  0
      20          -112.661762831793908              0.4019390089D-05
   current occupation vector 
     5  1  1  0
     5  1  1  0
      21          -112.661762831795642              0.7019866424D-06
   current occupation vector 
     5  1  1  0
     5  1  1  0
      22          -112.661762831794903              0.1246004793D-06
   current occupation vector 
     5  1  1  0
     5  1  1  0
      23          -112.661762831796182              0.2672421529D-07
   current occupation vector 
     5  1  1  0
     5  1  1  0
      24          -112.661762831795244              0.3298967099D-08
   current occupation vector 
     5  1  1  0
     5  1  1  0
      25          -112.661762831794135              0.8989997635D-09
   current occupation vector 
     5  1  1  0
     5  1  1  0
      26          -112.661762831795869              0.3381992464D-09
   current occupation vector 
     5  1  1  0
     5  1  1  0
      27          -112.661762831795727              0.1683639894D-09
   current occupation vector 
     5  1  1  0
     5  1  1  0
      28          -112.661762831795045              0.1724269616D-09
   current occupation vector 
     5  1  1  0
     5  1  1  0

  SCF has converged.

 Density matrix saved to file den.dat
 total electron number:   13.9999999999999     
     E(SCF)=      -112.661762831795926              0.9716893956D-10

  Eigenvector printing suppressed.

 @PUTMOS-I, Writing converged MOs to NEWMOS. 
 @PUTMOS-I, Symmetry   1 Full Blocks 21 Partial Blocksize   2
 @PUTMOS-I, Symmetry   2 Full Blocks 13 Partial Blocksize   0
 @PUTMOS-I, Symmetry   3 Full Blocks 13 Partial Blocksize   0
 @PUTMOS-I, Symmetry   4 Full Blocks  7 Partial Blocksize   0
 @PUTFOCK-I, Writing converged Fock matrix to NEWFOCK. 
 @PUTFOCK-I, Symmetry   1 Full Blocks 21 Partial Blocksize   2
 @PUTFOCK-I, Symmetry   2 Full Blocks 13 Partial Blocksize   0
 @PUTFOCK-I, Symmetry   3 Full Blocks 13 Partial Blocksize   0
 @PUTFOCK-I, Symmetry   4 Full Blocks  7 Partial Blocksize   0


 
  ORBITAL EIGENVALUES (ALPHA)  (1H = 27.2113834 eV)

       MO #        E(hartree)               E(eV)           FULLSYM    COMPSYM
       ----   --------------------   --------------------   -------   ---------
    1     1         -20.6615317388        -562.2288617745     SG+        A1 (1)
    2     2         -11.4678078540        -312.0549162723     SG+        A1 (1)
    3     3          -1.3615134333         -37.0486640391     SG+        A1 (1)
    4     4          -0.7934441710         -21.5907135444     SG+        A1 (1)
    5     5          -0.5620480757         -15.2941056765     SG+        A1 (1)
    6   139          -0.5449011583         -14.8275143324      PI        B2 (3)
    7    87          -0.5449011583         -14.8275143324      PI        B1 (2)
  +++++++++++++++++++++++++++++++++++++++++++++++++++++++++++++++++++++++++++++
    8   140           0.0331126443           0.9010408590      PI        B2 (3)
    9    88           0.0331126443           0.9010408590      PI        B1 (2)
   10     6           0.0634250953           1.7258845842     SG+        A1 (1)
   11     7           0.0685971210           1.8666225609     SG+        A1 (1)
   12    89           0.0899108760           2.4465993175      PI        B1 (2)
   13   141           0.0899108760           2.4465993175      PI        B2 (3)
   14     8           0.1573211866           4.2809271263     SG+        A1 (1)
   15   142           0.1727434429           4.7005880556      PI        B2 (3)
   16    90           0.1727434429           4.7005880556      PI        B1 (2)
   17     9           0.2248732912           6.1191133430     SG+        A1 (1)
   18    10           0.2251604283           6.1269267406      DE        A1 (1)
   19   191           0.2251604283           6.1269267406      DE        A2 (4)
   20   143           0.2970261630           8.0824928010      PI        B2 (3)
   21    91           0.2970261630           8.0824928010      PI        B1 (2)
   22    11           0.2993824352           8.1466102267     SG+        A1 (1)
   23    12           0.3682794989          10.0213946422     SG+        A1 (1)
   24    92           0.3986955853          10.8490584317      PI        B1 (2)
   25   144           0.3986955853          10.8490584317      PI        B2 (3)
   26    13           0.4930676598          13.4170531331     SG+        A1 (1)
   27    14           0.5120296398          13.9330348396     SG+        A1 (1)
   28   192           0.5466765245          14.8758245048      DE        A2 (4)
   29    15           0.5466765245          14.8758245048      DE        A1 (1)
   30   145           0.6254190760          17.0185182637      PI        B2 (3)
   31    93           0.6254190760          17.0185182637      PI        B1 (2)
   32    16           0.7355357350          20.0149448897     SG+        A1 (1)
   33   146           0.7402010581          20.1418947851      PH        B2 (3)
   34    94           0.7402010581          20.1418947851      PH        B1 (2)
   35    17           0.7523526056          20.4725552043      DE        A1 (1)
   36   193           0.7523526056          20.4725552043      DE        A2 (4)
   37    95           0.7929764966          21.5779874757      PI        B1 (2)
   38   147           0.7929764966          21.5779874757      PI        B2 (3)
   39    18           0.8251229963          22.4527382047     SG+        A1 (1)
   40    19           0.8677234514          23.6119555202     SG+        A1 (1)
   41   194           0.8744441126          23.7948340108      DE        A2 (4)
   42    20           0.8744441126          23.7948340108      DE        A1 (1)
   43   148           0.8976170851          24.4254026478      PI        B2 (3)
   44    96           0.8976170851          24.4254026478      PI        B1 (2)
   45   149           1.0342080653          28.1422321812      PI        B2 (3)
   46    97           1.0342080653          28.1422321812      PI        B1 (2)
   47    21           1.1225227537          30.5453970252     SG+        A1 (1)
   48    22           1.4016732170          38.1414673100     SG+        A1 (1)
   49    98           1.4293303614          38.8940564692      PH        B1 (2)
   50   150           1.4293303614          38.8940564692      PH        B2 (3)
   51   151           1.5565245639          42.3551866809      PI        B2 (3)
   52    99           1.5565245639          42.3551866809      PI        B1 (2)
   53    23           1.5622402210          42.5107176175      DE        A1 (1)
   54   195           1.5622402210          42.5107176175      DE        A2 (4)
   55    24           1.6339482012          44.4619909598     SG+        A1 (1)
   56   152           1.6497758254          44.8926825092      PI        B2 (3)
   57   100           1.6497758254          44.8926825092      PI        B1 (2)
   58   196           1.7185083310          46.7629890719      DE        A2 (4)
   59    25           1.7185083310          46.7629890720      DE        A1 (1)
   60    26           1.8774256696          51.0873497002     SG+        A1 (1)
   61    27           2.0110236492          54.7227355439     SG+        A1 (1)
   62   153           2.0826582858          56.6720131071      PI        B2 (3)
   63   101           2.0826582858          56.6720131071      PI        B1 (2)
   64   197           2.0847546245          56.7290573813      PI        A2 (4)
   65    28           2.0847546245          56.7290573813      PI        A1 (1)
   66   198           2.1506397411          58.5218825504      DE        A2 (4)
   67    29           2.1506397411          58.5218825504      DE        A1 (1)
   68   102           2.2262274060          60.5787274792      PH        B1 (2)
   69   154           2.2262274060          60.5787274792      PH        B2 (3)
   70   155           2.2652852698          61.6415459856      PI        B2 (3)
   71   103           2.2652852698          61.6415459856      PI        B1 (2)
   72   156           2.2689949721          61.7424921197      PH        B2 (3)
   73   104           2.2689949721          61.7424921197      PH        B1 (2)
   74    30           2.2730386096          61.8525250886     SG+        A1 (1)
   75   199           2.3168139798          63.0437134713      DE        A2 (4)
   76    31           2.3168139798          63.0437134713      DE        A1 (1)
   77    32           2.4980015583          67.9740781378     SG+        A1 (1)
   78   157           2.5267432919          68.7561804699      PI        B2 (3)
   79   105           2.5267432919          68.7561804699      PI        B1 (2)
   80    33           2.6165029687          71.1986654474     SG+        A1 (1)
   81   158           2.6487203453          72.0753448350      PI        B2 (3)
   82   106           2.6487203453          72.0753448350      PI        B1 (2)
   83    34           2.7833673337          75.7392756612      DE        A1 (1)
   84   200           2.7833673337          75.7392756612      DE        A2 (4)
   85    35           3.2525489463          88.5063564038     SG+        A1 (1)
   86   159           3.5739051854          97.2509042357      PI        B2 (3)
   87   107           3.5739051854          97.2509042357      PI        B1 (2)
   88   201           3.7012107603         100.7150650437      PI        A2 (4)
   89    36           3.7012107603         100.7150650437      PI        A1 (1)
   90    37           3.9011833805         106.1565966793     SG+        A1 (1)
   91   108           4.0227957739         109.4658381448      PH        B1 (2)
   92   160           4.0227957739         109.4658381448      PH        B2 (3)
   93   109           4.1264972565         112.2876989461      PH        B1 (2)
   94   161           4.1264972565         112.2876989461      PH        B2 (3)
   95   162           4.1693078636         113.4526347883      PI        B2 (3)
   96   110           4.1693078636         113.4526347883      PI        B1 (2)
   97    38           4.2086944280         114.5243976935     SG+        A1 (1)
   98    39           4.2212746127         114.8667219237      DE        A1 (1)
   99   202           4.2212746127         114.8667219237      DE        A2 (4)
  100   203           4.2793203431         116.4462265466      DE        A2 (4)
  101    40           4.2793203431         116.4462265466      DE        A1 (1)
  102    41           4.4010269377         119.7580313566     SG+        A1 (1)
  103   163           4.7228594321         128.5155387521      PI        B2 (3)
  104   111           4.7228594321         128.5155387521      PI        B1 (2)
  105    42           4.8859408801         132.9532105591      DE        A1 (1)
  106   204           4.8859408801         132.9532105592      DE        A2 (4)
  107    43           4.9336168667         134.2505401077     SG+        A1 (1)
  108   164           5.0769282790         138.1502418931      PI        B2 (3)
  109   112           5.0769282790         138.1502418932      PI        B1 (2)
  110    44           5.3788433329         146.3657681798     SG+        A1 (1)
  111   165           5.4834663686         149.2127057171      PI        B2 (3)
  112   113           5.4834663686         149.2127057171      PI        B1 (2)
  113   205           5.8585370390         159.4188975300      PI        A2 (4)
  114    45           5.8585370390         159.4188975300      PI        A1 (1)
  115   166           5.9546377649         162.0339312293      PH        B2 (3)
  116   114           5.9546377649         162.0339312293      PH        B1 (2)
  117    46           6.1706506772         167.9119414035     SG+        A1 (1)
  118   206           6.1932824600         168.5277835224      DE        A2 (4)
  119    47           6.1932824600         168.5277835225      DE        A1 (1)
  120   167           6.2183699165         169.2104479213      PI        B2 (3)
  121   115           6.2183699165         169.2104479213      PI        B1 (2)
  122    48           6.3296264228         172.2378913704     SG+        A1 (1)
  123   116           6.3923438901         173.9445204191      PH        B1 (2)
  124   168           6.3923438901         173.9445204191      PH        B2 (3)
  125   207           6.5246320081         177.5442631159      DE        A2 (4)
  126    49           6.5246320081         177.5442631159      DE        A1 (1)
  127    50           6.5728462602         178.8562396150      DE        A1 (1)
  128   208           6.5728462602         178.8562396150      DE        A2 (4)
  129   169           6.9905608411         190.2228312270      PI        B2 (3)
  130   117           6.9905608411         190.2228312271      PI        B1 (2)
  131    51           7.2870672054         198.2911795870     SG+        A1 (1)
  132   170           7.7035209933         209.6234632783      PI        B2 (3)
  133   118           7.7035209933         209.6234632783      PI        B1 (2)
  134    52           8.2884651706         225.5406035556     SG+        A1 (1)
  135    53           9.7717778929         265.9035947425     SG+        A1 (1)
  136   119           9.9759476648         271.4593366857      PI        B1 (2)
  137   171           9.9759476648         271.4593366858      PI        B2 (3)
  138   209          10.6266940020         289.1670447642      PI        A2 (4)
  139    54          10.6266940020         289.1670447642      PI        A1 (1)
  140   172          10.7691732267         293.0441015739      PH        B2 (3)
  141   120          10.7691732267         293.0441015739      PH        B1 (2)
  142    55          10.7749641363         293.2016802354     SG+        A1 (1)
  143    56          11.0036337862         299.4240977496      DE        A1 (1)
  144   210          11.0036337862         299.4240977496      DE        A2 (4)
  145   121          11.0711809408         301.2621492716      PI        B1 (2)
  146   173          11.0711809408         301.2621492716      PI        B2 (3)
  147    57          11.3679736388         309.3382891672     SG+        A1 (1)
  148   174          11.8686864628         322.9633777943      PH        B2 (3)
  149   122          11.8686864628         322.9633777943      PH        B1 (2)
  150   211          12.0658992825         328.3298114409      DE        A2 (4)
  151    58          12.0658992825         328.3298114411      DE        A1 (1)
  152   175          12.5987729286         342.8300405296      PI        B2 (3)
  153   123          12.5987729286         342.8300405297      PI        B1 (2)
  154   212          12.7612979191         347.2525703582      DE        A2 (4)
  155    59          12.7612979191         347.2525703582      DE        A1 (1)
  156    60          12.8955818896         350.9066229640     SG+        A1 (1)
  157   176          13.1299978301         357.2854049951      PI        B2 (3)
  158   124          13.1299978301         357.2854049951      PI        B1 (2)
  159    61          13.9989740245         380.9314493871     SG+        A1 (1)
  160    62          17.5260099829         476.9069771157     SG+        A1 (1)
  161   177          18.9021518135         514.3537000819      PI        B2 (3)
  162   125          18.9021518135         514.3537000821      PI        B1 (2)
  163    63          20.3112187089         552.6963596081     SG+        A1 (1)
  164   213          26.3348043578         716.6064581448      DE        A2 (4)
  165    64          26.3348043578         716.6064581448      DE        A1 (1)
  166   178          26.7469258755         727.8208547707      PI        B2 (3)
  167   126          26.7469258755         727.8208547707      PI        B1 (2)
  168    65          27.2720579131         742.1104239815     SG+        A1 (1)
  169   127          33.6279516258         915.0630846460      PI        B1 (2)
  170   179          33.6279516258         915.0630846466      PI        B2 (3)
  171    66          34.3756838173         935.4099119897     SG+        A1 (1)
  172    67          36.0195361618         980.1414083884     SG+        A1 (1)
  173    68          47.0790304152        1281.0855467294      DE        A1 (1)
  174   214          47.0790304152        1281.0855467295      DE        A2 (4)
  175   180          47.2736891093        1286.3824790866      PI        B2 (3)
  176   128          47.2736891093        1286.3824790866      PI        B1 (2)
  177    69          47.8083261948        1300.9306937989     SG+        A1 (1)
  178    70          63.9145693009        1739.2038500914     SG+        A1 (1)
  179   181          66.4489602067        1808.1681327150      PI        B2 (3)
  180   129          66.4489602067        1808.1681327152      PI        B1 (2)
  181    71          67.4597429455        1835.6729293563     SG+        A1 (1)
  182   130          98.5635020577        2682.0492437393      PH        B1 (2)
  183   182          98.5635020577        2682.0492437393      PH        B2 (3)
  184    72          98.5771373507        2682.4202789249      DE        A1 (1)
  185   215          98.5771373507        2682.4202789249      DE        A2 (4)
  186   183          98.5979839595        2682.9875439878      PI        B2 (3)
  187   131          98.5979839595        2682.9875439879      PI        B1 (2)
  188    73          98.6180098796        2683.5324769775     SG+        A1 (1)
  189   184         103.2902674211        2810.6710682835      PH        B2 (3)
  190   132         103.2902674211        2810.6710682835      PH        B1 (2)
  191    74         103.3067418485        2811.1193602446      DE        A1 (1)
  192   216         103.3067418486        2811.1193602469      DE        A2 (4)
  193   185         103.3508125100        2812.3185839117      PI        B2 (3)
  194   133         103.3508125100        2812.3185839117      PI        B1 (2)
  195    75         103.3541561425        2812.4095687768     SG+        A1 (1)
  196    76         115.0265327068        3130.0310826566      DE        A1 (1)
  197   217         115.0265327068        3130.0310826566      DE        A2 (4)
  198   134         115.2243627012        3135.4143104829      PI        B1 (2)
  199   186         115.2243627012        3135.4143104829      PI        B2 (3)
  200    77         115.5078878636        3143.1294223808     SG+        A1 (1)
  201   135         116.9015492245        3181.0528760028      PI        B1 (2)
  202   187         116.9015492246        3181.0528760034      PI        B2 (3)
  203    78         117.5154474963        3197.7578972456     SG+        A1 (1)
  204    79         122.2063943070        3325.4050494201     SG+        A1 (1)
  205    80         198.5522898033        5402.8824827858      DE        A1 (1)
  206   218         198.5522898033        5402.8824827859      DE        A2 (4)
  207   188         198.6570455777        5405.7330323267      PI        B2 (3)
  208   136         198.6570455777        5405.7330323267      PI        B1 (2)
  209    81         198.9379526119        5413.3769013328     SG+        A1 (1)
  210    82         216.4456826828        5889.7864567564     SG+        A1 (1)
  211   189         224.9105268196        6120.1265759846      PI        B2 (3)
  212   137         224.9105268196        6120.1265759847      PI        B1 (2)
  213    83         225.6973213427        6141.5363434084     SG+        A1 (1)
  214   138         395.3813732909       10758.8741378385      PI        B1 (2)
  215   190         395.3813732910       10758.8741378393      PI        B2 (3)
  216    84         395.9071032297       10773.1799767656     SG+        A1 (1)
  217    85         508.8449334246       13846.3745745650     SG+        A1 (1)
  218    86         895.2783905383       24361.7635346729     SG+        A1 (1)


  VSCF finished.

 @CHECKOUT-I, Total execution time (CPU/WALL):       53.29/      11.28 seconds.
--executable xvscf finished with status     0 in       11.31 seconds (walltime).
 --invoking executable--
/nfs/workspaces/public/cfour_mpi/bin/xvtran
 @GETMEM-I,  Allocated    3814 MB of main memory.
  Full RHF integral transformation
  Transformation of IIII integrals :
  1 pass through the AO integral file was required.
     4497710 AO integrals were read.
     8747902 MO integrals were written to HF2.
  Transformation of IIJJ integrals :
  1 pass through the AO integral file was required.
    10209393 AO integrals were read.
    14516205 MO integrals were written to HF2.
  Transformation of IJIJ integrals :
  1 pass through the AO integral file was required.
    19389721 AO integrals were read.
    27148871 MO integrals were written to HF2.
  Transformation of IJKL integrals :
  1 pass through the AO integral file was required.
    14352813 AO integrals were read.
    18350600 MO integrals were written to HF2.
  Summary of active molecular orbitals: 
------------------------------------------------------------------------
 
  Index      Eigenvalue    Symmetry    Index      Eigenvalue    Symmetry
------------------------------------------------------------------------
     1       -20.6615317        1       110         4.1264973        2
     2       -11.4678079        1       111         4.1693079        2
     3        -1.3615134        1       112         4.7228594        2
     4        -0.7934442        1       113         5.0769283        2
     5        -0.5620481        1       114         5.4834664        2
     6        -0.5449012        2       115         5.9546378        2
     7        -0.5449012        3       116         6.2183699        2
     8         0.0634251        1       117         6.3923439        2
     9         0.0685971        1       118         6.9905608        2
    10         0.1573212        1       119         7.7035210        2
    11         0.2248733        1       120         9.9759477        2
    12         0.2251604        1       121        10.7691732        2
    13         0.2993824        1       122        11.0711809        2
    14         0.3682795        1       123        11.8686865        2
    15         0.4930677        1       124        12.5987729        2
    16         0.5120296        1       125        13.1299978        2
    17         0.5466765        1       126        18.9021518        2
    18         0.7355357        1       127        26.7469259        2
    19         0.7523526        1       128        33.6279516        2
    20         0.8251230        1       129        47.2736891        2
    21         0.8677235        1       130        66.4489602        2
    22         0.8744441        1       131        98.5635021        2
    23         1.1225228        1       132        98.5979840        2
    24         1.4016732        1       133       103.2902674        2
    25         1.5622402        1       134       103.3508125        2
    26         1.6339482        1       135       115.2243627        2
    27         1.7185083        1       136       116.9015492        2
    28         1.8774257        1       137       198.6570456        2
    29         2.0110236        1       138       224.9105268        2
    30         2.0847546        1       139       395.3813733        2
    31         2.1506397        1       140         0.0331126        3
    32         2.2730386        1       141         0.0899109        3
    33         2.3168140        1       142         0.1727434        3
    34         2.4980016        1       143         0.2970262        3
    35         2.6165030        1       144         0.3986956        3
    36         2.7833673        1       145         0.6254191        3
    37         3.2525489        1       146         0.7402011        3
    38         3.7012108        1       147         0.7929765        3
    39         3.9011834        1       148         0.8976171        3
    40         4.2086944        1       149         1.0342081        3
    41         4.2212746        1       150         1.4293304        3
    42         4.2793203        1       151         1.5565246        3
    43         4.4010269        1       152         1.6497758        3
    44         4.8859409        1       153         2.0826583        3
    45         4.9336169        1       154         2.2262274        3
    46         5.3788433        1       155         2.2652853        3
    47         5.8585370        1       156         2.2689950        3
    48         6.1706507        1       157         2.5267433        3
    49         6.1932825        1       158         2.6487203        3
    50         6.3296264        1       159         3.5739052        3
    51         6.5246320        1       160         4.0227958        3
    52         6.5728463        1       161         4.1264973        3
    53         7.2870672        1       162         4.1693079        3
    54         8.2884652        1       163         4.7228594        3
    55         9.7717779        1       164         5.0769283        3
    56        10.6266940        1       165         5.4834664        3
    57        10.7749641        1       166         5.9546378        3
    58        11.0036338        1       167         6.2183699        3
    59        11.3679736        1       168         6.3923439        3
    60        12.0658993        1       169         6.9905608        3
    61        12.7612979        1       170         7.7035210        3
    62        12.8955819        1       171         9.9759477        3
    63        13.9989740        1       172        10.7691732        3
    64        17.5260100        1       173        11.0711809        3
    65        20.3112187        1       174        11.8686865        3
    66        26.3348044        1       175        12.5987729        3
    67        27.2720579        1       176        13.1299978        3
    68        34.3756838        1       177        18.9021518        3
    69        36.0195362        1       178        26.7469259        3
    70        47.0790304        1       179        33.6279516        3
    71        47.8083262        1       180        47.2736891        3
    72        63.9145693        1       181        66.4489602        3
    73        67.4597429        1       182        98.5635021        3
    74        98.5771374        1       183        98.5979840        3
    75        98.6180099        1       184       103.2902674        3
    76       103.3067418        1       185       103.3508125        3
    77       103.3541561        1       186       115.2243627        3
    78       115.0265327        1       187       116.9015492        3
    79       115.5078879        1       188       198.6570456        3
    80       117.5154475        1       189       224.9105268        3
    81       122.2063943        1       190       395.3813733        3
    82       198.5522898        1       191         0.2251604        4
    83       198.9379526        1       192         0.5466765        4
    84       216.4456827        1       193         0.7523526        4
    85       225.6973213        1       194         0.8744441        4
    86       395.9071032        1       195         1.5622402        4
    87       508.8449334        1       196         1.7185083        4
    88       895.2783905        1       197         2.0847546        4
    89         0.0331126        2       198         2.1506397        4
    90         0.0899109        2       199         2.3168140        4
    91         0.1727434        2       200         2.7833673        4
    92         0.2970262        2       201         3.7012108        4
    93         0.3986956        2       202         4.2212746        4
    94         0.6254191        2       203         4.2793203        4
    95         0.7402011        2       204         4.8859409        4
    96         0.7929765        2       205         5.8585370        4
    97         0.8976171        2       206         6.1932825        4
    98         1.0342081        2       207         6.5246320        4
    99         1.4293304        2       208         6.5728463        4
   100         1.5565246        2       209        10.6266940        4
   101         1.6497758        2       210        11.0036338        4
   102         2.0826583        2       211        12.0658993        4
   103         2.2262274        2       212        12.7612979        4
   104         2.2652853        2       213        26.3348044        4
   105         2.2689950        2       214        47.0790304        4
   106         2.5267433        2       215        98.5771374        4
   107         2.6487203        2       216       103.3067418        4
   108         3.5739052        2       217       115.0265327        4
   109         4.0227958        2       218       198.5522898        4
------------------------------------------------------------------------
  -20.6615317387550       -11.4678078539829       -1.36151343334932     
 -0.793444171029478      -0.562048075676125      -0.544901158257097     
 -0.544901158257112       6.342509525637324E-002  6.859712104662966E-002
  0.157321186628038       0.224873291190431       0.225160428284623     
  0.299382435174107       0.368279498874086       0.493067659806787     
  0.512029639755599       0.546676524532365       0.735535735008672     
  0.752352605647536       0.825122996310052       0.867723451361083     
  0.874444112635456        1.12252275366596        1.40167321702738     
   1.56224022103518        1.63394820124298        1.71850833103785     
   1.87742566958789        2.01102364916610        2.08475462446591     
   2.15063974110158        2.27303860959286        2.31681397981674     
   2.49800155833971        2.61650296865691        2.78336733373145     
   3.25254894625309        3.70121076033750        3.90118338045621     
   4.20869442799061        4.22127461272993        4.27932034306548     
   4.40102693774163        4.88594088013721        4.93361686667008     
   5.37884333288829        5.85853703895104        6.17065067715362     
   6.19328245995975        6.32962642283086        6.52463200808604     
   6.57284626018008        7.28706720537556        8.28846517063244     
   9.77177789287060        10.6266940020476        10.7749641363479     
   11.0036337862041        11.3679736388273        12.0658992824706     
[...]
 Convergence information after    14 iterations: 
 Largest element of residual vector : -0.10527059E-05.
 Largest element of DIIS residual   : -0.64852790E-06.
 Convergence information after    15 iterations: 
 Largest element of residual vector : -0.46056453E-06.
 Largest element of DIIS residual   : -0.29733093E-06.
 Convergence information after    16 iterations: 
 Largest element of residual vector : -0.27536449E-06.
 Largest element of DIIS residual   : -0.11918495E-06.
 Convergence information after    17 iterations: 
 Largest element of residual vector : -0.68491433E-07.
 Largest element of DIIS residual   :  0.26815908E-07.
 Perturbed amplitude equations converged in    17 iterations.
  Dominant contributions to perturbed wavefunction:
    7    7  140   28   0.2464368026 ABAB
    7    7   28  140   0.2464368026 ABAB
    7    7  140   39  -0.2183732310 ABAB
    7    7   39  140  -0.2183732310 ABAB
    7    7  140   54  -0.1714824608 ABAB
    7    7   54  140  -0.1714824608 ABAB
    7    6   28   89   0.1567666593 ABAB
    6    7   89   28   0.1567666593 ABAB
    7    7  140   21  -0.1490650139 ABAB
    7    7   21  140  -0.1490650139 ABAB
    7    7  140   45   0.1443887772 ABAB
    7    7   45  140   0.1443887772 ABAB
    7    7  140   20  -0.1415834328 ABAB
    7    7   20  140  -0.1415834328 ABAB
    7    6   39   89  -0.1395215350 ABAB
    6    7   89   39  -0.1395215350 ABAB
    7    7  141   28   0.1353318155 ABAB
    7    7   28  141   0.1353318155 ABAB
    7    7  140   24   0.1275147687 ABAB
    7    7   24  140   0.1275147687 ABAB
  norm of converged amps    1.90891059576867     
 Starting iterative solution of the perturbed Lambda equations.
 The DIIS procedure is used to accelerate convergence.
 Convergence criterion is 10**(-7).
 Maximum number of iterations is 100.
 Convergence information after     1 iterations: 
 Largest element of residual vector :  0.63274955E-01.
 Largest element of DIIS residual   :  0.63274955E-01.
 Convergence information after     2 iterations: 
 Largest element of residual vector : -0.12414704E-01.
 Largest element of DIIS residual   : -0.83780787E-02.
 Convergence information after     3 iterations: 
 Largest element of residual vector :  0.56678980E-02.
 Largest element of DIIS residual   :  0.51647264E-02.
 Convergence information after     4 iterations: 
 Largest element of residual vector :  0.35802996E-02.
 Largest element of DIIS residual   :  0.31296028E-02.
 Convergence information after     5 iterations: 
 Largest element of residual vector :  0.26083024E-02.
 Largest element of DIIS residual   :  0.16013848E-02.
 Convergence information after     6 iterations: 
 Largest element of residual vector :  0.10797271E-02.
 Largest element of DIIS residual   :  0.45277649E-03.
 Convergence information after     7 iterations: 
 Largest element of residual vector :  0.44087167E-03.
 Largest element of DIIS residual   : -0.16027660E-03.
 Convergence information after     8 iterations: 
 Largest element of residual vector :  0.10819146E-03.
 Largest element of DIIS residual   :  0.81392864E-04.
 Convergence information after     9 iterations: 
 Largest element of residual vector :  0.49359124E-04.
 Largest element of DIIS residual   : -0.13481714E-04.
 Convergence information after    10 iterations: 
 Largest element of residual vector : -0.11049156E-04.
 Largest element of DIIS residual   : -0.59054359E-05.
 Convergence information after    11 iterations: 
 Largest element of residual vector : -0.34341897E-05.
 Largest element of DIIS residual   : -0.22556840E-05.
 Convergence information after    12 iterations: 
 Largest element of residual vector : -0.21429672E-05.
 Largest element of DIIS residual   : -0.17160286E-05.
 Convergence information after    13 iterations: 
 Largest element of residual vector : -0.12692953E-05.
 Largest element of DIIS residual   : -0.10162661E-05.
 Convergence information after    14 iterations: 
 Largest element of residual vector : -0.95037674E-06.
 Largest element of DIIS residual   : -0.74078472E-06.
 Convergence information after    15 iterations: 
 Largest element of residual vector : -0.51659500E-06.
 Largest element of DIIS residual   : -0.32801311E-06.
 Convergence information after    16 iterations: 
 Largest element of residual vector : -0.29706660E-06.
 Largest element of DIIS residual   : -0.14304221E-06.
 Convergence information after    17 iterations: 
 Largest element of residual vector : -0.88951829E-07.
 Largest element of DIIS residual   :  0.38272870E-07.
 Perturbed Lambda equations converged in    17 iterations.
  Dominant contributions to perturbed wavefunction:
    7    7  140   28   0.2220880777 ABAB
    7    7   28  140   0.2220880777 ABAB
    7    7  140   39  -0.1943469843 ABAB
    7    7   39  140  -0.1943469843 ABAB
    7    7  140   54  -0.1557735530 ABAB
    7    7   54  140  -0.1557735530 ABAB
    7    6   28   89   0.1387737002 ABAB
    6    7   89   28   0.1387737002 ABAB
    7    7  140   21  -0.1335875933 ABAB
    7    7   21  140  -0.1335875933 ABAB
    7    7  140   45   0.1283208654 ABAB
    7    7   45  140   0.1283208654 ABAB
    7    7  140   20  -0.1249455632 ABAB
    7    7   20  140  -0.1249455632 ABAB
    7    6   39   89  -0.1220348521 ABAB
    6    7   89   39  -0.1220348521 ABAB
    7    7  141   28   0.1206369658 ABAB
    7    7   28  141   0.1206369658 ABAB
    7    7  140   57   0.1120270361 ABAB
    7    7   57  140   0.1120270361 ABAB
        The DBOC first-order density matrix is being calculated 
             (Symmetry block 3, perturbation   2)
 term   4.04685443715708     
 final tnorm  0.846631012124891     
  norm contr. I: |<0|L dT/dx|0>|^2   0.000000000000000E+000
  norm contr. II: <0|[nabla(1+L)e-T][nabla e^T]|0>   4.04685443715708     
  total norm contribution   4.04685443715708     
 oo  8.085355556638115E-003
 vv  -30.3334643613370     
 vo  6.957401148359799E-002
  Correlated perturbed 1-el contribution to DBOC  -30.2558049942968       cm**-1
  SUM_I |dc_I/dx|^2 contribution to DBOC   15.2352317793712       cm**-1
 
 
  The total diagonal Born-Oppenheimer correction (DBOC) is:      0.0040078064 a.u.
  The total diagonal Born-Oppenheimer correction (DBOC) is:        879.611829 cm-1
 
 Total CC energy including DBOC  -113.183997108760     
 First-order density matrix is being calculated  (Symmetry block 3, perturbation   2)
 Calculation of the contributions of <pq||rs> to dI(i,j)/dx required   3.6 seconds.
 Calculation of the contributions of <pq||rs> to dI(a,b)/dx required  16.0 seconds.
 Calculation of the contributions of <pq||rs> to dI(i,a)/dx required   9.4 seconds.
 First-order Z-vector equations are solved for 1 perturbation.
 Convergence reached after  20 iterations.
        U*G(pq,rs) contribution is being calculated
             (Symmetry block 3, perturbation   2)

 CCSD contribution to force constants 

        0.0000000000        0.0000000000        0.0000000000
        0.0000000000        0.0000000000        0.0000000000
        0.0000000000        0.0000000000        0.0000000000
        0.0000000000        0.0000000000        0.0000000000
        0.0000000000        0.0000000000        0.0000000000
        0.0000000000        0.0000000000        0.0000000000
        0.0000000000        0.0000000000        0.0000000000
        0.0000000000        0.0000000000        0.0000000000
        0.0000000000        0.0000000000        0.0000000000
        0.0000000000        0.0000000000        0.0000000000
        0.0000000000        0.0000000000        0.0000000000
        0.0000000000        0.3574030149       -0.3574030149

 CCSD contribution to dipole derivatives 

        0.0000000000        0.0000000000        0.0000000000
        0.0000000000        0.0000000000        0.0000000000
        0.0000000000        0.0000000000        0.0000000000
        0.0000000000        0.0000000000       -0.0542318000
        0.0000000000        0.0000000000        0.0000000000
        0.0000000000        0.0000000000        0.0000000000
 @CHECKOUT-I, Total execution time (CPU/WALL):     1325.94/     501.44 seconds.
--executable xsdcc finished with status     0 in      501.68 seconds (walltime).
 --invoking executable--
/nfs/workspaces/public/cfour_mpi/bin/xanti
 @GETMEM-I,  Allocated    3814 MB of main memory.
 CCSD MO derivative gammas will be sorted to Mulliken order.
 @CHECKOUT-I, Total execution time (CPU/WALL):       13.10/      23.88 seconds.
--executable xanti finished with status     0 in       24.03 seconds (walltime).
 --invoking executable--
/nfs/workspaces/public/cfour_mpi/bin/xbcktrn
 @GETMEM-I,  Allocated    3814 MB of main memory.
 CCSD MO derivative gammas will be transformed to the AO basis.
 @CHECKOUT-I, Total execution time (CPU/WALL):       28.40/       6.99 seconds.
--executable xbcktrn finished with status     0 in        7.06 seconds (walltime).
 --invoking executable--
/nfs/workspaces/public/cfour_mpi/bin/xvdint
 @GETMEM-I,  Allocated    3814 MB of main memory.
 One- and two-electron integral derivatives are calculated
 for RHF-CC/MBPT hessians and dipole derivatives.
 Spherical gaussians are used.
  magnet F F
                    8722  records have been written to the Sort file.
  Total length of Sort file :             178609116  words.
 Evaluation of 2el integral derivatives

                      Two-electron integral gradient
                      ------------------------------

                         C #1 z     0.0000000000
                         O #2 z     0.0000000000


 C #1       0.0000000000           -0.0636272757            0.0000000000
 O #2       0.0000000000            0.0636272757            0.0000000000


 Evaluation of 2e integral derivatives required  355.99 seconds.
  contribution to Hessian
        0.0000000000        0.0000000000        0.0000000000
        0.0000000000       -0.0636272757        0.0636272757
 @CHECKOUT-I, Total execution time (CPU/WALL):      355.98/      73.46 seconds.
--executable xvdint finished with status     0 in       73.62 seconds (walltime).
 --invoking executable--
/nfs/workspaces/public/cfour_mpi/bin/xanti
 @GETMEM-I,  Allocated    3814 MB of main memory.
 CCSD MO gammas will be sorted to Mulliken order.
 @CHECKOUT-I, Total execution time (CPU/WALL):       15.42/      49.38 seconds.
--executable xanti finished with status     0 in       49.54 seconds (walltime).
 --invoking executable--
/nfs/workspaces/public/cfour_mpi/bin/xbcktrn
 @GETMEM-I,  Allocated    3814 MB of main memory.
 CCSD MO gammas will be transformed to the AO basis.
 @CHECKOUT-I, Total execution time (CPU/WALL):       41.65/      17.53 seconds.
--executable xbcktrn finished with status     0 in       17.60 seconds (walltime).
 --invoking executable--
/nfs/workspaces/public/cfour_mpi/bin/xvdint
 @GETMEM-I,  Allocated    3814 MB of main memory.
 One- and two-electron integral derivatives are calculated
 for RHF-CC/MBPT hessians and dipole derivatives.
 Spherical gaussians are used.
  magnet F F

                     Kinetic energy integral gradient
                     --------------------------------

                         C #1 z    -0.8272382323
                         O #2 z     0.8272382323


 C #1       0.0000000000            0.0000000000           -0.8272382323
 O #2       0.0000000000            0.0000000000            0.8272382323



                   Nuclear attraction integral gradient
                   ------------------------------------

                         C #1 z    17.1944224783
                         O #2 z   -17.1944224783


 C #1       0.0000000000            0.0000000000           17.1944224783
 O #2       0.0000000000            0.0000000000          -17.1944224783



                      Reorthonormalization gradient
                      -----------------------------

                         C #1 z     0.0000000000
                         O #2 z     0.0000000000


 C #1       0.0000000000            0.0000000000            0.0000000000
 O #2       0.0000000000            0.0000000000            0.0000000000



                     Kinetic energy integral Hessian
                     -------------------------------


           Symmetry 1

           C #1 z      O #2 z

 C #1 z    0.826658
 O #2 z   -0.826658    0.826658


           Symmetry 2

           C #1 x      O #2 x

 C #1 x   -0.775958
 O #2 x    0.775958   -0.775958


           Symmetry 3

           C #1 y      O #2 y

 C #1 y   -0.775958
 O #2 y    0.775958   -0.775958




           C #1 x      C #1 y      C #1 z      O #2 x      O #2 y      O #2 z

 C #1 x   -0.775958
 C #1 y    0.000000   -0.775958
 C #1 z    0.000000    0.000000    0.826658

 O #2 x    0.775958    0.000000    0.000000   -0.775958
 O #2 y    0.000000    0.775958    0.000000    0.000000   -0.775958
 O #2 z    0.000000    0.000000   -0.826658    0.000000    0.000000    0.826658




                   Nuclear attraction integral Hessian
                   -----------------------------------


           Symmetry 1

           C #1 z      O #2 z

 C #1 z  -10.652461
 O #2 z   10.652461  -10.652461


           Symmetry 2

           C #1 x      O #2 x

 C #1 x   11.174949
 O #2 x  -11.174949   11.174949


           Symmetry 3

           C #1 y      O #2 y

 C #1 y   11.174949
 O #2 y  -11.174949   11.174949




           C #1 x      C #1 y      C #1 z      O #2 x      O #2 y      O #2 z

 C #1 x   11.174949
 C #1 y    0.000000   11.174949
 C #1 z    0.000000    0.000000  -10.652461

 O #2 x  -11.174949    0.000000    0.000000   11.174949
 O #2 y    0.000000  -11.174949    0.000000    0.000000   11.174949
 O #2 z    0.000000    0.000000   10.652461    0.000000    0.000000  -10.652461




                Highest order reorthonormalization Hessian
                ------------------------------------------


           Symmetry 1

           C #1 z      O #2 z

 C #1 z    0.000000
 O #2 z    0.000000    0.000000


           Symmetry 2

           C #1 x      O #2 x

 C #1 x    0.000000
 O #2 x    0.000000    0.000000


           Symmetry 3

           C #1 y      O #2 y

 C #1 y    0.000000
 O #2 y    0.000000    0.000000




           C #1 x      C #1 y      C #1 z      O #2 x      O #2 y      O #2 z




                Electronic contributions to dipole moment
                -----------------------------------------

                               au             Debye

                    z      1.00669379      2.55876083

  Conversion factor used: 1 a.u. =   2.54174691 Debye 



   Electronic contributions to static part of dipole moment derivatives
   --------------------------------------------------------------------


                     Total dipole moment derivatives
                     -------------------------------


           Symmetry 1
                              Ez

               C #1 z    -5.67092909
               O #2 z    -8.32907091

           Symmetry 2
                              Ex

               C #1 x    -5.68161327
               O #2 x    -8.31838673

           Symmetry 3
                              Ey

               C #1 y    -5.68161327
               O #2 y    -8.31838673



                       Ex          Ey          Ez

      C #1    x   -5.681613    0.000000    0.000000
      C #1    y    0.000000   -5.681613    0.000000
      C #1    z    0.000000    0.000000   -5.670929

      O #2    x   -8.318387    0.000000    0.000000
      O #2    y    0.000000   -8.318387    0.000000
      O #2    z    0.000000    0.000000   -8.329071

 Evaluation of 1e integral derivatives required    1.80 seconds.
                    8815  records have been written to the Sort file.
  Total length of Sort file :             180513570  words.
 Evaluation of 2el integral derivatives

                      Two-electron integral gradient
                      ------------------------------

                         C #1 z    -8.8046891852
                         O #2 z     8.8046891852


 C #1       0.0000000000            0.0000000000           -8.8046891852
 O #2       0.0000000000            0.0000000000            8.8046891852


 Evaluation of 2e integral derivatives required  723.37 seconds.

                            Molecular gradient
                            ------------------

                         C #1 z     0.6707489373
                         O #2 z    -0.6707489373


 C #1       0.0000000000            0.0000000000            0.6707489373
 O #2       0.0000000000            0.0000000000           -0.6707489373


  Molecular gradient norm 0.949E+00

                            Molecular hessian
                            -----------------


           Symmetry 1

           C #1 z      O #2 z

 C #1 z   31.124800
 O #2 z  -31.124800   31.124800


           Symmetry 2

           C #1 x      O #2 x

 C #1 x   -0.007005
 O #2 x    0.007005   -0.007005


           Symmetry 3

           C #1 y      O #2 y

 C #1 y   -0.007005
 O #2 y    0.007005   -0.007005




           C #1 x      C #1 y      C #1 z      O #2 x      O #2 y      O #2 z

 C #1 x   -0.007005
 C #1 y    0.000000   -0.007005
 C #1 z    0.000000    0.000000   31.124800

 O #2 x    0.007005    0.000000    0.000000   -0.007005
 O #2 y    0.000000    0.007005    0.000000    0.000000   -0.007005
 O #2 z    0.000000    0.000000  -31.124800    0.000000    0.000000   31.124800




                           Total dipole moment
                           -------------------

                               au             Debye

                    z      0.27340309      0.69492146

  Conversion factor used: 1 a.u. =   2.54174691 Debye 



                     Total dipole moment derivatives
                     -------------------------------


           Symmetry 1
                              Ez

               C #1 z     0.66941196
               O #2 z    -0.66941196

           Symmetry 2
                              Ex

               C #1 x     0.10696072
               O #2 x    -0.10696072

           Symmetry 3
                              Ey

               C #1 y     0.10696072
               O #2 y    -0.10696072



                       Ex          Ey          Ez

      C #1    x    0.106961    0.000000    0.000000
      C #1    y    0.000000    0.106961    0.000000
      C #1    z    0.000000    0.000000    0.669412

      O #2    x   -0.106961    0.000000    0.000000
      O #2    y    0.000000   -0.106961    0.000000
      O #2    z    0.000000    0.000000   -0.669412

 @CHECKOUT-I, Total execution time (CPU/WALL):      725.16/     121.37 seconds.
--executable xvdint finished with status     0 in      121.56 seconds (walltime).
 --invoking executable--
/nfs/workspaces/public/cfour_mpi/bin/xjoda
  @GTFLGS-I, Hessian will be transformed to curvilinear coordinates.
  @GTFLGS-I, Hessian will be transformed to curvilinear coordinates.
  igrd and ihes are                      0                     1
  gradient from JOBARC 
   0.000000000000000   0.000000000000000   0.670748937320664
   0.000000000000000   0.000000000000000  -0.670748937320664
 
  @PROJFCM-I, Projecting force constant matrix onto totally symmetric subspace.
  Largest difference between matrix elements of symmetrized
  and unsymmetrized FCM :     0.3870515020E-11.
  read isotopes from ZMAT file 
 
  Summary of diagonal Born-Oppenheimer correction at the correlated level
  The total diagonal Born-Oppenheimer correction (DBOC) is:      0.0040078064 a.u.
  The total diagonal Born-Oppenheimer correction (DBOC) is:        879.611829 cm-1
  The total diagonal Born-Oppenheimer correction (DBOC) is:            10.522 kJ/mole
  hellooooooo 
  readis is  F
 
 @CHECKOUT-I, Total execution time (CPU/WALL):        0.01/       0.07 seconds.
--executable xjoda finished with status     0 in        0.12 seconds (walltime).
  The final electronic energy is      -113.183997108759769 a.u. 
  This computation required                         4376.20 seconds (walltime).
