 --invoking executable--
/nfs/workspaces/public/cfour_mpi/bin/xjoda


   *************************************************************************
         <<<     CCCCCC     CCCCCC   |||     CCCCCC     CCCCCC   >>>
       <<<      CCC        CCC       |||    CCC        CCC         >>>
      <<<      CCC        CCC        |||   CCC        CCC            >>>
    <<<        CCC        CCC        |||   CCC        CCC              >>>
      <<<      CCC        CCC        |||   CCC        CCC            >>>
       <<<      CCC        CCC       |||    CCC        CCC         >>>
         <<<     CCCCCC     CCCCCC   |||     CCCCCC     CCCCCC   >>>
   *************************************************************************

     ****************************************************************
     * CFOUR Coupled-Cluster techniques for Computational Chemistry *
     ****************************************************************
 

   Department of Chemistry                Institut fuer Physikalische Chemie
   University of Florida                  Universitaet Mainz
   Gainesville, FL 32611, USA             D-55099 Mainz, Germany

   Department of Chemistry                Fakultaet fuer Chemie und Biowiss.
   Johns Hopkins University               Karlsruher Institut fuer Technologie
   Baltimore, MD 21218, USA               D-76131 Karlsruhe, Germany

   Department of Chemistry                Department of Physical Chemistry
   Southern Methodist University          Eotvos Lorand University
   Dallas, TX 75275, USA                  H-1053 Budapest, Hungary

 
                       Version 2.1
 
                     vincent.theory.phys.ucl.ac.uk                     
                     Thu 27 Feb 13:05:51 GMT 2025                      
                     integer*8 version is running
 
********************************************************************************
*                          Input from ZMAT file                                *
********************************************************************************
Carbon Monoxide DBOC calculation                                                
C                                                                               
O 1 r                                                                           
                                                                                
r=1.3344827586206895                                                            
                                                                                
                                                                                
*CFOUR(CALC=CCSD,BASIS=AUG-PCVQZ,SCF_CONV=10                                    
CC_CONV=14,DBOC=ON,MEMORY=500000000                                             
ZFIELD=-200)                                                                    
                                                                                
%isotopes                                                                       
13                                                                              
16                                                                              
********************************************************************************
  @GTFLGS-I, Hessian will be transformed to curvilinear coordinates.
    -------------------------------------------------------------------
                    CFOUR Control Parameters 
    -------------------------------------------------------------------
        External           Internal           Value            Units
          Name               Name
    -------------------------------------------------------------------
       ABCDTYPE             IABCDT         STANDARD    [  0]    ***   
       ANHARMONIC           IANHAR         OFF         [  0]    ***   
       ANH_ALGORIT          IANALG         STANDARD    [  0]    ***   
       ANH_DERIVAT          IANDER         SECOND      [  1]    ***   
       ANH_MODE             ANHMOD         VIBRATION   [  0]    ***   
       ANH_STEPSIZ          ICUBST             50000          x 10-6  
       ANH_SYMMETR          IANHSM         ABELIAN     [  0]    ***   
       AO_LADDERS           IAOLAD         SINGLEPASS  [  1]    ***   
       AV_SCF               IAVSCF         OFF         [  0]    ***   
       BASIS                IBASIS         AUG-PCVQZ   [ 52]    ***   
       BOTHVECTORS          BOTHVC         OFF         [  0]    ***   
       BOX_POTENT           IPIAB          OFF         [  0]    ***   
       BREIT                IBREIT         OFF         [  0]    ***   
       BRUCK_CONV           IBRTOL          10D-  4             ***   
       BRUECKNER            IBRKNR         OFF         [  0]    ***   
       BUFFERSIZE           IBUFFS              4096            ***   
       CACHE_RECS           ICHREC             10               ***   
       CALCLEVEL            ICLLVL         CCSD        [ 10]    ***   
       CCORBOPT             ICCORB         OFF         [  0]  x 0.01  
       CC_CONV              ICCCNV          10D- 14             ***   
       CC_EXPORDER          ICCEOR              5               ***   
       CC_EXTRAPOL          ICCEXT         DIIS        [  1]    ***   
       CC_GUESS             ICCGES         MP2         [  0]    ***   
       CC_MAXCYC            ICCCYC            100              cycles 
       CC_PROGRAM           ICCPRO         VCC         [  0]    ***   
       CHARGE               ICHRGE              0               ***   
       CHOLESKY             ICHOLE         OFF         [  0]    ***   
       CIS_CONV             ICISTL              5               ***   
       COMM_SIZE            IPSIZE            ***               ***   
       CONSTANT             ICONST         OLD         [  1]    ***   
       CONTINUUM            ICONTU         NONE        [  0]    ***   
       CONTRACTION          ICNTYP         GENERAL     [  1]    ***   
       COORDINATES          ICOORD         INTERNAL    [  0]    ***   
       CPHF_CONVER          ICPHFT          10D- 16             ***   
       CPHF_MAXCYC          ICPHFC             64              cycles 
       CUBIC                ICUBIC         OFF         [  0]    ***   
       CURVILINEAR          ICURVY         ON          [  1]    ***   
       DBOC                 IDBOC          ON          [  1]    ***   
       DCT                  IDCT           OFF         [  0]    ***   
       DERIV_LEV            IDRLVL         SECOND      [  2]    ***   
       DEVMEM_SIZE          IDVMEM          50000000           MByte  
       DIAG_MRCC            IEOMST          10D-  0             ***   
       DIFF_TYPE            IDIFTY         RELAXED     [  0]    ***   
       DIRECT               IDIRCT         OFF         [  0]    ***   
       DROPMO               IDRPMO      NONE         
       ECP                  IECP           OFF         [  0]    ***   
       EIGENVECTOR          IVEC                1               ***   
       EL_ANHARM            IELANH         OFF         [  0]    ***   
       EOMFOLLOW            IEOMSR         ENERGY      [  0]    ***   
       EOMIP                IEOMIP         OFF         [  0]    ***   
       EOMLEVEL             HBARFM         SAME        [  0]    ***   
       EOM_MRCC             IMRCCE         NEW         [  1]    ***   
       EOM_NONIT            EOMNON         OFF         [  0]    ***   
       EOM_NSING            IEOMSI          10D-  0             ***   
       EOM_NSTATES          IMRCCD         DAVIDSON    [  0]    ***   
       EOM_NTRIP            IEOMTR          10D-  0             ***   
       EOM_ORDER            IEXORD         ENERGY      [  0]    ***   
       EOM_PROPSTA          IEOMST              0               ***   
       ESTATE_CONV          IEXTOL          10D-  5             ***   
       ESTATE_DIAG          IEXDIG         ITERATIVE   [  0]    ***   
       ESTATE_LOCK          IESLOC         ON          [  1]    ***   
       ESTATE_MAXC          IEXMXC             40               ***   
       ESTATE_PROP          IEXPRP         OFF         [  0]    ***   
       EVAL_HESS            IRECAL              0            # of cyc.
       EXCITATION           IEXCIT              0               ***   
       EXCITE               IEXCIT         NONE        [  0]    ***   
       EXTERN_POT           IEXPOT         OFF         [  0]    ***   
       FCGRADNEW            IFCGNW         OFF         [  0]    ***   
       FC_FIELD             IFINFC              0             x 10-6  
       FD_CALTYPE           IFDCAL         GRADONLY    [  0]    ***   
       FD_PROJECT           IFDPRJ         OFF         [  1]    ***   
       FD_STEPSIZE          IDISFD              0            10-4 bohr
       FD_USEGROUP          IFDGRP         FULL        [  0]    ***   
       FILE_RECSIZ          IFLREC              4096           words  
       FINITE_PERT          IFIPER              0             x 10-6  
       FIXGEOM              IFIXGM         OFF         [  0]    ***   
       FOCK                 IFOCK          AO          [  1]    ***   
       FREQ_ALGORI          IVIALG         STANDARD    [  0]    ***   
       FROZEN_CORE          IFROCO         OFF         [  0]    ***   
       GAMMA_ABCD           IGABCD         STORE       [  0]    ***   
       GAMMA_ABCI           IGABCI         STORE       [  0]    ***   
       GENBAS_1             IGNBS1              0               ***   
       GENBAS_2             IGNBS2              0               ***   
       GENBAS_3             IGNBS3              0               ***   
       GENBAS_4             IGNBS4              0               ***   
       GEO_CONV             ICONTL              5              H/bohr 
       GEO_MAXCYC           IOPTCY             50               ***   
       GEO_MAXSTEP          IMXSTP            300            millibohr
       GEO_METHOD           INR            SINGLE_POINT[  5]    ***   
       GIAO                 IGIAO          OFF         [  1]    ***   
       GIMIC                IGIMIC         OFF         [  0]    ***   
       GRID                 IGRID          OFF         [  0]    ***   
       GRID_ALGO            IGALGO         SERIAL      [  0]    ***   
       GUESS                IGUESS         MOREAD      [  0]    ***   
       HBAR                 IHBAR          OFF         [  0]    ***   
       HESS_TYPE            IHESTP         SCF         [  0]    ***   
       HF2_FILE             IHF2Fl         USE         [  1]    ***   
       HFSTABILITY          ISTABL         OFF         [  0]    ***   
       INCORE               INCORE         OFF         [  0]    ***   
       INPUT_MRCC           IMRCC          ON          [  1]    ***   
       INTEGRALS            INTTYP         VMOL        [  1]    ***   
       JODA_PRINT           IJPRNT              0               ***   
       KEYWORD_OUT          IDMPKW         NO          [  0]    ***   
       LINDEP_TOL           ILINDP              8               ***   
       LINEQ_CONV           IZTACN          10D-  7           cycles  
       LINEQ_EXPOR          ILMAXD              5               ***   
       LINEQ_MAXCY          ILMAXC            100               ***   
       LINEQ_TYPE           ILTYPE         DIIS        [  1]    ***   
       LOCK_ORBOCC          ILOCOC         OFF         [  0]    ***   
       MEMORY_SIZE          IMEMSZ         500000000           words  
       MEM_UNIT             IMEMU          INTEGERWORDS[  0]    ***   
       MRCC                 IMRCCC         OFF         [  0]    ***   
       MULTIPLICTY          IMULTP              1               ***   
       NACOUPLING           IVCOUP         OFF         [  0]    ***   
       NEGEVAL              IDIE           ABORT       [  0]    ***   
       NEWNORM              INEWNO         OFF         [  0]    ***   
       NON-HF               INONHF         OFF         [  0]    ***   
       NTOP_TAMP            ITOPT2             15               ***   
       NUC_MODEL            INUCMO         POINT       [  0]    ***   
       OCCUPATION           IOCCU   ESTIMATED BY SCF 
       OPEN-SHELL           IOPEN          SPIN-ORBITAL[  0]    ***   
       OPTVIB               IOPTVB         OFF         [  0]    ***   
       ORBITALS             IORBTP         STANDARD    [  0]    ***   
       PARALLEL             IPARAL         ON          [  1]    ***   
       PARA_INT             IPINTS         ON          [  1]    ***   
       PARA_PRINT           IPPRIN              0               ***   
       PERT_ORB             IPTORB         STANDARD    [  0]    ***   
       POINTS               IGRDFD              0               ***   
       PRINT                IPRNT               0               ***   
       PROPS                IPROPS         OFF         [  0]    ***   
       PROP_INTEGR          IINTYP         INTERNAL    [  0]    ***   
       PSI                  IPSI           OFF         [  0]    ***   
       QC_ALG               IQCALG         FLM         [  0]    ***   
       QC_LINALG            IQCLIN         TRIDIAG     [  2]    ***   
       QC_MAXCYC            IQCMAX          10D-100           cycles  
       QC_MAXSCFCY          IQCMSC          10D- 15           cycles  
       QC_RTRUST            IQCRTR          10D-  0           x 10-3  
       QC_SKIPSCF           IQCSKI         OFF         [  0]    ***   
       QC_START             IQCSTA          10D-  1             ***   
       QRHFGUESS            IQGUES         OFF         [  0]    ***   
       QUARTIC              IQUART         OFF         [  0]    ***   
       RAMAN_INT            IRAMIN         OFF         [  0]    ***   
       RAMAN_ORB            IRAMRE         UNRELAXED   [  0]    ***   
       RDO                  IRDOFM         ON          [  1]    ***   
       REDUCE_REPR          REDREP         Ir          [  0]    ***   
       REFERENCE            IREFNC         RHF         [  0]    ***   
       RELATIVIST           IRELAT         OFF         [  0]    ***   
       RELAX_DENS           IRDENS         ON          [  1]    ***   
       RESET_FLAGS          IRESET         OFF         [  0]    ***   
       RESTART_CC           ICCRES         OFF         [  0]    ***   
       ROT_EVEC             ROTVEC              0               ***   
       SAVE_INTS            ISVINT         OFF         [  0]    ***   
       SCALE_ON             ISTCRT              0               ***   
       SCF_CONV             ISCFCV          10D- 10             ***   
       SCF_DAMPING          IDAMP               0             x 10-3  
       SCF_EXPORDE          IRPPOR              6               ***   
       SCF_EXPSTAR          IRPPLS              8               ***   
       SCF_EXTRAPO          IRPP           ON          [  1]    ***   
       SCF_MAXCYC           ISCFCY            150              cycles 
       SCF_NOSTOP           ISCFST         OFF         [  0]    ***   
       SCF_PRINT            ISCFPR              0               ***   
       SCF_PROG             ISCFPR         SCF         [  0]    ***   
       SD_FIELD             IFINSD              0             x 10-6  
       SOPERT               IPERSO         OFF         [  0]    ***   
       SPHERICAL            IDFGHI         ON          [  1]    ***   
       SPINORBIT            ISOCAL         OFF         [  0]    ***   
       SPINROTATIO          ISRCON         OFF         [  0]    ***   
       SPIN_FLIP            ISPFLP         OFF         [  0]    ***   
       SPIN_ORBIT           ISPORB         OFF         [  0]    ***   
       SPIN_SCAL            ISCSMP         OFF         [  0]    ***   
       STEEPSCALE           ISTPSC              1000          x 10-3  
       SUBGROUP             ISUBGP         DEFAULT     [  0]    ***   
       SUBGRPAXIS           ISBXYZ         X           [  0]    ***   
       SYMMETRY             ISYM           ON          [  0]    ***   
       SYM_CHECK            ISYMCK         OVERRIDE    [  1]    ***   
       T3_EXTRAPOL          IT3EXT         OFF         [  0]    ***   
       T4_EXTRAPOL          IT4EXP         OFF         [  0]    ***   
       TAMP_SUM             IEVERY              5               ***   
       TESTSUITE            ITESTS         OFF         [  0]    ***   
       THERMOCH             ITHERM         OFF         [  0]    ***   
       TOL_CHOLESK          ITOLCH          10D-  4             ***   
       TRANGRAD             IRESRM         OFF         [  0]    ***   
       TRANS_INV            ITRAIN         IGNORE      [  1]    ***   
       TREAT_PERT           ITREAT         SIMULTANEOUS[  0]    ***   
       TRIP_ALGORI          ITRALG         NORMAL      [  0]    ***   
       UIJ_THRESHO          IUIJTH              1               ***   
       UNITS                IUNITS         ANGSTROM    [  0]    ***   
       UNOS                 IUNOS          OFF         [  0]    ***   
       UPDATE_HESS          IHUPDT         ON          [  1]    ***   
       VIBPHASE             ISETPH         STANDARD    [  0]    ***   
       VIBRATION            IVIB           ANALYTIC    [  1]    ***   
       VIB_ALGORIT          IGEALG         STANDARD    [  0]    ***   
       VNATORB              IVNORB         OFF         [  0]    ***   
       VTRAN                IVTRAN         FULL/PARTIAL[  0]    ***   
       XFIELD               IXEFLD              0             x 10-6  
       XFORM_TOL            IXFTOL          10D- 11             ***   
       YFIELD               IYEFLD              0             x 10-6  
       ZFIELD               IZEFLD            ***             x 10-6  
       ZSCALE_EXP           IZEXPS         OFF         [  0]    ***   
    -------------------------------------------------------------------
   2 entries found in Z-matrix 
   Job Title : Carbon Monoxide DBOC calculation                                                
   There are  1 unique internal coordinates.
   Of these,  0 will be optimized.
   User supplied Z-matrix: 
--------------------------------------------------------------------------------
       SYMBOL    BOND      LENGTH    ANGLE     ANGLE     DIHED     ANGLE
                  TO      (ANGST)    WRT      (DEG)      WRT      (DEG)
--------------------------------------------------------------------------------
        C    
        O          1         r    
                  *Initial values for internal coordinates* 
                      Name             Value
                        r               1.3344827586
--------------------------------------------------------------------------------
  read isotopes from ZMAT file 
   Rotational constants (in cm-1): 
          1.3197916067             1.3197916067
   Rotational constants (in MHz): 
      39566.3625254932         39566.3625254932
********************************************************************************
   The full molecular point group is CXv .
   The largest Abelian subgroup of the full molecular point group is C2v .
   The computational point group is C2v .
********************************************************************************
--------------------------------------------------------------------------------
   Analysis of internal coordinates specified by Z-matrix 
--------------------------------------------------------------------------------
   *The nuclear repulsion energy is   19.033967007751937 a.u.
   *There is   1 degree of freedom within the tot. symm. molecular subspace.
   *Z-matrix requests optimization of   0 coordinates.
   *The optimization is constrained.
   *The following   1 parameters can have non-zero 
    derivatives within the totally symmetric subspace:
             r    [ 1]
   *The following   0 parameters are to be optimized:

   *The following coordinates must be varied in an  unconstrained optimization.
             r    [ 1]
--------------------------------------------------------------------------------


 ----------------------------------------------------------------
         Coordinates used in calculation (QCOMP) 
 ----------------------------------------------------------------
 Z-matrix   Atomic            Coordinates (in bohr)
  Symbol    Number           X              Y              Z
 ----------------------------------------------------------------
     C         6        -0.00000000     0.00000000     1.39098283
     O         8         0.00000000     0.00000000    -1.13082463
 ----------------------------------------------------------------
 
   Interatomic distance matrix (Angstroms) 
 
                 C             O    
                [ 1]        [ 2]
  C    [ 1]     0.00000
  O    [ 2]     1.33448     0.00000
 rotcon2
   Rotational constants (in cm-1): 
          1.3197916067             0.0000000000
   Rotational constants (in MHz): 
      39566.3625254932             0.0000000000
  ECPDATA file not present.   Using default ECPDATA. 
  @GTFLGS-I, Hessian will be transformed to curvilinear coordinates.
  There are  218 basis functions.
 @CHECKOUT-I, Total execution time (CPU/WALL):        0.10/       0.14 seconds.
--executable xjoda finished with status     0 in        0.15 seconds (walltime).
 --invoking executable--
/nfs/workspaces/public/cfour_mpi/bin/xvmol
 SERIAL VERSION OF MOLECULE STARTED
********************************************************************************
                    INPUT FROM MOL FILE
********************************************************************************
INTGRL        1    0    1    0    0    0    0    0    0                         
         *** CFOUR Program System (Release V0.1) ***                            
Carbon Monoxide DBOC calculation                                                
    2    2 X  Y       0.10E-08              0    0                              
   9999.00      3.00                                                            
          6.00000000    1    5    1    1    1    1    1                         
C #1  -0.000000000000000   0.000000000000000   1.390982834428333                
   16    9                                                                      
   33980.0000000000       9.100000000000000E-005 -1.900000000000000E-005        
  0.000000000000000E+000  0.000000000000000E+000  0.000000000000000E+000        
  0.000000000000000E+000  0.000000000000000E+000  0.000000000000000E+000        
  0.000000000000000E+000                                                        
   5089.00000000000       7.040000000000000E-004 -1.510000000000000E-004        
  0.000000000000000E+000  0.000000000000000E+000  0.000000000000000E+000        
  0.000000000000000E+000  0.000000000000000E+000  0.000000000000000E+000        
  0.000000000000000E+000                                                        
   1157.00000000000       3.693000000000000E-003 -7.850000000000000E-004        
  0.000000000000000E+000  0.000000000000000E+000  0.000000000000000E+000        
  0.000000000000000E+000  0.000000000000000E+000  0.000000000000000E+000        
  0.000000000000000E+000                                                        
   326.600000000000       1.536000000000000E-002 -3.324000000000000E-003        
  0.000000000000000E+000  0.000000000000000E+000  0.000000000000000E+000        
  0.000000000000000E+000  0.000000000000000E+000  0.000000000000000E+000        
  0.000000000000000E+000                                                        
   106.100000000000       5.292900000000000E-002 -1.151200000000000E-002        
  0.000000000000000E+000  0.000000000000000E+000  0.000000000000000E+000        
  0.000000000000000E+000  0.000000000000000E+000  0.000000000000000E+000        
  0.000000000000000E+000                                                        
   38.1100000000000       0.147043000000000      -3.416000000000000E-002        
  0.000000000000000E+000  0.000000000000000E+000  0.000000000000000E+000        
  0.000000000000000E+000  0.000000000000000E+000  0.000000000000000E+000        
  0.000000000000000E+000                                                        
   14.7500000000000       0.305631000000000      -7.717300000000001E-002        
  0.000000000000000E+000  0.000000000000000E+000  0.000000000000000E+000        
  0.000000000000000E+000  0.000000000000000E+000  0.000000000000000E+000        
  0.000000000000000E+000                                                        
   6.03500000000000       0.399345000000000      -0.141493000000000             
  0.000000000000000E+000  0.000000000000000E+000  0.000000000000000E+000        
  0.000000000000000E+000  0.000000000000000E+000  0.000000000000000E+000        
  0.000000000000000E+000                                                        
   2.53000000000000       0.217051000000000      -0.118019000000000             
  0.000000000000000E+000  0.000000000000000E+000  0.000000000000000E+000        
  0.000000000000000E+000  0.000000000000000E+000  0.000000000000000E+000        
  0.000000000000000E+000                                                        
  0.735500000000000       1.589400000000000E-002  0.273806000000000             
   1.00000000000000       0.000000000000000E+000  0.000000000000000E+000        
  0.000000000000000E+000  0.000000000000000E+000  0.000000000000000E+000        
  0.000000000000000E+000                                                        
  0.290500000000000      -3.084000000000000E-003  0.586510000000000             
  0.000000000000000E+000   1.00000000000000       0.000000000000000E+000        
  0.000000000000000E+000  0.000000000000000E+000  0.000000000000000E+000        
  0.000000000000000E+000                                                        
  0.111100000000000       9.779999999999999E-004  0.285430000000000             
  0.000000000000000E+000  0.000000000000000E+000   1.00000000000000             
  0.000000000000000E+000  0.000000000000000E+000  0.000000000000000E+000        
  0.000000000000000E+000                                                        
   7.21600000000000       0.000000000000000E+000  0.000000000000000E+000        
  0.000000000000000E+000  0.000000000000000E+000  0.000000000000000E+000        
   1.00000000000000       0.000000000000000E+000  0.000000000000000E+000        
  0.000000000000000E+000                                                        
   19.5700000000000       0.000000000000000E+000  0.000000000000000E+000        
  0.000000000000000E+000  0.000000000000000E+000  0.000000000000000E+000        
  0.000000000000000E+000   1.00000000000000       0.000000000000000E+000        
  0.000000000000000E+000                                                        
   53.0730000000000       0.000000000000000E+000  0.000000000000000E+000        
  0.000000000000000E+000  0.000000000000000E+000  0.000000000000000E+000        
  0.000000000000000E+000  0.000000000000000E+000   1.00000000000000             
  0.000000000000000E+000                                                        
  4.145000000000000E-002  0.000000000000000E+000  0.000000000000000E+000        
  0.000000000000000E+000  0.000000000000000E+000  0.000000000000000E+000        
  0.000000000000000E+000  0.000000000000000E+000  0.000000000000000E+000        
   1.00000000000000                                                             
   10    8                                                                      
   34.5100000000000       5.378000000000000E-003  0.000000000000000E+000        
  0.000000000000000E+000  0.000000000000000E+000  0.000000000000000E+000        
  0.000000000000000E+000  0.000000000000000E+000  0.000000000000000E+000        
   7.91500000000000       3.613200000000000E-002  0.000000000000000E+000        
  0.000000000000000E+000  0.000000000000000E+000  0.000000000000000E+000        
  0.000000000000000E+000  0.000000000000000E+000  0.000000000000000E+000        
   2.36800000000000       0.142493000000000       0.000000000000000E+000        
  0.000000000000000E+000  0.000000000000000E+000  0.000000000000000E+000        
  0.000000000000000E+000  0.000000000000000E+000  0.000000000000000E+000        
  0.813200000000000       0.342150000000000        1.00000000000000             
  0.000000000000000E+000  0.000000000000000E+000  0.000000000000000E+000        
  0.000000000000000E+000  0.000000000000000E+000  0.000000000000000E+000        
  0.289000000000000       0.463864000000000       0.000000000000000E+000        
   1.00000000000000       0.000000000000000E+000  0.000000000000000E+000        
  0.000000000000000E+000  0.000000000000000E+000  0.000000000000000E+000        
  0.100700000000000       0.250028000000000       0.000000000000000E+000        
  0.000000000000000E+000   1.00000000000000       0.000000000000000E+000        
  0.000000000000000E+000  0.000000000000000E+000  0.000000000000000E+000        
   8.18200000000000       0.000000000000000E+000  0.000000000000000E+000        
  0.000000000000000E+000  0.000000000000000E+000   1.00000000000000             
  0.000000000000000E+000  0.000000000000000E+000  0.000000000000000E+000        
   24.1860000000000       0.000000000000000E+000  0.000000000000000E+000        
  0.000000000000000E+000  0.000000000000000E+000  0.000000000000000E+000        
   1.00000000000000       0.000000000000000E+000  0.000000000000000E+000        
   71.4940000000000       0.000000000000000E+000  0.000000000000000E+000        
  0.000000000000000E+000  0.000000000000000E+000  0.000000000000000E+000        
  0.000000000000000E+000   1.00000000000000       0.000000000000000E+000        
  3.218000000000000E-002  0.000000000000000E+000  0.000000000000000E+000        
  0.000000000000000E+000  0.000000000000000E+000  0.000000000000000E+000        
  0.000000000000000E+000  0.000000000000000E+000   1.00000000000000             
    6    6                                                                      
   1.84800000000000        1.00000000000000       0.000000000000000E+000        
  0.000000000000000E+000  0.000000000000000E+000  0.000000000000000E+000        
  0.000000000000000E+000                                                        
  0.649000000000000       0.000000000000000E+000   1.00000000000000             
  0.000000000000000E+000  0.000000000000000E+000  0.000000000000000E+000        
  0.000000000000000E+000                                                        
  0.228000000000000       0.000000000000000E+000  0.000000000000000E+000        
   1.00000000000000       0.000000000000000E+000  0.000000000000000E+000        
  0.000000000000000E+000                                                        
   8.65600000000000       0.000000000000000E+000  0.000000000000000E+000        
  0.000000000000000E+000   1.00000000000000       0.000000000000000E+000        
  0.000000000000000E+000                                                        
   33.2130000000000       0.000000000000000E+000  0.000000000000000E+000        
  0.000000000000000E+000  0.000000000000000E+000   1.00000000000000             
  0.000000000000000E+000                                                        
  7.660000000000000E-002  0.000000000000000E+000  0.000000000000000E+000        
  0.000000000000000E+000  0.000000000000000E+000  0.000000000000000E+000        
   1.00000000000000                                                             
    4    4                                                                      
   1.41900000000000        1.00000000000000       0.000000000000000E+000        
  0.000000000000000E+000  0.000000000000000E+000                                
  0.485000000000000       0.000000000000000E+000   1.00000000000000             
  0.000000000000000E+000  0.000000000000000E+000                                
   24.6940000000000       0.000000000000000E+000  0.000000000000000E+000        
   1.00000000000000       0.000000000000000E+000                                
  0.187000000000000       0.000000000000000E+000  0.000000000000000E+000        
  0.000000000000000E+000   1.00000000000000                                     
    2    2                                                                      
   1.01100000000000        1.00000000000000       0.000000000000000E+000        
  0.424000000000000       0.000000000000000E+000   1.00000000000000             
          8.00000000    1    5    1    1    1    1    1                         
O #2   0.000000000000000   0.000000000000000  -1.130824625910918                
   16    9                                                                      
   61420.0000000000       9.000000000000001E-005 -2.000000000000000E-005        
  0.000000000000000E+000  0.000000000000000E+000  0.000000000000000E+000        
  0.000000000000000E+000  0.000000000000000E+000  0.000000000000000E+000        
  0.000000000000000E+000                                                        
   9199.00000000000       6.980000000000001E-004 -1.590000000000000E-004        
  0.000000000000000E+000  0.000000000000000E+000  0.000000000000000E+000        
  0.000000000000000E+000  0.000000000000000E+000  0.000000000000000E+000        
  0.000000000000000E+000                                                        
   2091.00000000000       3.664000000000000E-003 -8.290000000000000E-004        
  0.000000000000000E+000  0.000000000000000E+000  0.000000000000000E+000        
  0.000000000000000E+000  0.000000000000000E+000  0.000000000000000E+000        
  0.000000000000000E+000                                                        
   590.900000000000       1.521800000000000E-002 -3.508000000000000E-003        
  0.000000000000000E+000  0.000000000000000E+000  0.000000000000000E+000        
  0.000000000000000E+000  0.000000000000000E+000  0.000000000000000E+000        
  0.000000000000000E+000                                                        
   192.300000000000       5.242300000000000E-002 -1.215600000000000E-002        
  0.000000000000000E+000  0.000000000000000E+000  0.000000000000000E+000        
  0.000000000000000E+000  0.000000000000000E+000  0.000000000000000E+000        
  0.000000000000000E+000                                                        
   69.3200000000000       0.145921000000000      -3.626100000000000E-002        
  0.000000000000000E+000  0.000000000000000E+000  0.000000000000000E+000        
  0.000000000000000E+000  0.000000000000000E+000  0.000000000000000E+000        
  0.000000000000000E+000                                                        
   26.9700000000000       0.305258000000000      -8.299200000000000E-002        
  0.000000000000000E+000  0.000000000000000E+000  0.000000000000000E+000        
  0.000000000000000E+000  0.000000000000000E+000  0.000000000000000E+000        
  0.000000000000000E+000                                                        
   11.1000000000000       0.398508000000000      -0.152090000000000             
  0.000000000000000E+000  0.000000000000000E+000  0.000000000000000E+000        
  0.000000000000000E+000  0.000000000000000E+000  0.000000000000000E+000        
  0.000000000000000E+000                                                        
   4.68200000000000       0.216980000000000      -0.115331000000000             
  0.000000000000000E+000  0.000000000000000E+000  0.000000000000000E+000        
  0.000000000000000E+000  0.000000000000000E+000  0.000000000000000E+000        
  0.000000000000000E+000                                                        
   1.42800000000000       1.759400000000000E-002  0.288979000000000             
   1.00000000000000       0.000000000000000E+000  0.000000000000000E+000        
  0.000000000000000E+000  0.000000000000000E+000  0.000000000000000E+000        
  0.000000000000000E+000                                                        
  0.554700000000000      -2.502000000000000E-003  0.586128000000000             
  0.000000000000000E+000   1.00000000000000       0.000000000000000E+000        
  0.000000000000000E+000  0.000000000000000E+000  0.000000000000000E+000        
  0.000000000000000E+000                                                        
  0.206700000000000       9.540000000000000E-004  0.277624000000000             
  0.000000000000000E+000  0.000000000000000E+000   1.00000000000000             
  0.000000000000000E+000  0.000000000000000E+000  0.000000000000000E+000        
  0.000000000000000E+000                                                        
   12.9740000000000       0.000000000000000E+000  0.000000000000000E+000        
  0.000000000000000E+000  0.000000000000000E+000  0.000000000000000E+000        
   1.00000000000000       0.000000000000000E+000  0.000000000000000E+000        
  0.000000000000000E+000                                                        
   34.9000000000000       0.000000000000000E+000  0.000000000000000E+000        
  0.000000000000000E+000  0.000000000000000E+000  0.000000000000000E+000        
  0.000000000000000E+000   1.00000000000000       0.000000000000000E+000        
  0.000000000000000E+000                                                        
   93.8810000000000       0.000000000000000E+000  0.000000000000000E+000        
  0.000000000000000E+000  0.000000000000000E+000  0.000000000000000E+000        
  0.000000000000000E+000  0.000000000000000E+000   1.00000000000000             
  0.000000000000000E+000                                                        
  6.959000000000000E-002  0.000000000000000E+000  0.000000000000000E+000        
  0.000000000000000E+000  0.000000000000000E+000  0.000000000000000E+000        
  0.000000000000000E+000  0.000000000000000E+000  0.000000000000000E+000        
   1.00000000000000                                                             
   10    8                                                                      
   63.4200000000000       6.044000000000000E-003  0.000000000000000E+000        
  0.000000000000000E+000  0.000000000000000E+000  0.000000000000000E+000        
  0.000000000000000E+000  0.000000000000000E+000  0.000000000000000E+000        
   14.6600000000000       4.179900000000000E-002  0.000000000000000E+000        
  0.000000000000000E+000  0.000000000000000E+000  0.000000000000000E+000        
  0.000000000000000E+000  0.000000000000000E+000  0.000000000000000E+000        
   4.45900000000000       0.161143000000000       0.000000000000000E+000        
  0.000000000000000E+000  0.000000000000000E+000  0.000000000000000E+000        
  0.000000000000000E+000  0.000000000000000E+000  0.000000000000000E+000        
   1.53100000000000       0.356731000000000        1.00000000000000             
  0.000000000000000E+000  0.000000000000000E+000  0.000000000000000E+000        
  0.000000000000000E+000  0.000000000000000E+000  0.000000000000000E+000        
  0.530200000000000       0.448309000000000       0.000000000000000E+000        
   1.00000000000000       0.000000000000000E+000  0.000000000000000E+000        
  0.000000000000000E+000  0.000000000000000E+000  0.000000000000000E+000        
  0.175000000000000       0.244940000000000       0.000000000000000E+000        
  0.000000000000000E+000   1.00000000000000       0.000000000000000E+000        
  0.000000000000000E+000  0.000000000000000E+000  0.000000000000000E+000        
   14.4750000000000       0.000000000000000E+000  0.000000000000000E+000        
  0.000000000000000E+000  0.000000000000000E+000   1.00000000000000             
  0.000000000000000E+000  0.000000000000000E+000  0.000000000000000E+000        
   42.7300000000000       0.000000000000000E+000  0.000000000000000E+000        
  0.000000000000000E+000  0.000000000000000E+000  0.000000000000000E+000        
   1.00000000000000       0.000000000000000E+000  0.000000000000000E+000        
   126.140000000000       0.000000000000000E+000  0.000000000000000E+000        
  0.000000000000000E+000  0.000000000000000E+000  0.000000000000000E+000        
  0.000000000000000E+000   1.00000000000000       0.000000000000000E+000        
  5.348000000000000E-002  0.000000000000000E+000  0.000000000000000E+000        
  0.000000000000000E+000  0.000000000000000E+000  0.000000000000000E+000        
  0.000000000000000E+000  0.000000000000000E+000   1.00000000000000             
    6    6                                                                      
   3.77500000000000        1.00000000000000       0.000000000000000E+000        
  0.000000000000000E+000  0.000000000000000E+000  0.000000000000000E+000        
  0.000000000000000E+000                                                        
   1.30000000000000       0.000000000000000E+000   1.00000000000000             
  0.000000000000000E+000  0.000000000000000E+000  0.000000000000000E+000        
  0.000000000000000E+000                                                        
  0.444000000000000       0.000000000000000E+000  0.000000000000000E+000        
   1.00000000000000       0.000000000000000E+000  0.000000000000000E+000        
  0.000000000000000E+000                                                        
   14.9270000000000       0.000000000000000E+000  0.000000000000000E+000        
  0.000000000000000E+000   1.00000000000000       0.000000000000000E+000        
  0.000000000000000E+000                                                        
   57.5440000000000       0.000000000000000E+000  0.000000000000000E+000        
  0.000000000000000E+000  0.000000000000000E+000   1.00000000000000             
  0.000000000000000E+000                                                        
  0.154000000000000       0.000000000000000E+000  0.000000000000000E+000        
  0.000000000000000E+000  0.000000000000000E+000  0.000000000000000E+000        
   1.00000000000000                                                             
    4    4                                                                      
   2.66600000000000        1.00000000000000       0.000000000000000E+000        
  0.000000000000000E+000  0.000000000000000E+000                                
  0.859000000000000       0.000000000000000E+000   1.00000000000000             
  0.000000000000000E+000  0.000000000000000E+000                                
   26.4830000000000       0.000000000000000E+000  0.000000000000000E+000        
   1.00000000000000       0.000000000000000E+000                                
  0.324000000000000       0.000000000000000E+000  0.000000000000000E+000        
  0.000000000000000E+000   1.00000000000000                                     
    2    2                                                                      
   1.84600000000000        1.00000000000000       0.000000000000000E+000        
  0.714000000000000       0.000000000000000E+000   1.00000000000000             
FINISH                                                                          
 
********************************************************************************
 ONE- AND TWO-ELECTRON INTEGRALS OVER SYMMETRY-ADAPTED AOS ARE CALCULATED.

  SPHERICAL HARMONICS ARE USED.
  
  INTEGRALS LESS THAN  0.10E-13 ARE NEGLECTED.

  NUCLEAR REPULSION ENERGY :   19.0339670078 A.U.
  @MOLECU-I, ONE ELECTRON INTEGRALS (CPU/WALL):        0.07/       0.11 SECONDS.
  @TWOEL-I,    4515020 INTEGRALS OF SYMMETRY TYPE  I I I I
  @TWOEL-I,   19440802 INTEGRALS OF SYMMETRY TYPE  I J I J
  @TWOEL-I,   10239849 INTEGRALS OF SYMMETRY TYPE  I I J J
  @TWOEL-I,   14394805 INTEGRALS OF SYMMETRY TYPE  I J K L
  @TWOEL-I, TOTAL NUMBER OF 2-E INTEGRALS   48590476.
  @MOLECU-I, TWO ELECTRON INTEGRALS (CPU/WALL):      212.77/      43.69 SECONDS.
 @CHECKOUT-I, Total execution time (CPU/WALL):      212.85/      43.82 seconds.

Running with 14 threads/proc

--executable xvmol finished with status     0 in       43.85 seconds (walltime).
 --invoking executable--
/nfs/workspaces/public/cfour_mpi/bin/xvmol2ja
 @GETMEM-I,  Allocated    3814 MB of main memory.
 @CHECKOUT-I, Total execution time (CPU/WALL):        0.13/       0.05 seconds.
--executable xvmol2ja finished with status     0 in        0.09 seconds (walltime).
 --invoking executable--
/nfs/workspaces/public/cfour_mpi/bin/xvprop
 @GETMEM-I,  Allocated    3814 MB of main memory.
   Property integrals will be calculated.
    --------------------------------------------------------------
                                   Property evaluated at 
    Property type                X             Y             Z
    --------------------------------------------------------------
    Dipole moment               ----          ----          ----  
    Quadrupole moment           ----          ----          ----  
    Octopole moment             ----          ----          ----  
    Relativisitic corr.         ----          ----          ----  
    Second moment            0.0000000     0.0000000     0.0000000
    Electron density         0.0000000     0.0000000     1.3909828
    Electron density         0.0000000     0.0000000    -1.1308246
    Field gradient           0.0000000     0.0000000     1.3909828
    Field gradient           0.0000000     0.0000000    -1.1308246
    Potential                0.0000000     0.0000000     1.3909828
    Potential                0.0000000     0.0000000    -1.1308246
    --------------------------------------------------------------
 @CHECKOUT-I, Total execution time (CPU/WALL):        1.64/       2.29 seconds.
--executable xvprop finished with status     0 in        2.34 seconds (walltime).
 --invoking executable--
/nfs/workspaces/public/cfour_mpi/bin/xvscf
  There are  218 functions in the AO basis.

  There are 4 irreducible representations.

       Irrep        # of functions
         1                 86
         2                 52
         3                 52
         4                 28


  Parameters for SCF calculation: 
        SCF reference function:  RHF  
  Maximum number of iterations:  150
     Full symmetry point group: CXv 
     Computational point group: C2v 
        Initial density matrix: MOREAD                 
     SCF convergence tolerance: 10**(-10)
  DIIS convergence acceleration:  ON
          Latest start for DIIS:   8
                     DIIS order:   6

  Memory information:    2523578 words required.
  Fock matrices are constructed from AO integral file.
 @GETMEM-I,  Allocated      19 MB of main memory.
  Initialization and symmetry analysis required      0.001 seconds.

  Adding electric field perturbation to one-electron Hamiltonian.
  Field direction     : Z
  Field strength      : -0.0002000 a.u.

  @INITGES-I, Occupancies from core Hamiltonian:

          Alpha population by irrep:   5    1    1    0
           Beta population by irrep:   5    1    1    0


 total no. of electrons in initial guess :  0.000000000000000E+000
  --------------------------------------------------------------------
  Iteration         Total Energy            Largest Density Difference
  --------------------------------------------------------------------
       0            19.033826867752143              0.0000000000D+00
   current occupation vector 
     5  1  1  0
     5  1  1  0
       1           -92.943432181659219              0.1780491173D+02
   current occupation vector 
     5  1  1  0
     5  1  1  0
       2           -98.360753553877061              0.1780152376D+02
   current occupation vector 
     5  1  1  0
     5  1  1  0
       3          -103.467740248614163              0.6975562006D+01
   current occupation vector 
     5  1  1  0
     5  1  1  0
       4           -99.113508195538742              0.6960016414D+01
   current occupation vector 
     5  1  1  0
     5  1  1  0
       5          -101.673960432828366              0.6228861891D+01
   current occupation vector 
     5  1  1  0
     5  1  1  0
       6           -97.764547511208818              0.6207552029D+01
   current occupation vector 
     5  1  1  0
     5  1  1  0
       7          -101.677134211646262              0.6373238524D+01
   current occupation vector 
     5  1  1  0
     5  1  1  0
       8           -97.671808270088277              0.6372420988D+01
   current occupation vector 
     5  1  1  0
     5  1  1  0
       9          -108.765358602197210              0.4810863718D+01
   current occupation vector 
     5  1  1  0
     5  1  1  0
      10          -110.824793103469233              0.1107564121D+01
   current occupation vector 
     5  1  1  0
     5  1  1  0
      11          -112.527216986063479              0.1051654034D+01
   current occupation vector 
     5  1  1  0
     5  1  1  0
      12          -112.698232276402564              0.4260880715D+00
   current occupation vector 
     5  1  1  0
     5  1  1  0
      13          -112.700046474739764              0.5567659310D-01
   current occupation vector 
     5  1  1  0
     5  1  1  0
      14          -112.700311181878703              0.1986217728D-01
   current occupation vector 
     5  1  1  0
     5  1  1  0
      15          -112.700340859127067              0.8503872061D-02
   current occupation vector 
     5  1  1  0
     5  1  1  0
      16          -112.700341399617145              0.1004000216D-02
   current occupation vector 
     5  1  1  0
     5  1  1  0
      17          -112.700341450912958              0.4613372940D-03
   current occupation vector 
     5  1  1  0
     5  1  1  0
      18          -112.700341455907449              0.1583165276D-03
   current occupation vector 
     5  1  1  0
     5  1  1  0
      19          -112.700341456028241              0.2376941185D-04
   current occupation vector 
     5  1  1  0
     5  1  1  0
      20          -112.700341456026706              0.1589752876D-05
   current occupation vector 
     5  1  1  0
     5  1  1  0
      21          -112.700341456029435              0.7964045075D-06
   current occupation vector 
     5  1  1  0
     5  1  1  0
      22          -112.700341456029491              0.1545886701D-06
   current occupation vector 
     5  1  1  0
     5  1  1  0
      23          -112.700341456029520              0.3471303089D-07
   current occupation vector 
     5  1  1  0
     5  1  1  0
      24          -112.700341456028298              0.2775725427D-08
   current occupation vector 
     5  1  1  0
     5  1  1  0
      25          -112.700341456026308              0.3761582157D-09
   current occupation vector 
     5  1  1  0
     5  1  1  0
      26          -112.700341456029264              0.1163782404D-09
   current occupation vector 
     5  1  1  0
     5  1  1  0

  SCF has converged.

 Density matrix saved to file den.dat
 total electron number:   14.0000000000004     
     E(SCF)=      -112.700341456029435              0.9183342975D-10

  Eigenvector printing suppressed.

 @PUTMOS-I, Writing converged MOs to NEWMOS. 
 @PUTMOS-I, Symmetry   1 Full Blocks 21 Partial Blocksize   2
 @PUTMOS-I, Symmetry   2 Full Blocks 13 Partial Blocksize   0
 @PUTMOS-I, Symmetry   3 Full Blocks 13 Partial Blocksize   0
 @PUTMOS-I, Symmetry   4 Full Blocks  7 Partial Blocksize   0
 @PUTFOCK-I, Writing converged Fock matrix to NEWFOCK. 
 @PUTFOCK-I, Symmetry   1 Full Blocks 21 Partial Blocksize   2
 @PUTFOCK-I, Symmetry   2 Full Blocks 13 Partial Blocksize   0
 @PUTFOCK-I, Symmetry   3 Full Blocks 13 Partial Blocksize   0
 @PUTFOCK-I, Symmetry   4 Full Blocks  7 Partial Blocksize   0


 
  ORBITAL EIGENVALUES (ALPHA)  (1H = 27.2113834 eV)

       MO #        E(hartree)               E(eV)           FULLSYM    COMPSYM
       ----   --------------------   --------------------   -------   ---------
    1     1         -20.6645147145        -562.3100326701     SG+        A1 (1)
    2     2         -11.4460731654        -311.4634853289     SG+        A1 (1)
    3     3          -1.3934911071         -37.9188207811     SG+        A1 (1)
    4     4          -0.7931033100         -21.5814382441     SG+        A1 (1)
    5     5          -0.5654596149         -15.3869383776     SG+        A1 (1)
    6   139          -0.5634768555         -15.3329847529      PI        B2 (3)
    7    87          -0.5634768555         -15.3329847529      PI        B1 (2)
  +++++++++++++++++++++++++++++++++++++++++++++++++++++++++++++++++++++++++++++
    8    88           0.0443013734           1.2055016576      PI        B1 (2)
    9   140           0.0443013734           1.2055016576      PI        B2 (3)
   10     6           0.0633919659           1.7249830886     SG+        A1 (1)
   11     7           0.0694788665           1.8906160738     SG+        A1 (1)
   12   141           0.0964857386           2.6255104254      PI        B2 (3)
   13    89           0.0964857386           2.6255104254      PI        B1 (2)
   14     8           0.1572027767           4.2777050289     SG+        A1 (1)
   15    90           0.1705429766           4.6407103220      PI        B1 (2)
   16   142           0.1705429766           4.6407103220      PI        B2 (3)
   17   191           0.2260090473           6.1500188389      DE        A2 (4)
   18     9           0.2260090473           6.1500188389      DE        A1 (1)
   19    10           0.2271786415           6.1818451149     SG+        A1 (1)
   20    11           0.2994152196           8.1475023368     SG+        A1 (1)
   21    91           0.3015919139           8.2067331989      PI        B1 (2)
   22   143           0.3015919139           8.2067331989      PI        B2 (3)
   23    12           0.3776120902          10.2753473620     SG+        A1 (1)
   24   144           0.3970677948          10.8047639990      PI        B2 (3)
   25    92           0.3970677948          10.8047639990      PI        B1 (2)
   26    13           0.5097611545          13.8713062182     SG+        A1 (1)
   27    14           0.5367307419          14.6051860017     SG+        A1 (1)
   28    15           0.5448447559          14.8259795475      DE        A1 (1)
   29   192           0.5448447559          14.8259795475      DE        A2 (4)
   30    93           0.6259751788          17.0336505884      PI        B1 (2)
   31   145           0.6259751788          17.0336505884      PI        B2 (3)
   32    94           0.7425947705          20.2070310101      PH        B1 (2)
   33   146           0.7425947705          20.2070310101      PH        B2 (3)
   34    16           0.7519865700          20.4625948669     SG+        A1 (1)
   35    17           0.7567105079          20.5911397533      DE        A1 (1)
   36   193           0.7567105079          20.5911397533      DE        A2 (4)
   37   147           0.7992410810          21.7484554853      PI        B2 (3)
   38    95           0.7992410810          21.7484554853      PI        B1 (2)
   39    18           0.8260356700          22.4775733180     SG+        A1 (1)
   40    19           0.8681164008          23.6226482171     SG+        A1 (1)
   41    20           0.8785258018          23.9059024196      DE        A1 (1)
   42   194           0.8785258018          23.9059024196      DE        A2 (4)
   43   148           0.8959675371          24.3805161669      PI        B2 (3)
   44    96           0.8959675371          24.3805161669      PI        B1 (2)
   45    97           1.0395648643          28.2879980920      PI        B1 (2)
   46   149           1.0395648643          28.2879980920      PI        B2 (3)
   47    21           1.1243473733          30.5950474503     SG+        A1 (1)
   48    22           1.4146503904          38.4945941489     SG+        A1 (1)
   49    98           1.4330553632          38.9954189217      PH        B1 (2)
   50   150           1.4330553632          38.9954189217      PH        B2 (3)
   51    23           1.5524256438          42.2436493941      DE        A1 (1)
   52   195           1.5524256438          42.2436493941      DE        A2 (4)
   53    99           1.5677833957          42.6615550697      PI        B1 (2)
   54   151           1.5677833957          42.6615550697      PI        B2 (3)
   55    24           1.6472711088          44.8245257058     SG+        A1 (1)
   56   100           1.6699625207          45.4419904148      PI        B1 (2)
   57   152           1.6699625207          45.4419904148      PI        B2 (3)
   58    25           1.7321940727          47.1353970351      DE        A1 (1)
   59   196           1.7321940727          47.1353970351      DE        A2 (4)
   60    26           1.8529738109          50.4219807998     SG+        A1 (1)
   61    27           2.0314954037          55.2798003050     SG+        A1 (1)
   62   101           2.0642387370          56.1707917022      PI        B1 (2)
   63   153           2.0642387370          56.1707917022      PI        B2 (3)
   64   197           2.0899006889          56.8690889127      PI        A2 (4)
   65    28           2.0899006889          56.8690889127      PI        A1 (1)
   66   198           2.1595775462          58.7650925926      DE        A2 (4)
   67    29           2.1595775462          58.7650925926      DE        A1 (1)
   68   154           2.2324636863          60.7484252945      PH        B2 (3)
   69   102           2.2324636863          60.7484252945      PH        B1 (2)
   70   155           2.2794577926          62.0271999393      PI        B2 (3)
   71   103           2.2794577926          62.0271999393      PI        B1 (2)
   72    30           2.2883157772          62.2682379536     SG+        A1 (1)
   73   156           2.2898540687          62.3100969930      PH        B2 (3)
   74   104           2.2898540687          62.3100969930      PH        B1 (2)
   75   199           2.3282758418          63.3556065928      DE        A2 (4)
   76    31           2.3282758418          63.3556065928      DE        A1 (1)
   77    32           2.4976120489          67.9634790462     SG+        A1 (1)
   78   105           2.5395252288          69.1039946557      PI        B1 (2)
   79   157           2.5395252288          69.1039946557      PI        B2 (3)
   80    33           2.6703763067          72.6646335037     SG+        A1 (1)
   81   106           2.6820933135          72.9834694678      PI        B1 (2)
   82   158           2.6820933135          72.9834694678      PI        B2 (3)
   83    34           2.8338162157          77.1120595307      DE        A1 (1)
   84   200           2.8338162157          77.1120595307      DE        A2 (4)
   85    35           3.3544783015          91.2799951703     SG+        A1 (1)
   86   107           3.6272194865          98.7016601232      PI        B1 (2)
   87   159           3.6272194865          98.7016601232      PI        B2 (3)
   88   201           3.7022841014         100.7442721401      PI        A2 (4)
   89    36           3.7022841014         100.7442721401      PI        A1 (1)
   90    37           3.8984807361         106.0830539863     SG+        A1 (1)
   91   160           4.0606426649         110.4957044036      PH        B2 (3)
   92   108           4.0606426649         110.4957044036      PH        B1 (2)
   93   161           4.1297809148         112.3770518297      PH        B2 (3)
   94   109           4.1297809148         112.3770518297      PH        B1 (2)
   95   110           4.1782038314         113.6947063808      PI        B1 (2)
   96   162           4.1782038314         113.6947063808      PI        B2 (3)
   97    38           4.2112466167         114.5938462784      DE        A1 (1)
   98   202           4.2112466167         114.5938462785      DE        A2 (4)
   99    39           4.2168178006         114.7454458988     SG+        A1 (1)
  100    40           4.2973331791         116.9363807335      DE        A1 (1)
  101   203           4.2973331791         116.9363807335      DE        A2 (4)
  102    41           4.3828336428         119.2629666340     SG+        A1 (1)
  103   111           4.8075582067         130.8203095801      PI        B1 (2)
  104   163           4.8075582067         130.8203095801      PI        B2 (3)
  105   204           4.9590781198         134.9433760284      DE        A2 (4)
  106    42           4.9590781198         134.9433760285      DE        A1 (1)
  107   112           4.9861940574         135.6812382015      PI        B1 (2)
  108   164           4.9861940574         135.6812382015      PI        B2 (3)
  109    43           5.0881405740         138.4553439531     SG+        A1 (1)
  110    44           5.3531385907         145.6663065838     SG+        A1 (1)
  111   165           5.5633879049         151.3874812841      PI        B2 (3)
  112   113           5.5633879049         151.3874812841      PI        B1 (2)
  113   205           5.8686311971         159.6935735371      PI        A2 (4)
  114    45           5.8686311971         159.6935735371      PI        A1 (1)
  115   114           5.9832334146         162.8120584160      PH        B1 (2)
  116   166           5.9832334146         162.8120584160      PH        B2 (3)
  117    46           6.2057224344         168.8662924370     SG+        A1 (1)
  118   206           6.2203043176         169.2630856502      DE        A2 (4)
  119    47           6.2203043176         169.2630856503      DE        A1 (1)
  120   115           6.2507641254         170.0919391594      PI        B1 (2)
  121   167           6.2507641254         170.0919391594      PI        B2 (3)
  122   116           6.4048062303         174.2836379343      PH        B1 (2)
  123   168           6.4048062303         174.2836379343      PH        B2 (3)
  124    48           6.4597036834         175.7774735803     SG+        A1 (1)
  125    49           6.5351358735         177.8300878262      DE        A1 (1)
  126   207           6.5351358735         177.8300878262      DE        A2 (4)
  127    50           6.7075097919         182.5206206058      DE        A1 (1)
  128   208           6.7075097919         182.5206206058      DE        A2 (4)
  129   117           7.0810603985         192.6854493809      PI        B1 (2)
  130   169           7.0810603985         192.6854493809      PI        B2 (3)
  131    51           7.4001618177         201.3686404434     SG+        A1 (1)
  132   118           7.8686933843         214.1180325376      PI        B1 (2)
  133   170           7.8686933843         214.1180325376      PI        B2 (3)
  134    52           8.2776597765         225.2465738331     SG+        A1 (1)
  135    53           9.9582540366         270.9778685846     SG+        A1 (1)
  136   171          10.0402799454         273.2099070364      PI        B2 (3)
  137   119          10.0402799454         273.2099070365      PI        B1 (2)
  138   209          10.6190960280         288.9602933800      PI        A2 (4)
  139    54          10.6190960280         288.9602933800      PI        A1 (1)
  140   120          10.7855359882         293.4893549483      PH        B1 (2)
  141   172          10.7855359882         293.4893549483      PH        B2 (3)
  142    55          10.8321663171         294.7582307082     SG+        A1 (1)
  143    56          11.0191178541         299.8454406584      DE        A1 (1)
  144   210          11.0191178541         299.8454406584      DE        A2 (4)
  145   121          11.1498481280         303.4027922638      PI        B1 (2)
  146   173          11.1498481280         303.4027922638      PI        B2 (3)
  147    57          11.4714479798         312.1539691304     SG+        A1 (1)
  148   174          11.8632018398         322.8141336155      PH        B2 (3)
  149   122          11.8632018398         322.8141336155      PH        B1 (2)
  150   211          12.1062602790         329.4280899913      DE        A2 (4)
  151    58          12.1062602790         329.4280899916      DE        A1 (1)
  152   175          12.6014090544         342.9017731587      PI        B2 (3)
  153   123          12.6014090544         342.9017731587      PI        B1 (2)
  154   212          12.7796705142         347.7525140862      DE        A2 (4)
  155    59          12.7796705142         347.7525140863      DE        A1 (1)
  156    60          12.9612508553         352.6935663679     SG+        A1 (1)
  157   124          13.2607389907         360.8430528423      PI        B1 (2)
  158   176          13.2607389907         360.8430528423      PI        B2 (3)
  159    61          14.2632775700         388.1235144967     SG+        A1 (1)
  160    62          17.6360615938         479.9016336942     SG+        A1 (1)
  161   125          18.9981663241         516.9663877432      PI        B1 (2)
  162   177          18.9981663241         516.9663877432      PI        B2 (3)
  163    63          20.4529789458         556.5538517667     SG+        A1 (1)
  164   213          26.3699522053         717.5628796983      DE        A2 (4)
  165    64          26.3699522053         717.5628796983      DE        A1 (1)
  166   126          26.7971139173         729.1865408169      PI        B1 (2)
  167   178          26.7971139173         729.1865408169      PI        B2 (3)
  168    65          27.3995623209         745.5799953051     SG+        A1 (1)
  169   179          33.6871394150         916.6736662696      PI        B2 (3)
  170   127          33.6871394150         916.6736662705      PI        B1 (2)
  171    66          34.4791480062         938.2253157033     SG+        A1 (1)
  172    67          36.1790385420         984.4816888096     SG+        A1 (1)
  173   214          47.0851419696        1281.2518505781      DE        A2 (4)
  174    68          47.0851419696        1281.2518505781      DE        A1 (1)
  175   128          47.3158056401        1287.5285281531      PI        B1 (2)
  176   180          47.3158056401        1287.5285281531      PI        B2 (3)
  177    69          47.9546330342        1304.9119052993     SG+        A1 (1)
  178    70          63.9694836906        1740.6981466045     SG+        A1 (1)
  179   129          66.5236825780        1810.2014318085      PI        B1 (2)
  180   181          66.5236825780        1810.2014318086      PI        B2 (3)
  181    71          67.5803272467        1838.9541950061     SG+        A1 (1)
  182   182          98.5860494027        2682.6627881895      PH        B2 (3)
  183   130          98.5860494027        2682.6627881896      PH        B1 (2)
  184   215          98.6002630611        2683.0495614973      DE        A2 (4)
  185    72          98.6002630611        2683.0495614973      DE        A1 (1)
  186   131          98.6283371617        2683.8134966124      PI        B1 (2)
  187   183          98.6283371617        2683.8134966125      PI        B2 (3)
  188    73          98.6504792187        2684.4160126134     SG+        A1 (1)
  189   184         103.2862106521        2810.5606779865      PH        B2 (3)
  190   132         103.2862106521        2810.5606779865      PH        B1 (2)
  191    74         103.3094909244        2811.1941664038      DE        A1 (1)
  192   216         103.3094909245        2811.1941664044      DE        A2 (4)
  193   133         103.3527867631        2812.3723060700      PI        B1 (2)
  194   185         103.3527867631        2812.3723060700      PI        B2 (3)
  195    75         103.3621024735        2812.6257994378     SG+        A1 (1)
  196    76         115.0561433089        3130.8368281029      DE        A1 (1)
  197   217         115.0561433089        3130.8368281030      DE        A2 (4)
  198   186         115.2620406439        3136.4395794286      PI        B2 (3)
  199   134         115.2620406439        3136.4395794286      PI        B1 (2)
  200    77         115.5711660331        3144.8513089122     SG+        A1 (1)
  201   187         116.9525863899        3182.4416678759      PI        B2 (3)
  202   135         116.9525863899        3182.4416678762      PI        B1 (2)
  203    78         117.5949178587        3199.9203957453     SG+        A1 (1)
  204    79         122.3679838449        3329.8021242897     SG+        A1 (1)
  205   218         198.5549280091        5402.9542720158      DE        A2 (4)
  206    80         198.5549280091        5402.9542720158      DE        A1 (1)
  207   188         198.6782051867        5406.3088145592      PI        B2 (3)
  208   136         198.6782051867        5406.3088145592      PI        B1 (2)
  209    81         199.0118812992        5415.3886031879     SG+        A1 (1)
  210    82         216.4907553619        5891.0129467075     SG+        A1 (1)
  211   137         224.9750875348        6121.8833623570      PI        B1 (2)
  212   189         224.9750875348        6121.8833623571      PI        B2 (3)
  213    83         225.8065001302        6144.5072492553     SG+        A1 (1)
  214   138         395.4201071732       10759.9281403578      PI        B1 (2)
  215   190         395.4201071732       10759.9281403582      PI        B2 (3)
  216    84         395.9578069425       10774.5596949355     SG+        A1 (1)
  217    85         508.9779866067       13849.9951357162     SG+        A1 (1)
  218    86         895.3246364293       24363.0219493419     SG+        A1 (1)


  VSCF finished.

 @CHECKOUT-I, Total execution time (CPU/WALL):       34.73/      17.06 seconds.
--executable xvscf finished with status     0 in       17.13 seconds (walltime).
 --invoking executable--
/nfs/workspaces/public/cfour_mpi/bin/xvtran
 @GETMEM-I,  Allocated    3814 MB of main memory.
  Full RHF integral transformation
  Transformation of IIII integrals :
  1 pass through the AO integral file was required.
     4515020 AO integrals were read.
     8757862 MO integrals were written to HF2.
  Transformation of IIJJ integrals :
  1 pass through the AO integral file was required.
    10239849 AO integrals were read.
    14543372 MO integrals were written to HF2.
  Transformation of IJIJ integrals :
  1 pass through the AO integral file was required.
    19440802 AO integrals were read.
    27259284 MO integrals were written to HF2.
  Transformation of IJKL integrals :
  1 pass through the AO integral file was required.
    14394805 AO integrals were read.
    18430738 MO integrals were written to HF2.
  Summary of active molecular orbitals: 
------------------------------------------------------------------------
 
  Index      Eigenvalue    Symmetry    Index      Eigenvalue    Symmetry
------------------------------------------------------------------------
     1       -20.6645147        1       110         4.1297809        2
     2       -11.4460732        1       111         4.1782038        2
     3        -1.3934911        1       112         4.8075582        2
     4        -0.7931033        1       113         4.9861941        2
     5        -0.5654596        1       114         5.5633879        2
     6        -0.5634769        2       115         5.9832334        2
     7        -0.5634769        3       116         6.2507641        2
     8         0.0633920        1       117         6.4048062        2
     9         0.0694789        1       118         7.0810604        2
    10         0.1572028        1       119         7.8686934        2
    11         0.2260090        1       120        10.0402799        2
    12         0.2271786        1       121        10.7855360        2
    13         0.2994152        1       122        11.1498481        2
    14         0.3776121        1       123        11.8632018        2
    15         0.5097612        1       124        12.6014091        2
    16         0.5367307        1       125        13.2607390        2
    17         0.5448448        1       126        18.9981663        2
    18         0.7519866        1       127        26.7971139        2
    19         0.7567105        1       128        33.6871394        2
    20         0.8260357        1       129        47.3158056        2
    21         0.8681164        1       130        66.5236826        2
    22         0.8785258        1       131        98.5860494        2
    23         1.1243474        1       132        98.6283372        2
    24         1.4146504        1       133       103.2862107        2
    25         1.5524256        1       134       103.3527868        2
    26         1.6472711        1       135       115.2620406        2
    27         1.7321941        1       136       116.9525864        2
    28         1.8529738        1       137       198.6782052        2
    29         2.0314954        1       138       224.9750875        2
    30         2.0899007        1       139       395.4201072        2
    31         2.1595775        1       140         0.0443014        3
    32         2.2883158        1       141         0.0964857        3
    33         2.3282758        1       142         0.1705430        3
    34         2.4976120        1       143         0.3015919        3
    35         2.6703763        1       144         0.3970678        3
    36         2.8338162        1       145         0.6259752        3
    37         3.3544783        1       146         0.7425948        3
    38         3.7022841        1       147         0.7992411        3
    39         3.8984807        1       148         0.8959675        3
    40         4.2112466        1       149         1.0395649        3
    41         4.2168178        1       150         1.4330554        3
    42         4.2973332        1       151         1.5677834        3
    43         4.3828336        1       152         1.6699625        3
    44         4.9590781        1       153         2.0642387        3
    45         5.0881406        1       154         2.2324637        3
    46         5.3531386        1       155         2.2794578        3
    47         5.8686312        1       156         2.2898541        3
    48         6.2057224        1       157         2.5395252        3
    49         6.2203043        1       158         2.6820933        3
    50         6.4597037        1       159         3.6272195        3
    51         6.5351359        1       160         4.0606427        3
    52         6.7075098        1       161         4.1297809        3
    53         7.4001618        1       162         4.1782038        3
    54         8.2776598        1       163         4.8075582        3
    55         9.9582540        1       164         4.9861941        3
    56        10.6190960        1       165         5.5633879        3
    57        10.8321663        1       166         5.9832334        3
    58        11.0191179        1       167         6.2507641        3
    59        11.4714480        1       168         6.4048062        3
    60        12.1062603        1       169         7.0810604        3
    61        12.7796705        1       170         7.8686934        3
    62        12.9612509        1       171        10.0402799        3
    63        14.2632776        1       172        10.7855360        3
    64        17.6360616        1       173        11.1498481        3
    65        20.4529789        1       174        11.8632018        3
    66        26.3699522        1       175        12.6014091        3
    67        27.3995623        1       176        13.2607390        3
    68        34.4791480        1       177        18.9981663        3
    69        36.1790385        1       178        26.7971139        3
    70        47.0851420        1       179        33.6871394        3
    71        47.9546330        1       180        47.3158056        3
    72        63.9694837        1       181        66.5236826        3
    73        67.5803272        1       182        98.5860494        3
    74        98.6002631        1       183        98.6283372        3
    75        98.6504792        1       184       103.2862107        3
    76       103.3094909        1       185       103.3527868        3
    77       103.3621025        1       186       115.2620406        3
    78       115.0561433        1       187       116.9525864        3
    79       115.5711660        1       188       198.6782052        3
    80       117.5949179        1       189       224.9750875        3
    81       122.3679838        1       190       395.4201072        3
    82       198.5549280        1       191         0.2260090        4
    83       199.0118813        1       192         0.5448448        4
    84       216.4907554        1       193         0.7567105        4
    85       225.8065001        1       194         0.8785258        4
    86       395.9578069        1       195         1.5524256        4
    87       508.9779866        1       196         1.7321941        4
    88       895.3246364        1       197         2.0899007        4
    89         0.0443014        2       198         2.1595775        4
    90         0.0964857        2       199         2.3282758        4
    91         0.1705430        2       200         2.8338162        4
    92         0.3015919        2       201         3.7022841        4
    93         0.3970678        2       202         4.2112466        4
    94         0.6259752        2       203         4.2973332        4
    95         0.7425948        2       204         4.9590781        4
    96         0.7992411        2       205         5.8686312        4
    97         0.8959675        2       206         6.2203043        4
    98         1.0395649        2       207         6.5351359        4
    99         1.4330554        2       208         6.7075098        4
   100         1.5677834        2       209        10.6190960        4
   101         1.6699625        2       210        11.0191179        4
   102         2.0642387        2       211        12.1062603        4
   103         2.2324637        2       212        12.7796705        4
   104         2.2794578        2       213        26.3699522        4
   105         2.2898541        2       214        47.0851420        4
   106         2.5395252        2       215        98.6002631        4
   107         2.6820933        2       216       103.3094909        4
   108         3.6272195        2       217       115.0561433        4
   109         4.0606427        2       218       198.5549280        4
------------------------------------------------------------------------
  -20.6645147144611       -11.4460731654282       -1.39349110714668     
 -0.793103309994031      -0.565459614875873      -0.563476855530325     
 -0.563476855530332       6.339196590197441E-002  6.947886647286641E-002
  0.157202776719272       0.226009047333234       0.227178641528996     
  0.299415219618118       0.377612090165080       0.509761154525028     
  0.536730741948474       0.544844755944154       0.751986569963464     
  0.756710507899922       0.826035669983491       0.868116400765371     
  0.878525801802612        1.12434737332465        1.41465039035545     
   1.55242564382524        1.64727110881676        1.73219407268632     
   1.85297381094686        2.03149540368600        2.08990068886715     
   2.15957754623425        2.28831577719769        2.32827584182208     
   2.49761204886672        2.67037630669414        2.83381621570431     
   3.35447830154351        3.70228410144261        3.89848073605519     
   4.21124661667887        4.21681780055369        4.29733317908130     
   4.38283364284807        4.95907811980130        5.08814057403194     
   5.35313859066062        5.86863119708398        6.20572243442140     
   6.22030431757675        6.45970368343489        6.53513587354872     
   6.70750979186758        7.40016181769599        8.27765977650031     
   9.95825403660425        10.6190960280236        10.8321663171376     
   11.0191178541240        11.4714479797590        12.1062602789841     
   12.7796705141519        12.9612508553295        14.2632775699572     
   17.6360615937736        20.4529789458142        26.3699522053087     
   27.3995623208591        34.4791480062471        36.1790385419946     
[...]
 Convergence information after    12 iterations: 
 Largest element of residual vector : -0.23939642E-05.
 Largest element of DIIS residual   : -0.12549482E-05.
 Convergence information after    13 iterations: 
 Largest element of residual vector : -0.96924134E-06.
 Largest element of DIIS residual   : -0.38564363E-06.
 Convergence information after    14 iterations: 
 Largest element of residual vector : -0.49267296E-06.
 Largest element of DIIS residual   : -0.24484467E-06.
 Convergence information after    15 iterations: 
 Largest element of residual vector : -0.16578208E-06.
 Largest element of DIIS residual   : -0.10127682E-06.
 Convergence information after    16 iterations: 
 Largest element of residual vector : -0.98050082E-07.
 Largest element of DIIS residual   : -0.44482148E-07.
 Perturbed amplitude equations converged in    16 iterations.
  Dominant contributions to perturbed wavefunction:
    7    7  140   28  -0.2308827836 ABAB
    7    7   28  140  -0.2308827836 ABAB
    7    7  140   39  -0.1963323988 ABAB
    7    7   39  140  -0.1963323988 ABAB
    7    7  141   28  -0.1797477925 ABAB
    7    7   28  141  -0.1797477925 ABAB
    7    7  141   39  -0.1581278094 ABAB
    7    7   39  141  -0.1581278094 ABAB
    7    7  140   54  -0.1557148012 ABAB
    7    7   54  140  -0.1557148012 ABAB
    7    6   28   89  -0.1485769845 ABAB
    6    7   89   28  -0.1485769845 ABAB
    7    7  140   20  -0.1392372252 ABAB
    7    7   20  140  -0.1392372252 ABAB
    7    7  140   45   0.1301136920 ABAB
    7    7   45  140   0.1301136920 ABAB
    7    6   39   89  -0.1267037635 ABAB
    6    7   89   39  -0.1267037635 ABAB
    7    7  141   54  -0.1263767683 ABAB
    7    7   54  141  -0.1263767683 ABAB
  norm of converged amps    2.00580588773448     
 Starting iterative solution of the perturbed Lambda equations.
 The DIIS procedure is used to accelerate convergence.
 Convergence criterion is 10**(-7).
 Maximum number of iterations is 100.
 Convergence information after     1 iterations: 
 Largest element of residual vector :  0.62087954E-01.
 Largest element of DIIS residual   :  0.62087954E-01.
 Convergence information after     2 iterations: 
 Largest element of residual vector : -0.11957256E-01.
 Largest element of DIIS residual   :  0.77269614E-02.
 Convergence information after     3 iterations: 
 Largest element of residual vector :  0.48348156E-02.
 Largest element of DIIS residual   :  0.43406090E-02.
 Convergence information after     4 iterations: 
 Largest element of residual vector :  0.31043583E-02.
 Largest element of DIIS residual   :  0.26845806E-02.
 Convergence information after     5 iterations: 
 Largest element of residual vector :  0.21485254E-02.
 Largest element of DIIS residual   :  0.12048464E-02.
 Convergence information after     6 iterations: 
 Largest element of residual vector :  0.83770383E-03.
 Largest element of DIIS residual   :  0.32544365E-03.
 Convergence information after     7 iterations: 
 Largest element of residual vector :  0.30002528E-03.
 Largest element of DIIS residual   :  0.13907662E-03.
 Convergence information after     8 iterations: 
 Largest element of residual vector :  0.89022946E-04.
 Largest element of DIIS residual   :  0.56514270E-04.
 Convergence information after     9 iterations: 
 Largest element of residual vector :  0.34670540E-04.
 Largest element of DIIS residual   : -0.93916746E-05.
 Convergence information after    10 iterations: 
 Largest element of residual vector : -0.67430400E-05.
 Largest element of DIIS residual   : -0.53309680E-05.
 Convergence information after    11 iterations: 
 Largest element of residual vector : -0.30709531E-05.
 Largest element of DIIS residual   : -0.17319415E-05.
 Convergence information after    12 iterations: 
 Largest element of residual vector : -0.18151569E-05.
 Largest element of DIIS residual   : -0.13659296E-05.
 Convergence information after    13 iterations: 
 Largest element of residual vector : -0.10059486E-05.
 Largest element of DIIS residual   : -0.69075497E-06.
 Convergence information after    14 iterations: 
 Largest element of residual vector : -0.67498362E-06.
 Largest element of DIIS residual   : -0.44745994E-06.
 Convergence information after    15 iterations: 
 Largest element of residual vector : -0.30845435E-06.
 Largest element of DIIS residual   : -0.18642920E-06.
 Convergence information after    16 iterations: 
 Largest element of residual vector : -0.16592929E-06.
 Largest element of DIIS residual   : -0.64807490E-07.
 Perturbed Lambda equations converged in    16 iterations.
  Dominant contributions to perturbed wavefunction:
    7    7  140   28  -0.2114648428 ABAB
    7    7   28  140  -0.2114648428 ABAB
    7    7  140   39  -0.1779014730 ABAB
    7    7   39  140  -0.1779014730 ABAB
    7    7  141   28  -0.1633419668 ABAB
    7    7   28  141  -0.1633419668 ABAB
    7    7  140   54  -0.1440918449 ABAB
    7    7   54  140  -0.1440918449 ABAB
    7    7  141   39  -0.1421851661 ABAB
    7    7   39  141  -0.1421851661 ABAB
    7    6   28   89  -0.1336821719 ABAB
    6    7   89   28  -0.1336821719 ABAB
    7    7  140   20  -0.1250687091 ABAB
    7    7   20  140  -0.1250687091 ABAB
    7    7  140   45   0.1170154852 ABAB
    7    7   45  140   0.1170154852 ABAB
    7    7  141   54  -0.1161785991 ABAB
    7    7   54  141  -0.1161785991 ABAB
    7    6   39   89  -0.1128001899 ABAB
    6    7   89   39  -0.1128001899 ABAB
        The DBOC first-order density matrix is being calculated 
             (Symmetry block 3, perturbation   2)
 term   4.53937709846989     
 final tnorm  0.857681355601120     
  norm contr. I: |<0|L dT/dx|0>|^2   0.000000000000000E+000
  norm contr. II: <0|[nabla(1+L)e-T][nabla e^T]|0>   4.53937709846989     
  total norm contribution   4.53937709846989     
 oo  8.486023207969899E-003
 vv  -34.0398456745813     
 vo  6.449211274269655E-002
  Correlated perturbed 1-el contribution to DBOC  -33.9668675386306       cm**-1
  SUM_I |dc_I/dx|^2 contribution to DBOC   17.0894365742846       cm**-1
 
 
  The total diagonal Born-Oppenheimer correction (DBOC) is:      0.0040074694 a.u.
  The total diagonal Born-Oppenheimer correction (DBOC) is:        879.537875 cm-1
 
 Total CC energy including DBOC  -113.215532719979     
 First-order density matrix is being calculated  (Symmetry block 3, perturbation   2)
 Calculation of the contributions of <pq||rs> to dI(i,j)/dx required   2.1 seconds.
 Calculation of the contributions of <pq||rs> to dI(a,b)/dx required  16.7 seconds.
 Calculation of the contributions of <pq||rs> to dI(i,a)/dx required   9.4 seconds.
 First-order Z-vector equations are solved for 1 perturbation.
 Convergence reached after  19 iterations.
        U*G(pq,rs) contribution is being calculated
             (Symmetry block 3, perturbation   2)

 CCSD contribution to force constants 

        0.0000000000        0.0000000000        0.0000000000
        0.0000000000        0.0000000000        0.0000000000
        0.0000000000        0.0000000000        0.0000000000
        0.0000000000        0.0000000000        0.0000000000
        0.0000000000        0.0000000000        0.0000000000
        0.0000000000        0.0000000000        0.0000000000
        0.0000000000        0.0000000000        0.0000000000
        0.0000000000        0.0000000000        0.0000000000
        0.0000000000        0.0000000000        0.0000000000
        0.0000000000        0.0000000000        0.0000000000
        0.0000000000        0.0000000000        0.0000000000
        0.0000000000        1.3020329785       -1.3020329785

 CCSD contribution to dipole derivatives 

        0.0000000000        0.0000000000        0.0000000000
        0.0000000000        0.0000000000        0.0000000000
        0.0000000000        0.0000000000        0.0000000000
        0.0000000000        0.0000000000       -0.0524499177
        0.0000000000        0.0000000000        0.0000000000
        0.0000000000        0.0000000000        0.0000000000
 @CHECKOUT-I, Total execution time (CPU/WALL):     1185.22/     442.24 seconds.
--executable xsdcc finished with status     0 in      442.43 seconds (walltime).
 --invoking executable--
/nfs/workspaces/public/cfour_mpi/bin/xanti
 @GETMEM-I,  Allocated    3814 MB of main memory.
 CCSD MO derivative gammas will be sorted to Mulliken order.
 @CHECKOUT-I, Total execution time (CPU/WALL):       12.19/      21.30 seconds.
--executable xanti finished with status     0 in       21.43 seconds (walltime).
 --invoking executable--
/nfs/workspaces/public/cfour_mpi/bin/xbcktrn
 @GETMEM-I,  Allocated    3814 MB of main memory.
 CCSD MO derivative gammas will be transformed to the AO basis.
 @CHECKOUT-I, Total execution time (CPU/WALL):       19.77/       9.05 seconds.
--executable xbcktrn finished with status     0 in        9.10 seconds (walltime).
 --invoking executable--
/nfs/workspaces/public/cfour_mpi/bin/xvdint
 @GETMEM-I,  Allocated    3814 MB of main memory.
 One- and two-electron integral derivatives are calculated
 for RHF-CC/MBPT hessians and dipole derivatives.
 Spherical gaussians are used.
  magnet F F
                    8722  records have been written to the Sort file.
  Total length of Sort file :             178609116  words.
 Evaluation of 2el integral derivatives

                      Two-electron integral gradient
                      ------------------------------

                         C #1 z     0.0000000000
                         O #2 z     0.0000000000


 C #1       0.0000000000           -0.1439414731            0.0000000000
 O #2       0.0000000000            0.1439414731            0.0000000000


 Evaluation of 2e integral derivatives required  350.46 seconds.
  contribution to Hessian
        0.0000000000        0.0000000000        0.0000000000
        0.0000000000       -0.1439414731        0.1439414731
 @CHECKOUT-I, Total execution time (CPU/WALL):      350.44/      73.36 seconds.
--executable xvdint finished with status     0 in       73.56 seconds (walltime).
 --invoking executable--
/nfs/workspaces/public/cfour_mpi/bin/xanti
 @GETMEM-I,  Allocated    3814 MB of main memory.
 CCSD MO gammas will be sorted to Mulliken order.
 @CHECKOUT-I, Total execution time (CPU/WALL):       16.43/      49.85 seconds.
--executable xanti finished with status     0 in       49.95 seconds (walltime).
 --invoking executable--
/nfs/workspaces/public/cfour_mpi/bin/xbcktrn
 @GETMEM-I,  Allocated    3814 MB of main memory.
 CCSD MO gammas will be transformed to the AO basis.
 @CHECKOUT-I, Total execution time (CPU/WALL):       30.93/       4.53 seconds.
--executable xbcktrn finished with status     0 in        4.56 seconds (walltime).
 --invoking executable--
/nfs/workspaces/public/cfour_mpi/bin/xvdint
 @GETMEM-I,  Allocated    3814 MB of main memory.
 One- and two-electron integral derivatives are calculated
 for RHF-CC/MBPT hessians and dipole derivatives.
 Spherical gaussians are used.
  magnet F F

                     Kinetic energy integral gradient
                     --------------------------------

                         C #1 z    -0.9532190539
                         O #2 z     0.9532190539


 C #1       0.0000000000            0.0000000000           -0.9532190539
 O #2       0.0000000000            0.0000000000            0.9532190539



                   Nuclear attraction integral gradient
                   ------------------------------------

                         C #1 z    18.5138463903
                         O #2 z   -18.5138463903


 C #1       0.0000000000            0.0000000000           18.5138463903
 O #2       0.0000000000            0.0000000000          -18.5138463903



                      Reorthonormalization gradient
                      -----------------------------

                         C #1 z     0.0000000000
                         O #2 z     0.0000000000


 C #1       0.0000000000            0.0000000000            0.0000000000
 O #2       0.0000000000            0.0000000000            0.0000000000



                     Kinetic energy integral Hessian
                     -------------------------------


           Symmetry 1

           C #1 z      O #2 z

 C #1 z    0.917699
 O #2 z   -0.917699    0.917699


           Symmetry 2

           C #1 x      O #2 x

 C #1 x   -0.960720
 O #2 x    0.960720   -0.960720


           Symmetry 3

           C #1 y      O #2 y

 C #1 y   -0.960720
 O #2 y    0.960720   -0.960720




           C #1 x      C #1 y      C #1 z      O #2 x      O #2 y      O #2 z

 C #1 x   -0.960720
 C #1 y    0.000000   -0.960720
 C #1 z    0.000000    0.000000    0.917699

 O #2 x    0.960720    0.000000    0.000000   -0.960720
 O #2 y    0.000000    0.960720    0.000000    0.000000   -0.960720
 O #2 z    0.000000    0.000000   -0.917699    0.000000    0.000000    0.917699




                   Nuclear attraction integral Hessian
                   -----------------------------------


           Symmetry 1

           C #1 z      O #2 z

 C #1 z  -11.409718
 O #2 z   11.409718  -11.409718


           Symmetry 2

           C #1 x      O #2 x

 C #1 x   12.871755
 O #2 x  -12.871755   12.871755


           Symmetry 3

           C #1 y      O #2 y

 C #1 y   12.871755
 O #2 y  -12.871755   12.871755




           C #1 x      C #1 y      C #1 z      O #2 x      O #2 y      O #2 z

 C #1 x   12.871755
 C #1 y    0.000000   12.871755
 C #1 z    0.000000    0.000000  -11.409718

 O #2 x  -12.871755    0.000000    0.000000   12.871755
 O #2 y    0.000000  -12.871755    0.000000    0.000000   12.871755
 O #2 z    0.000000    0.000000   11.409718    0.000000    0.000000  -11.409718




                Highest order reorthonormalization Hessian
                ------------------------------------------


           Symmetry 1

           C #1 z      O #2 z

 C #1 z    0.000000
 O #2 z    0.000000    0.000000


           Symmetry 2

           C #1 x      O #2 x

 C #1 x    0.000000
 O #2 x    0.000000    0.000000


           Symmetry 3

           C #1 y      O #2 y

 C #1 y    0.000000
 O #2 y    0.000000    0.000000




           C #1 x      C #1 y      C #1 z      O #2 x      O #2 y      O #2 z




                Electronic contributions to dipole moment
                -----------------------------------------

                               au             Debye

                    z      0.90294597      2.29506014

  Conversion factor used: 1 a.u. =   2.54174691 Debye 



   Electronic contributions to static part of dipole moment derivatives
   --------------------------------------------------------------------


                     Total dipole moment derivatives
                     -------------------------------


           Symmetry 1
                              Ez

               C #1 z    -5.67976505
               O #2 z    -8.32023495

           Symmetry 2
                              Ex

               C #1 x    -5.69652695
               O #2 x    -8.30347305

           Symmetry 3
                              Ey

               C #1 y    -5.69652695
               O #2 y    -8.30347305



                       Ex          Ey          Ez

      C #1    x   -5.696527    0.000000    0.000000
      C #1    y    0.000000   -5.696527    0.000000
      C #1    z    0.000000    0.000000   -5.679765

      O #2    x   -8.303473    0.000000    0.000000
      O #2    y    0.000000   -8.303473    0.000000
      O #2    z    0.000000    0.000000   -8.320235

 Evaluation of 1e integral derivatives required    1.58 seconds.
                    8815  records have been written to the Sort file.
  Total length of Sort file :             180513570  words.
 Evaluation of 2el integral derivatives

                      Two-electron integral gradient
                      ------------------------------

                         C #1 z    -9.3370878494
                         O #2 z     9.3370878494


 C #1       0.0000000000            0.0000000000           -9.3370878494
 O #2       0.0000000000            0.0000000000            9.3370878494


 Evaluation of 2e integral derivatives required  718.12 seconds.

                            Molecular gradient
                            ------------------

                         C #1 z     0.6757915693
                         O #2 z    -0.6757915693


 C #1       0.0000000000            0.0000000000            0.6757915693
 O #2       0.0000000000            0.0000000000           -0.6757915693


  Molecular gradient norm 0.956E+00

                            Molecular hessian
                            -----------------


           Symmetry 1

           C #1 z      O #2 z

 C #1 z   37.376772
 O #2 z  -37.376772   37.376772


           Symmetry 2

           C #1 x      O #2 x

 C #1 x   -0.868768
 O #2 x    0.868768   -0.868768


           Symmetry 3

           C #1 y      O #2 y

 C #1 y   -0.868768
 O #2 y    0.868768   -0.868768




           C #1 x      C #1 y      C #1 z      O #2 x      O #2 y      O #2 z

 C #1 x   -0.868768
 C #1 y    0.000000   -0.868768
 C #1 z    0.000000    0.000000   37.376772

 O #2 x    0.868768    0.000000    0.000000   -0.868768
 O #2 y    0.000000    0.868768    0.000000    0.000000   -0.868768
 O #2 z    0.000000    0.000000  -37.376772    0.000000    0.000000   37.376772




                           Total dipole moment
                           -------------------

                               au             Debye

                    z      0.20224597      0.51405808

  Conversion factor used: 1 a.u. =   2.54174691 Debye 



                     Total dipole moment derivatives
                     -------------------------------


           Symmetry 1
                              Ez

               C #1 z     0.69038864
               O #2 z    -0.69038864

           Symmetry 2
                              Ex

               C #1 x     0.08215729
               O #2 x    -0.08215729

           Symmetry 3
                              Ey

               C #1 y     0.08215729
               O #2 y    -0.08215729



                       Ex          Ey          Ez

      C #1    x    0.082157    0.000000    0.000000
      C #1    y    0.000000    0.082157    0.000000
      C #1    z    0.000000    0.000000    0.690389

      O #2    x   -0.082157    0.000000    0.000000
      O #2    y    0.000000   -0.082157    0.000000
      O #2    z    0.000000    0.000000   -0.690389

 @CHECKOUT-I, Total execution time (CPU/WALL):      719.70/     136.62 seconds.
--executable xvdint finished with status     0 in      136.77 seconds (walltime).
 --invoking executable--
/nfs/workspaces/public/cfour_mpi/bin/xjoda
  @GTFLGS-I, Hessian will be transformed to curvilinear coordinates.
  @GTFLGS-I, Hessian will be transformed to curvilinear coordinates.
  igrd and ihes are                      0                     1
  gradient from JOBARC 
   0.000000000000000   0.000000000000000   0.675791569306073
   0.000000000000000   0.000000000000000  -0.675791569306073
 
  @PROJFCM-I, Projecting force constant matrix onto totally symmetric subspace.
  Largest difference between matrix elements of symmetrized
  and unsymmetrized FCM :    -0.2079336703E-11.
  read isotopes from ZMAT file 
 
  Summary of diagonal Born-Oppenheimer correction at the correlated level
  The total diagonal Born-Oppenheimer correction (DBOC) is:      0.0040074694 a.u.
  The total diagonal Born-Oppenheimer correction (DBOC) is:        879.537875 cm-1
  The total diagonal Born-Oppenheimer correction (DBOC) is:            10.522 kJ/mole
  hellooooooo 
  readis is  F
 
 @CHECKOUT-I, Total execution time (CPU/WALL):        0.01/       0.12 seconds.
--executable xjoda finished with status     0 in        0.17 seconds (walltime).
  The final electronic energy is      -113.215532719978953 a.u. 
  This computation required                         4305.38 seconds (walltime).
