 --invoking executable--
/nfs/workspaces/public/cfour_mpi/bin/xjoda


   *************************************************************************
         <<<     CCCCCC     CCCCCC   |||     CCCCCC     CCCCCC   >>>
       <<<      CCC        CCC       |||    CCC        CCC         >>>
      <<<      CCC        CCC        |||   CCC        CCC            >>>
    <<<        CCC        CCC        |||   CCC        CCC              >>>
      <<<      CCC        CCC        |||   CCC        CCC            >>>
       <<<      CCC        CCC       |||    CCC        CCC         >>>
         <<<     CCCCCC     CCCCCC   |||     CCCCCC     CCCCCC   >>>
   *************************************************************************

     ****************************************************************
     * CFOUR Coupled-Cluster techniques for Computational Chemistry *
     ****************************************************************
 

   Department of Chemistry                Institut fuer Physikalische Chemie
   University of Florida                  Universitaet Mainz
   Gainesville, FL 32611, USA             D-55099 Mainz, Germany

   Department of Chemistry                Fakultaet fuer Chemie und Biowiss.
   Johns Hopkins University               Karlsruher Institut fuer Technologie
   Baltimore, MD 21218, USA               D-76131 Karlsruhe, Germany

   Department of Chemistry                Department of Physical Chemistry
   Southern Methodist University          Eotvos Lorand University
   Dallas, TX 75275, USA                  H-1053 Budapest, Hungary

 
                       Version 2.1
 
                     vincent.theory.phys.ucl.ac.uk                     
                     Wed 26 Feb 12:27:08 GMT 2025                      
                     integer*8 version is running
 
********************************************************************************
*                          Input from ZMAT file                                *
********************************************************************************
Carbon Monoxide DBOC calculation                                                
C                                                                               
O 1 r                                                                           
                                                                                
r=0.9                                                                           
                                                                                
                                                                                
*CFOUR(CALC=CCSD,BASIS=AUG-PCVQZ,SCF_CONV=10                                    
CC_CONV=14,DBOC=ON,MEMORY=500000000                                             
ZFIELD=-200)                                                                    
                                                                                
%isotopes                                                                       
13                                                                              
16                                                                              
********************************************************************************
  @GTFLGS-I, Hessian will be transformed to curvilinear coordinates.
    -------------------------------------------------------------------
                    CFOUR Control Parameters 
    -------------------------------------------------------------------
        External           Internal           Value            Units
          Name               Name
    -------------------------------------------------------------------
       ABCDTYPE             IABCDT         STANDARD    [  0]    ***   
       ANHARMONIC           IANHAR         OFF         [  0]    ***   
       ANH_ALGORIT          IANALG         STANDARD    [  0]    ***   
       ANH_DERIVAT          IANDER         SECOND      [  1]    ***   
       ANH_MODE             ANHMOD         VIBRATION   [  0]    ***   
       ANH_STEPSIZ          ICUBST             50000          x 10-6  
       ANH_SYMMETR          IANHSM         ABELIAN     [  0]    ***   
       AO_LADDERS           IAOLAD         SINGLEPASS  [  1]    ***   
       AV_SCF               IAVSCF         OFF         [  0]    ***   
       BASIS                IBASIS         AUG-PCVQZ   [ 52]    ***   
       BOTHVECTORS          BOTHVC         OFF         [  0]    ***   
       BOX_POTENT           IPIAB          OFF         [  0]    ***   
       BREIT                IBREIT         OFF         [  0]    ***   
       BRUCK_CONV           IBRTOL          10D-  4             ***   
       BRUECKNER            IBRKNR         OFF         [  0]    ***   
       BUFFERSIZE           IBUFFS              4096            ***   
       CACHE_RECS           ICHREC             10               ***   
       CALCLEVEL            ICLLVL         CCSD        [ 10]    ***   
       CCORBOPT             ICCORB         OFF         [  0]  x 0.01  
       CC_CONV              ICCCNV          10D- 14             ***   
       CC_EXPORDER          ICCEOR              5               ***   
       CC_EXTRAPOL          ICCEXT         DIIS        [  1]    ***   
       CC_GUESS             ICCGES         MP2         [  0]    ***   
       CC_MAXCYC            ICCCYC            100              cycles 
       CC_PROGRAM           ICCPRO         VCC         [  0]    ***   
       CHARGE               ICHRGE              0               ***   
       CHOLESKY             ICHOLE         OFF         [  0]    ***   
       CIS_CONV             ICISTL              5               ***   
       COMM_SIZE            IPSIZE            ***               ***   
       CONSTANT             ICONST         OLD         [  1]    ***   
       CONTINUUM            ICONTU         NONE        [  0]    ***   
       CONTRACTION          ICNTYP         GENERAL     [  1]    ***   
       COORDINATES          ICOORD         INTERNAL    [  0]    ***   
       CPHF_CONVER          ICPHFT          10D- 16             ***   
       CPHF_MAXCYC          ICPHFC             64              cycles 
       CUBIC                ICUBIC         OFF         [  0]    ***   
       CURVILINEAR          ICURVY         ON          [  1]    ***   
       DBOC                 IDBOC          ON          [  1]    ***   
       DCT                  IDCT           OFF         [  0]    ***   
       DERIV_LEV            IDRLVL         SECOND      [  2]    ***   
       DEVMEM_SIZE          IDVMEM          50000000           MByte  
       DIAG_MRCC            IEOMST          10D-  0             ***   
       DIFF_TYPE            IDIFTY         RELAXED     [  0]    ***   
       DIRECT               IDIRCT         OFF         [  0]    ***   
       DROPMO               IDRPMO      NONE         
       ECP                  IECP           OFF         [  0]    ***   
       EIGENVECTOR          IVEC                1               ***   
       EL_ANHARM            IELANH         OFF         [  0]    ***   
       EOMFOLLOW            IEOMSR         ENERGY      [  0]    ***   
       EOMIP                IEOMIP         OFF         [  0]    ***   
       EOMLEVEL             HBARFM         SAME        [  0]    ***   
       EOM_MRCC             IMRCCE         NEW         [  1]    ***   
       EOM_NONIT            EOMNON         OFF         [  0]    ***   
       EOM_NSING            IEOMSI          10D-  0             ***   
       EOM_NSTATES          IMRCCD         DAVIDSON    [  0]    ***   
       EOM_NTRIP            IEOMTR          10D-  0             ***   
       EOM_ORDER            IEXORD         ENERGY      [  0]    ***   
       EOM_PROPSTA          IEOMST              0               ***   
       ESTATE_CONV          IEXTOL          10D-  5             ***   
       ESTATE_DIAG          IEXDIG         ITERATIVE   [  0]    ***   
       ESTATE_LOCK          IESLOC         ON          [  1]    ***   
       ESTATE_MAXC          IEXMXC             40               ***   
       ESTATE_PROP          IEXPRP         OFF         [  0]    ***   
       EVAL_HESS            IRECAL              0            # of cyc.
       EXCITATION           IEXCIT              0               ***   
       EXCITE               IEXCIT         NONE        [  0]    ***   
       EXTERN_POT           IEXPOT         OFF         [  0]    ***   
       FCGRADNEW            IFCGNW         OFF         [  0]    ***   
       FC_FIELD             IFINFC              0             x 10-6  
       FD_CALTYPE           IFDCAL         GRADONLY    [  0]    ***   
       FD_PROJECT           IFDPRJ         OFF         [  1]    ***   
       FD_STEPSIZE          IDISFD              0            10-4 bohr
       FD_USEGROUP          IFDGRP         FULL        [  0]    ***   
       FILE_RECSIZ          IFLREC              4096           words  
       FINITE_PERT          IFIPER              0             x 10-6  
       FIXGEOM              IFIXGM         OFF         [  0]    ***   
       FOCK                 IFOCK          AO          [  1]    ***   
       FREQ_ALGORI          IVIALG         STANDARD    [  0]    ***   
       FROZEN_CORE          IFROCO         OFF         [  0]    ***   
       GAMMA_ABCD           IGABCD         STORE       [  0]    ***   
       GAMMA_ABCI           IGABCI         STORE       [  0]    ***   
       GENBAS_1             IGNBS1              0               ***   
       GENBAS_2             IGNBS2              0               ***   
       GENBAS_3             IGNBS3              0               ***   
       GENBAS_4             IGNBS4              0               ***   
       GEO_CONV             ICONTL              5              H/bohr 
       GEO_MAXCYC           IOPTCY             50               ***   
       GEO_MAXSTEP          IMXSTP            300            millibohr
       GEO_METHOD           INR            SINGLE_POINT[  5]    ***   
       GIAO                 IGIAO          OFF         [  1]    ***   
       GIMIC                IGIMIC         OFF         [  0]    ***   
       GRID                 IGRID          OFF         [  0]    ***   
       GRID_ALGO            IGALGO         SERIAL      [  0]    ***   
       GUESS                IGUESS         MOREAD      [  0]    ***   
       HBAR                 IHBAR          OFF         [  0]    ***   
       HESS_TYPE            IHESTP         SCF         [  0]    ***   
       HF2_FILE             IHF2Fl         USE         [  1]    ***   
       HFSTABILITY          ISTABL         OFF         [  0]    ***   
       INCORE               INCORE         OFF         [  0]    ***   
       INPUT_MRCC           IMRCC          ON          [  1]    ***   
       INTEGRALS            INTTYP         VMOL        [  1]    ***   
       JODA_PRINT           IJPRNT              0               ***   
       KEYWORD_OUT          IDMPKW         NO          [  0]    ***   
       LINDEP_TOL           ILINDP              8               ***   
       LINEQ_CONV           IZTACN          10D-  7           cycles  
       LINEQ_EXPOR          ILMAXD              5               ***   
       LINEQ_MAXCY          ILMAXC            100               ***   
       LINEQ_TYPE           ILTYPE         DIIS        [  1]    ***   
       LOCK_ORBOCC          ILOCOC         OFF         [  0]    ***   
       MEMORY_SIZE          IMEMSZ         500000000           words  
       MEM_UNIT             IMEMU          INTEGERWORDS[  0]    ***   
       MRCC                 IMRCCC         OFF         [  0]    ***   
       MULTIPLICTY          IMULTP              1               ***   
       NACOUPLING           IVCOUP         OFF         [  0]    ***   
       NEGEVAL              IDIE           ABORT       [  0]    ***   
       NEWNORM              INEWNO         OFF         [  0]    ***   
       NON-HF               INONHF         OFF         [  0]    ***   
       NTOP_TAMP            ITOPT2             15               ***   
       NUC_MODEL            INUCMO         POINT       [  0]    ***   
       OCCUPATION           IOCCU   ESTIMATED BY SCF 
       OPEN-SHELL           IOPEN          SPIN-ORBITAL[  0]    ***   
       OPTVIB               IOPTVB         OFF         [  0]    ***   
       ORBITALS             IORBTP         STANDARD    [  0]    ***   
       PARALLEL             IPARAL         ON          [  1]    ***   
       PARA_INT             IPINTS         ON          [  1]    ***   
       PARA_PRINT           IPPRIN              0               ***   
       PERT_ORB             IPTORB         STANDARD    [  0]    ***   
       POINTS               IGRDFD              0               ***   
       PRINT                IPRNT               0               ***   
       PROPS                IPROPS         OFF         [  0]    ***   
       PROP_INTEGR          IINTYP         INTERNAL    [  0]    ***   
       PSI                  IPSI           OFF         [  0]    ***   
       QC_ALG               IQCALG         FLM         [  0]    ***   
       QC_LINALG            IQCLIN         TRIDIAG     [  2]    ***   
       QC_MAXCYC            IQCMAX          10D-100           cycles  
       QC_MAXSCFCY          IQCMSC          10D- 15           cycles  
       QC_RTRUST            IQCRTR          10D-  0           x 10-3  
       QC_SKIPSCF           IQCSKI         OFF         [  0]    ***   
       QC_START             IQCSTA          10D-  1             ***   
       QRHFGUESS            IQGUES         OFF         [  0]    ***   
       QUARTIC              IQUART         OFF         [  0]    ***   
       RAMAN_INT            IRAMIN         OFF         [  0]    ***   
       RAMAN_ORB            IRAMRE         UNRELAXED   [  0]    ***   
       RDO                  IRDOFM         ON          [  1]    ***   
       REDUCE_REPR          REDREP         Ir          [  0]    ***   
       REFERENCE            IREFNC         RHF         [  0]    ***   
       RELATIVIST           IRELAT         OFF         [  0]    ***   
       RELAX_DENS           IRDENS         ON          [  1]    ***   
       RESET_FLAGS          IRESET         OFF         [  0]    ***   
       RESTART_CC           ICCRES         OFF         [  0]    ***   
       ROT_EVEC             ROTVEC              0               ***   
       SAVE_INTS            ISVINT         OFF         [  0]    ***   
       SCALE_ON             ISTCRT              0               ***   
       SCF_CONV             ISCFCV          10D- 10             ***   
       SCF_DAMPING          IDAMP               0             x 10-3  
       SCF_EXPORDE          IRPPOR              6               ***   
       SCF_EXPSTAR          IRPPLS              8               ***   
       SCF_EXTRAPO          IRPP           ON          [  1]    ***   
       SCF_MAXCYC           ISCFCY            150              cycles 
       SCF_NOSTOP           ISCFST         OFF         [  0]    ***   
       SCF_PRINT            ISCFPR              0               ***   
       SCF_PROG             ISCFPR         SCF         [  0]    ***   
       SD_FIELD             IFINSD              0             x 10-6  
       SOPERT               IPERSO         OFF         [  0]    ***   
       SPHERICAL            IDFGHI         ON          [  1]    ***   
       SPINORBIT            ISOCAL         OFF         [  0]    ***   
       SPINROTATIO          ISRCON         OFF         [  0]    ***   
       SPIN_FLIP            ISPFLP         OFF         [  0]    ***   
       SPIN_ORBIT           ISPORB         OFF         [  0]    ***   
       SPIN_SCAL            ISCSMP         OFF         [  0]    ***   
       STEEPSCALE           ISTPSC              1000          x 10-3  
       SUBGROUP             ISUBGP         DEFAULT     [  0]    ***   
       SUBGRPAXIS           ISBXYZ         X           [  0]    ***   
       SYMMETRY             ISYM           ON          [  0]    ***   
       SYM_CHECK            ISYMCK         OVERRIDE    [  1]    ***   
       T3_EXTRAPOL          IT3EXT         OFF         [  0]    ***   
       T4_EXTRAPOL          IT4EXP         OFF         [  0]    ***   
       TAMP_SUM             IEVERY              5               ***   
       TESTSUITE            ITESTS         OFF         [  0]    ***   
       THERMOCH             ITHERM         OFF         [  0]    ***   
       TOL_CHOLESK          ITOLCH          10D-  4             ***   
       TRANGRAD             IRESRM         OFF         [  0]    ***   
       TRANS_INV            ITRAIN         IGNORE      [  1]    ***   
       TREAT_PERT           ITREAT         SIMULTANEOUS[  0]    ***   
       TRIP_ALGORI          ITRALG         NORMAL      [  0]    ***   
       UIJ_THRESHO          IUIJTH              1               ***   
       UNITS                IUNITS         ANGSTROM    [  0]    ***   
       UNOS                 IUNOS          OFF         [  0]    ***   
       UPDATE_HESS          IHUPDT         ON          [  1]    ***   
       VIBPHASE             ISETPH         STANDARD    [  0]    ***   
       VIBRATION            IVIB           ANALYTIC    [  1]    ***   
       VIB_ALGORIT          IGEALG         STANDARD    [  0]    ***   
       VNATORB              IVNORB         OFF         [  0]    ***   
       VTRAN                IVTRAN         FULL/PARTIAL[  0]    ***   
       XFIELD               IXEFLD              0             x 10-6  
       XFORM_TOL            IXFTOL          10D- 11             ***   
       YFIELD               IYEFLD              0             x 10-6  
       ZFIELD               IZEFLD            ***             x 10-6  
       ZSCALE_EXP           IZEXPS         OFF         [  0]    ***   
    -------------------------------------------------------------------
   2 entries found in Z-matrix 
   Job Title : Carbon Monoxide DBOC calculation                                                
   There are  1 unique internal coordinates.
   Of these,  0 will be optimized.
   User supplied Z-matrix: 
--------------------------------------------------------------------------------
       SYMBOL    BOND      LENGTH    ANGLE     ANGLE     DIHED     ANGLE
                  TO      (ANGST)    WRT      (DEG)      WRT      (DEG)
--------------------------------------------------------------------------------
        C    
        O          1         r    
                  *Initial values for internal coordinates* 
                      Name             Value
                        r               0.9000000000
--------------------------------------------------------------------------------
  read isotopes from ZMAT file 
   Rotational constants (in cm-1): 
          2.9016583601             2.9016583601
   Rotational constants (in MHz): 
      86989.5413907692         86989.5413907692
********************************************************************************
   The full molecular point group is CXv .
   The largest Abelian subgroup of the full molecular point group is C2v .
   The computational point group is C2v .
********************************************************************************
--------------------------------------------------------------------------------
   Analysis of internal coordinates specified by Z-matrix 
--------------------------------------------------------------------------------
   *The nuclear repulsion energy is   28.222778666666663 a.u.
   *There is   1 degree of freedom within the tot. symm. molecular subspace.
   *Z-matrix requests optimization of   0 coordinates.
   *The optimization is constrained.
   *The following   1 parameters can have non-zero 
    derivatives within the totally symmetric subspace:
             r    [ 1]
   *The following   0 parameters are to be optimized:

   *The following coordinates must be varied in an  unconstrained optimization.
             r    [ 1]
--------------------------------------------------------------------------------


 ----------------------------------------------------------------
         Coordinates used in calculation (QCOMP) 
 ----------------------------------------------------------------
 Z-matrix   Atomic            Coordinates (in bohr)
  Symbol    Number           X              Y              Z
 ----------------------------------------------------------------
     C         6        -0.00000000     0.00000000     0.93810470
     O         8         0.00000000     0.00000000    -0.76264917
 ----------------------------------------------------------------
 
   Interatomic distance matrix (Angstroms) 
 
                 C             O    
                [ 1]        [ 2]
  C    [ 1]     0.00000
  O    [ 2]     0.90000     0.00000
 rotcon2
   Rotational constants (in cm-1): 
          2.9016583601             0.0000000000
   Rotational constants (in MHz): 
      86989.5413907692             0.0000000000
  ECPDATA file not present.   Using default ECPDATA. 
  @GTFLGS-I, Hessian will be transformed to curvilinear coordinates.
  There are  218 basis functions.
 @CHECKOUT-I, Total execution time (CPU/WALL):        0.10/       0.14 seconds.
--executable xjoda finished with status     0 in        0.15 seconds (walltime).
 --invoking executable--
/nfs/workspaces/public/cfour_mpi/bin/xvmol
 SERIAL VERSION OF MOLECULE STARTED
********************************************************************************
                    INPUT FROM MOL FILE
********************************************************************************
INTGRL        1    0    1    0    0    0    0    0    0                         
         *** CFOUR Program System (Release V0.1) ***                            
Carbon Monoxide DBOC calculation                                                
    2    2 X  Y       0.10E-08              0    0                              
   9999.00      3.00                                                            
          6.00000000    1    5    1    1    1    1    1                         
C #1  -0.000000000000000   0.000000000000000   0.938104702288875                
   16    9                                                                      
   33980.0000000000       9.100000000000000E-005 -1.900000000000000E-005        
  0.000000000000000E+000  0.000000000000000E+000  0.000000000000000E+000        
  0.000000000000000E+000  0.000000000000000E+000  0.000000000000000E+000        
  0.000000000000000E+000                                                        
   5089.00000000000       7.040000000000000E-004 -1.510000000000000E-004        
  0.000000000000000E+000  0.000000000000000E+000  0.000000000000000E+000        
  0.000000000000000E+000  0.000000000000000E+000  0.000000000000000E+000        
  0.000000000000000E+000                                                        
   1157.00000000000       3.693000000000000E-003 -7.850000000000000E-004        
  0.000000000000000E+000  0.000000000000000E+000  0.000000000000000E+000        
  0.000000000000000E+000  0.000000000000000E+000  0.000000000000000E+000        
  0.000000000000000E+000                                                        
   326.600000000000       1.536000000000000E-002 -3.324000000000000E-003        
  0.000000000000000E+000  0.000000000000000E+000  0.000000000000000E+000        
  0.000000000000000E+000  0.000000000000000E+000  0.000000000000000E+000        
  0.000000000000000E+000                                                        
   106.100000000000       5.292900000000000E-002 -1.151200000000000E-002        
  0.000000000000000E+000  0.000000000000000E+000  0.000000000000000E+000        
  0.000000000000000E+000  0.000000000000000E+000  0.000000000000000E+000        
  0.000000000000000E+000                                                        
   38.1100000000000       0.147043000000000      -3.416000000000000E-002        
  0.000000000000000E+000  0.000000000000000E+000  0.000000000000000E+000        
  0.000000000000000E+000  0.000000000000000E+000  0.000000000000000E+000        
  0.000000000000000E+000                                                        
   14.7500000000000       0.305631000000000      -7.717300000000001E-002        
  0.000000000000000E+000  0.000000000000000E+000  0.000000000000000E+000        
  0.000000000000000E+000  0.000000000000000E+000  0.000000000000000E+000        
  0.000000000000000E+000                                                        
   6.03500000000000       0.399345000000000      -0.141493000000000             
  0.000000000000000E+000  0.000000000000000E+000  0.000000000000000E+000        
  0.000000000000000E+000  0.000000000000000E+000  0.000000000000000E+000        
  0.000000000000000E+000                                                        
   2.53000000000000       0.217051000000000      -0.118019000000000             
  0.000000000000000E+000  0.000000000000000E+000  0.000000000000000E+000        
  0.000000000000000E+000  0.000000000000000E+000  0.000000000000000E+000        
  0.000000000000000E+000                                                        
  0.735500000000000       1.589400000000000E-002  0.273806000000000             
   1.00000000000000       0.000000000000000E+000  0.000000000000000E+000        
  0.000000000000000E+000  0.000000000000000E+000  0.000000000000000E+000        
  0.000000000000000E+000                                                        
  0.290500000000000      -3.084000000000000E-003  0.586510000000000             
  0.000000000000000E+000   1.00000000000000       0.000000000000000E+000        
  0.000000000000000E+000  0.000000000000000E+000  0.000000000000000E+000        
  0.000000000000000E+000                                                        
  0.111100000000000       9.779999999999999E-004  0.285430000000000             
  0.000000000000000E+000  0.000000000000000E+000   1.00000000000000             
  0.000000000000000E+000  0.000000000000000E+000  0.000000000000000E+000        
  0.000000000000000E+000                                                        
   7.21600000000000       0.000000000000000E+000  0.000000000000000E+000        
  0.000000000000000E+000  0.000000000000000E+000  0.000000000000000E+000        
   1.00000000000000       0.000000000000000E+000  0.000000000000000E+000        
  0.000000000000000E+000                                                        
   19.5700000000000       0.000000000000000E+000  0.000000000000000E+000        
  0.000000000000000E+000  0.000000000000000E+000  0.000000000000000E+000        
  0.000000000000000E+000   1.00000000000000       0.000000000000000E+000        
  0.000000000000000E+000                                                        
   53.0730000000000       0.000000000000000E+000  0.000000000000000E+000        
  0.000000000000000E+000  0.000000000000000E+000  0.000000000000000E+000        
  0.000000000000000E+000  0.000000000000000E+000   1.00000000000000             
  0.000000000000000E+000                                                        
  4.145000000000000E-002  0.000000000000000E+000  0.000000000000000E+000        
  0.000000000000000E+000  0.000000000000000E+000  0.000000000000000E+000        
  0.000000000000000E+000  0.000000000000000E+000  0.000000000000000E+000        
   1.00000000000000                                                             
   10    8                                                                      
   34.5100000000000       5.378000000000000E-003  0.000000000000000E+000        
  0.000000000000000E+000  0.000000000000000E+000  0.000000000000000E+000        
  0.000000000000000E+000  0.000000000000000E+000  0.000000000000000E+000        
   7.91500000000000       3.613200000000000E-002  0.000000000000000E+000        
  0.000000000000000E+000  0.000000000000000E+000  0.000000000000000E+000        
  0.000000000000000E+000  0.000000000000000E+000  0.000000000000000E+000        
   2.36800000000000       0.142493000000000       0.000000000000000E+000        
  0.000000000000000E+000  0.000000000000000E+000  0.000000000000000E+000        
  0.000000000000000E+000  0.000000000000000E+000  0.000000000000000E+000        
  0.813200000000000       0.342150000000000        1.00000000000000             
  0.000000000000000E+000  0.000000000000000E+000  0.000000000000000E+000        
  0.000000000000000E+000  0.000000000000000E+000  0.000000000000000E+000        
  0.289000000000000       0.463864000000000       0.000000000000000E+000        
   1.00000000000000       0.000000000000000E+000  0.000000000000000E+000        
  0.000000000000000E+000  0.000000000000000E+000  0.000000000000000E+000        
  0.100700000000000       0.250028000000000       0.000000000000000E+000        
  0.000000000000000E+000   1.00000000000000       0.000000000000000E+000        
  0.000000000000000E+000  0.000000000000000E+000  0.000000000000000E+000        
   8.18200000000000       0.000000000000000E+000  0.000000000000000E+000        
  0.000000000000000E+000  0.000000000000000E+000   1.00000000000000             
  0.000000000000000E+000  0.000000000000000E+000  0.000000000000000E+000        
   24.1860000000000       0.000000000000000E+000  0.000000000000000E+000        
  0.000000000000000E+000  0.000000000000000E+000  0.000000000000000E+000        
   1.00000000000000       0.000000000000000E+000  0.000000000000000E+000        
   71.4940000000000       0.000000000000000E+000  0.000000000000000E+000        
  0.000000000000000E+000  0.000000000000000E+000  0.000000000000000E+000        
  0.000000000000000E+000   1.00000000000000       0.000000000000000E+000        
  3.218000000000000E-002  0.000000000000000E+000  0.000000000000000E+000        
  0.000000000000000E+000  0.000000000000000E+000  0.000000000000000E+000        
  0.000000000000000E+000  0.000000000000000E+000   1.00000000000000             
    6    6                                                                      
   1.84800000000000        1.00000000000000       0.000000000000000E+000        
  0.000000000000000E+000  0.000000000000000E+000  0.000000000000000E+000        
  0.000000000000000E+000                                                        
  0.649000000000000       0.000000000000000E+000   1.00000000000000             
  0.000000000000000E+000  0.000000000000000E+000  0.000000000000000E+000        
  0.000000000000000E+000                                                        
  0.228000000000000       0.000000000000000E+000  0.000000000000000E+000        
   1.00000000000000       0.000000000000000E+000  0.000000000000000E+000        
  0.000000000000000E+000                                                        
   8.65600000000000       0.000000000000000E+000  0.000000000000000E+000        
  0.000000000000000E+000   1.00000000000000       0.000000000000000E+000        
  0.000000000000000E+000                                                        
   33.2130000000000       0.000000000000000E+000  0.000000000000000E+000        
  0.000000000000000E+000  0.000000000000000E+000   1.00000000000000             
  0.000000000000000E+000                                                        
  7.660000000000000E-002  0.000000000000000E+000  0.000000000000000E+000        
  0.000000000000000E+000  0.000000000000000E+000  0.000000000000000E+000        
   1.00000000000000                                                             
    4    4                                                                      
   1.41900000000000        1.00000000000000       0.000000000000000E+000        
  0.000000000000000E+000  0.000000000000000E+000                                
  0.485000000000000       0.000000000000000E+000   1.00000000000000             
  0.000000000000000E+000  0.000000000000000E+000                                
   24.6940000000000       0.000000000000000E+000  0.000000000000000E+000        
   1.00000000000000       0.000000000000000E+000                                
  0.187000000000000       0.000000000000000E+000  0.000000000000000E+000        
  0.000000000000000E+000   1.00000000000000                                     
    2    2                                                                      
   1.01100000000000        1.00000000000000       0.000000000000000E+000        
  0.424000000000000       0.000000000000000E+000   1.00000000000000             
          8.00000000    1    5    1    1    1    1    1                         
O #2   0.000000000000000   0.000000000000000  -0.762649166312015                
   16    9                                                                      
   61420.0000000000       9.000000000000001E-005 -2.000000000000000E-005        
  0.000000000000000E+000  0.000000000000000E+000  0.000000000000000E+000        
  0.000000000000000E+000  0.000000000000000E+000  0.000000000000000E+000        
  0.000000000000000E+000                                                        
   9199.00000000000       6.980000000000001E-004 -1.590000000000000E-004        
  0.000000000000000E+000  0.000000000000000E+000  0.000000000000000E+000        
  0.000000000000000E+000  0.000000000000000E+000  0.000000000000000E+000        
  0.000000000000000E+000                                                        
   2091.00000000000       3.664000000000000E-003 -8.290000000000000E-004        
  0.000000000000000E+000  0.000000000000000E+000  0.000000000000000E+000        
  0.000000000000000E+000  0.000000000000000E+000  0.000000000000000E+000        
  0.000000000000000E+000                                                        
   590.900000000000       1.521800000000000E-002 -3.508000000000000E-003        
  0.000000000000000E+000  0.000000000000000E+000  0.000000000000000E+000        
  0.000000000000000E+000  0.000000000000000E+000  0.000000000000000E+000        
  0.000000000000000E+000                                                        
   192.300000000000       5.242300000000000E-002 -1.215600000000000E-002        
  0.000000000000000E+000  0.000000000000000E+000  0.000000000000000E+000        
  0.000000000000000E+000  0.000000000000000E+000  0.000000000000000E+000        
  0.000000000000000E+000                                                        
   69.3200000000000       0.145921000000000      -3.626100000000000E-002        
  0.000000000000000E+000  0.000000000000000E+000  0.000000000000000E+000        
  0.000000000000000E+000  0.000000000000000E+000  0.000000000000000E+000        
  0.000000000000000E+000                                                        
   26.9700000000000       0.305258000000000      -8.299200000000000E-002        
  0.000000000000000E+000  0.000000000000000E+000  0.000000000000000E+000        
  0.000000000000000E+000  0.000000000000000E+000  0.000000000000000E+000        
  0.000000000000000E+000                                                        
   11.1000000000000       0.398508000000000      -0.152090000000000             
  0.000000000000000E+000  0.000000000000000E+000  0.000000000000000E+000        
  0.000000000000000E+000  0.000000000000000E+000  0.000000000000000E+000        
  0.000000000000000E+000                                                        
   4.68200000000000       0.216980000000000      -0.115331000000000             
  0.000000000000000E+000  0.000000000000000E+000  0.000000000000000E+000        
  0.000000000000000E+000  0.000000000000000E+000  0.000000000000000E+000        
  0.000000000000000E+000                                                        
   1.42800000000000       1.759400000000000E-002  0.288979000000000             
   1.00000000000000       0.000000000000000E+000  0.000000000000000E+000        
  0.000000000000000E+000  0.000000000000000E+000  0.000000000000000E+000        
  0.000000000000000E+000                                                        
  0.554700000000000      -2.502000000000000E-003  0.586128000000000             
  0.000000000000000E+000   1.00000000000000       0.000000000000000E+000        
  0.000000000000000E+000  0.000000000000000E+000  0.000000000000000E+000        
  0.000000000000000E+000                                                        
  0.206700000000000       9.540000000000000E-004  0.277624000000000             
  0.000000000000000E+000  0.000000000000000E+000   1.00000000000000             
  0.000000000000000E+000  0.000000000000000E+000  0.000000000000000E+000        
  0.000000000000000E+000                                                        
   12.9740000000000       0.000000000000000E+000  0.000000000000000E+000        
  0.000000000000000E+000  0.000000000000000E+000  0.000000000000000E+000        
   1.00000000000000       0.000000000000000E+000  0.000000000000000E+000        
  0.000000000000000E+000                                                        
   34.9000000000000       0.000000000000000E+000  0.000000000000000E+000        
  0.000000000000000E+000  0.000000000000000E+000  0.000000000000000E+000        
  0.000000000000000E+000   1.00000000000000       0.000000000000000E+000        
  0.000000000000000E+000                                                        
   93.8810000000000       0.000000000000000E+000  0.000000000000000E+000        
  0.000000000000000E+000  0.000000000000000E+000  0.000000000000000E+000        
  0.000000000000000E+000  0.000000000000000E+000   1.00000000000000             
  0.000000000000000E+000                                                        
  6.959000000000000E-002  0.000000000000000E+000  0.000000000000000E+000        
  0.000000000000000E+000  0.000000000000000E+000  0.000000000000000E+000        
  0.000000000000000E+000  0.000000000000000E+000  0.000000000000000E+000        
   1.00000000000000                                                             
   10    8                                                                      
   63.4200000000000       6.044000000000000E-003  0.000000000000000E+000        
  0.000000000000000E+000  0.000000000000000E+000  0.000000000000000E+000        
  0.000000000000000E+000  0.000000000000000E+000  0.000000000000000E+000        
   14.6600000000000       4.179900000000000E-002  0.000000000000000E+000        
  0.000000000000000E+000  0.000000000000000E+000  0.000000000000000E+000        
  0.000000000000000E+000  0.000000000000000E+000  0.000000000000000E+000        
   4.45900000000000       0.161143000000000       0.000000000000000E+000        
  0.000000000000000E+000  0.000000000000000E+000  0.000000000000000E+000        
  0.000000000000000E+000  0.000000000000000E+000  0.000000000000000E+000        
   1.53100000000000       0.356731000000000        1.00000000000000             
  0.000000000000000E+000  0.000000000000000E+000  0.000000000000000E+000        
  0.000000000000000E+000  0.000000000000000E+000  0.000000000000000E+000        
  0.530200000000000       0.448309000000000       0.000000000000000E+000        
   1.00000000000000       0.000000000000000E+000  0.000000000000000E+000        
  0.000000000000000E+000  0.000000000000000E+000  0.000000000000000E+000        
  0.175000000000000       0.244940000000000       0.000000000000000E+000        
  0.000000000000000E+000   1.00000000000000       0.000000000000000E+000        
  0.000000000000000E+000  0.000000000000000E+000  0.000000000000000E+000        
   14.4750000000000       0.000000000000000E+000  0.000000000000000E+000        
  0.000000000000000E+000  0.000000000000000E+000   1.00000000000000             
  0.000000000000000E+000  0.000000000000000E+000  0.000000000000000E+000        
   42.7300000000000       0.000000000000000E+000  0.000000000000000E+000        
  0.000000000000000E+000  0.000000000000000E+000  0.000000000000000E+000        
   1.00000000000000       0.000000000000000E+000  0.000000000000000E+000        
   126.140000000000       0.000000000000000E+000  0.000000000000000E+000        
  0.000000000000000E+000  0.000000000000000E+000  0.000000000000000E+000        
  0.000000000000000E+000   1.00000000000000       0.000000000000000E+000        
  5.348000000000000E-002  0.000000000000000E+000  0.000000000000000E+000        
  0.000000000000000E+000  0.000000000000000E+000  0.000000000000000E+000        
  0.000000000000000E+000  0.000000000000000E+000   1.00000000000000             
    6    6                                                                      
   3.77500000000000        1.00000000000000       0.000000000000000E+000        
  0.000000000000000E+000  0.000000000000000E+000  0.000000000000000E+000        
  0.000000000000000E+000                                                        
   1.30000000000000       0.000000000000000E+000   1.00000000000000             
  0.000000000000000E+000  0.000000000000000E+000  0.000000000000000E+000        
  0.000000000000000E+000                                                        
  0.444000000000000       0.000000000000000E+000  0.000000000000000E+000        
   1.00000000000000       0.000000000000000E+000  0.000000000000000E+000        
  0.000000000000000E+000                                                        
   14.9270000000000       0.000000000000000E+000  0.000000000000000E+000        
  0.000000000000000E+000   1.00000000000000       0.000000000000000E+000        
  0.000000000000000E+000                                                        
   57.5440000000000       0.000000000000000E+000  0.000000000000000E+000        
  0.000000000000000E+000  0.000000000000000E+000   1.00000000000000             
  0.000000000000000E+000                                                        
  0.154000000000000       0.000000000000000E+000  0.000000000000000E+000        
  0.000000000000000E+000  0.000000000000000E+000  0.000000000000000E+000        
   1.00000000000000                                                             
    4    4                                                                      
   2.66600000000000        1.00000000000000       0.000000000000000E+000        
  0.000000000000000E+000  0.000000000000000E+000                                
  0.859000000000000       0.000000000000000E+000   1.00000000000000             
  0.000000000000000E+000  0.000000000000000E+000                                
   26.4830000000000       0.000000000000000E+000  0.000000000000000E+000        
   1.00000000000000       0.000000000000000E+000                                
  0.324000000000000       0.000000000000000E+000  0.000000000000000E+000        
  0.000000000000000E+000   1.00000000000000                                     
    2    2                                                                      
   1.84600000000000        1.00000000000000       0.000000000000000E+000        
  0.714000000000000       0.000000000000000E+000   1.00000000000000             
FINISH                                                                          
 
********************************************************************************
 ONE- AND TWO-ELECTRON INTEGRALS OVER SYMMETRY-ADAPTED AOS ARE CALCULATED.

  SPHERICAL HARMONICS ARE USED.
  
  INTEGRALS LESS THAN  0.10E-13 ARE NEGLECTED.

  NUCLEAR REPULSION ENERGY :   28.2227786667 A.U.
  @MOLECU-I, ONE ELECTRON INTEGRALS (CPU/WALL):        0.05/       0.06 SECONDS.
  @TWOEL-I,    4727719 INTEGRALS OF SYMMETRY TYPE  I I I I
  @TWOEL-I,   20231470 INTEGRALS OF SYMMETRY TYPE  I J I J
  @TWOEL-I,   10661887 INTEGRALS OF SYMMETRY TYPE  I I J J
  @TWOEL-I,   14932378 INTEGRALS OF SYMMETRY TYPE  I J K L
  @TWOEL-I, TOTAL NUMBER OF 2-E INTEGRALS   50553454.
  @MOLECU-I, TWO ELECTRON INTEGRALS (CPU/WALL):      183.10/      26.04 SECONDS.
 @CHECKOUT-I, Total execution time (CPU/WALL):      183.17/      26.10 seconds.

Running with 14 threads/proc

--executable xvmol finished with status     0 in       26.12 seconds (walltime).
 --invoking executable--
/nfs/workspaces/public/cfour_mpi/bin/xvmol2ja
 @GETMEM-I,  Allocated    3814 MB of main memory.
 @CHECKOUT-I, Total execution time (CPU/WALL):        0.10/       0.04 seconds.
--executable xvmol2ja finished with status     0 in        0.06 seconds (walltime).
 --invoking executable--
/nfs/workspaces/public/cfour_mpi/bin/xvprop
 @GETMEM-I,  Allocated    3814 MB of main memory.
   Property integrals will be calculated.
    --------------------------------------------------------------
                                   Property evaluated at 
    Property type                X             Y             Z
    --------------------------------------------------------------
    Dipole moment               ----          ----          ----  
    Quadrupole moment           ----          ----          ----  
    Octopole moment             ----          ----          ----  
    Relativisitic corr.         ----          ----          ----  
    Second moment            0.0000000     0.0000000     0.0000000
    Electron density         0.0000000     0.0000000     0.9381047
    Electron density         0.0000000     0.0000000    -0.7626492
    Field gradient           0.0000000     0.0000000     0.9381047
    Field gradient           0.0000000     0.0000000    -0.7626492
    Potential                0.0000000     0.0000000     0.9381047
    Potential                0.0000000     0.0000000    -0.7626492
    --------------------------------------------------------------
 @CHECKOUT-I, Total execution time (CPU/WALL):        1.33/       1.35 seconds.
--executable xvprop finished with status     0 in        1.36 seconds (walltime).
 --invoking executable--
/nfs/workspaces/public/cfour_mpi/bin/xvscf
  There are  218 functions in the AO basis.

  There are 4 irreducible representations.

       Irrep        # of functions
         1                 86
         2                 52
         3                 52
         4                 28


  Parameters for SCF calculation: 
        SCF reference function:  RHF  
  Maximum number of iterations:  150
     Full symmetry point group: CXv 
     Computational point group: C2v 
        Initial density matrix: MOREAD                 
     SCF convergence tolerance: 10**(-10)
  DIIS convergence acceleration:  ON
          Latest start for DIIS:   8
                     DIIS order:   6

  Memory information:    2523578 words required.
  Fock matrices are constructed from AO integral file.
 @GETMEM-I,  Allocated      19 MB of main memory.
  Initialization and symmetry analysis required      0.001 seconds.

  Adding electric field perturbation to one-electron Hamiltonian.
  Field direction     : Z
  Field strength      : -0.0002000 a.u.

  @INITGES-I, Occupancies from core Hamiltonian:

          Alpha population by irrep:   5    1    1    0
           Beta population by irrep:   5    1    1    0


 total no. of electrons in initial guess :  0.000000000000000E+000
  --------------------------------------------------------------------
  Iteration         Total Energy            Largest Density Difference
  --------------------------------------------------------------------
       0            28.222684153643549              0.0000000000D+00
   current occupation vector 
     5  1  1  0
     5  1  1  0
       1           -89.258907404974508              0.2118115317D+02
   current occupation vector 
     5  1  1  0
     5  1  1  0
       2           -91.034408053565670              0.1339788700D+03
   current occupation vector 
     5  1  1  0
     5  1  1  0
       3          -104.257353142511704              0.1340024724D+03
   current occupation vector 
     4  2  1  0
     4  2  1  0
       4          -101.962195255736788              0.2138989858D+02
   current occupation vector 
     5  1  1  0
     5  1  1  0
       5          -106.516574709247095              0.2138848031D+02
   current occupation vector 
     4  2  1  0
     4  2  1  0
       6          -103.951235521403049              0.1614802073D+02
   current occupation vector 
     5  1  1  0
     5  1  1  0
       7          -106.889170426699138              0.1614742441D+02
   current occupation vector 
     4  2  1  0
     4  2  1  0
       8          -104.416380680162177              0.1339088378D+02
   current occupation vector 
     5  1  1  0
     5  1  1  0
       9          -111.931500874988046              0.1339800932D+02
   current occupation vector 
     5  1  1  0
     5  1  1  0
      10          -112.514083115587852              0.7543927282D+00
   current occupation vector 
     5  1  1  0
     5  1  1  0
      11          -112.608241711475017              0.2662380280D+00
   current occupation vector 
     5  1  1  0
     5  1  1  0
      12          -112.609491445899351              0.3166375370D-01
   current occupation vector 
     5  1  1  0
     5  1  1  0
      13          -112.609519734241161              0.5610040292D-02
   current occupation vector 
     5  1  1  0
     5  1  1  0
      14          -112.609521424809685              0.1774488631D-02
   current occupation vector 
     5  1  1  0
     5  1  1  0
      15          -112.609521525778291              0.4586376772D-03
   current occupation vector 
     5  1  1  0
     5  1  1  0
      16          -112.609521538286799              0.1531707509D-03
   current occupation vector 
     5  1  1  0
     5  1  1  0
      17          -112.609521539229888              0.5227460248D-04
   current occupation vector 
     5  1  1  0
     5  1  1  0
      18          -112.609521539254587              0.7385933416D-05
   current occupation vector 
     5  1  1  0
     5  1  1  0
      19          -112.609521539254956              0.9103566481D-06
   current occupation vector 
     5  1  1  0
     5  1  1  0
      20          -112.609521539254416              0.1657582329D-06
   current occupation vector 
     5  1  1  0
     5  1  1  0
      21          -112.609521539255155              0.3752736522D-07
   current occupation vector 
     5  1  1  0
     5  1  1  0
      22          -112.609521539255439              0.6196367530D-08
   current occupation vector 
     5  1  1  0
     5  1  1  0
      23          -112.609521539254615              0.1259982563D-08
   current occupation vector 
     5  1  1  0
     5  1  1  0
      24          -112.609521539254899              0.2285811540D-09
   current occupation vector 
     5  1  1  0
     5  1  1  0
      25          -112.609521539253791              0.2416579159D-09
   current occupation vector 
     5  1  1  0
     5  1  1  0

  SCF has converged.

 Density matrix saved to file den.dat
 total electron number:   14.0000000000002     
     E(SCF)=      -112.609521539254672              0.7147771264D-10

  Eigenvector printing suppressed.

 @PUTMOS-I, Writing converged MOs to NEWMOS. 
 @PUTMOS-I, Symmetry   1 Full Blocks 21 Partial Blocksize   2
 @PUTMOS-I, Symmetry   2 Full Blocks 13 Partial Blocksize   0
 @PUTMOS-I, Symmetry   3 Full Blocks 13 Partial Blocksize   0
 @PUTMOS-I, Symmetry   4 Full Blocks  7 Partial Blocksize   0
 @PUTFOCK-I, Writing converged Fock matrix to NEWFOCK. 
 @PUTFOCK-I, Symmetry   1 Full Blocks 21 Partial Blocksize   2
 @PUTFOCK-I, Symmetry   2 Full Blocks 13 Partial Blocksize   0
 @PUTFOCK-I, Symmetry   3 Full Blocks 13 Partial Blocksize   0
 @PUTFOCK-I, Symmetry   4 Full Blocks  7 Partial Blocksize   0


 
  ORBITAL EIGENVALUES (ALPHA)  (1H = 27.2113834 eV)

       MO #        E(hartree)               E(eV)           FULLSYM    COMPSYM
       ----   --------------------   --------------------   -------   ---------
    1     1         -20.6449060312        -561.7764532709     SG+        A1 (1)
    2     2         -11.2595145178        -306.3869664426     SG+        A1 (1)
    3     3          -1.6800996393         -45.7178354341     SG+        A1 (1)
    4     4          -0.8222184249         -22.3737007994     SG+        A1 (1)
    5    87          -0.7621190626         -20.7383140083      PI        B1 (2)
    6   139          -0.7621190626         -20.7383140079      PI        B2 (3)
    7     5          -0.5202853451         -14.1576840031     SG+        A1 (1)
  +++++++++++++++++++++++++++++++++++++++++++++++++++++++++++++++++++++++++++++
    8     6           0.0564529168           1.5361619627     SG+        A1 (1)
    9    88           0.0642827480           1.7492225012      PI        B1 (2)
   10   140           0.0642827480           1.7492225013      PI        B2 (3)
   11     7           0.0762756770           2.0755666898     SG+        A1 (1)
   12   141           0.1545673494           4.2059914048      PI        B2 (3)
   13    89           0.1545673494           4.2059914048      PI        B1 (2)
   14     8           0.1569662475           4.2712687410     SG+        A1 (1)
   15    90           0.2133159655           5.8046225234      PI        B1 (2)
   16   142           0.2133159655           5.8046225235      PI        B2 (3)
   17   191           0.2263099893           6.1582078854      DE        A2 (4)
   18     9           0.2263099893           6.1582078854      DE        A1 (1)
   19    10           0.2263458372           6.1591833576     SG+        A1 (1)
   20    11           0.3017928829           8.2122018443     SG+        A1 (1)
   21    91           0.3512597847           9.5582646752      PI        B1 (2)
   22   143           0.3512597847           9.5582646752      PI        B2 (3)
   23    12           0.4018543526          10.9350128608     SG+        A1 (1)
   24   144           0.4127525226          11.2315671423      PI        B2 (3)
   25    92           0.4127525226          11.2315671424      PI        B1 (2)
   26    13           0.5076413949          13.8136246273     SG+        A1 (1)
   27   192           0.5165109750          14.0549781697      DE        A2 (4)
   28    14           0.5165109750          14.0549781697      DE        A1 (1)
   29    93           0.6182201817          16.8226263889      PI        B1 (2)
   30   145           0.6182201817          16.8226263890      PI        B2 (3)
   31    15           0.6567613189          17.8713840514     SG+        A1 (1)
   32    94           0.7493838622          20.3917715889      PH        B1 (2)
   33   146           0.7493838622          20.3917715889      PH        B2 (3)
   34    16           0.7680776163          20.9004544975      DE        A1 (1)
   35   193           0.7680776163          20.9004544975      DE        A2 (4)
   36    17           0.8017059982          21.8155292898     SG+        A1 (1)
   37    95           0.8529635504          23.2103181956      PI        B1 (2)
   38   147           0.8529635504          23.2103181956      PI        B2 (3)
   39    96           0.8680645235          23.6212365635      PI        B1 (2)
   40   148           0.8680645235          23.6212365636      PI        B2 (3)
   41    18           0.8817541975          23.9937515319     SG+        A1 (1)
   42    19           0.9141098262          24.8741929500      DE        A1 (1)
   43   194           0.9141098262          24.8741929500      DE        A2 (4)
   44    20           0.9700796486          26.3972092477     SG+        A1 (1)
   45    97           1.1433412296          31.1118965552      PI        B1 (2)
   46   149           1.1433412296          31.1118965553      PI        B2 (3)
   47    21           1.3798886360          37.5486787231     SG+        A1 (1)
   48   150           1.4608975384          39.7530430255      PH        B2 (3)
   49    98           1.4608975384          39.7530430255      PH        B1 (2)
   50   195           1.4939292121          40.6518805640      DE        A2 (4)
   51    22           1.4939292121          40.6518805640      DE        A1 (1)
   52   151           1.5202363439          41.3677340138      PI        B2 (3)
   53    99           1.5202363439          41.3677340138      PI        B1 (2)
   54    23           1.5573452046          42.3775174489     SG+        A1 (1)
   55    24           1.6745363531          45.5664507201     SG+        A1 (1)
   56   196           1.7700316446          48.1650097111      DE        A2 (4)
   57    25           1.7700316446          48.1650097112      DE        A1 (1)
   58    26           1.8025534105          49.0499719521     SG+        A1 (1)
   59   100           1.8447224001          50.1974484947      PI        B1 (2)
   60   152           1.8447224001          50.1974484950      PI        B2 (3)
   61   101           2.0511274981          55.8140167526      PI        B1 (2)
   62   153           2.0511274981          55.8140167526      PI        B2 (3)
   63   197           2.1172166119          57.6123929668      PI        A2 (4)
   64    27           2.1172166119          57.6123929668      PI        A1 (1)
   65    28           2.2490863233          61.2007502439     SG+        A1 (1)
   66    29           2.2515338405          61.2673505722      DE        A1 (1)
   67   198           2.2515338405          61.2673505722      DE        A2 (4)
   68   102           2.2653260274          61.6426550588      PH        B1 (2)
   69   154           2.2653260274          61.6426550588      PH        B2 (3)
   70    30           2.3568438068          64.1329804415     SG+        A1 (1)
   71   103           2.3622568894          64.2802779081      PI        B1 (2)
   72   155           2.3622568895          64.2802779081      PI        B2 (3)
   73   199           2.3990664026          65.2819156845      DE        A2 (4)
   74    31           2.3990664026          65.2819156845      DE        A1 (1)
   75   104           2.4531854052          66.7545686123      PH        B1 (2)
   76   156           2.4531854052          66.7545686123      PH        B2 (3)
   77   105           2.6102478129          71.0284540053      PI        B1 (2)
   78   157           2.6102478129          71.0284540054      PI        B2 (3)
   79    32           2.7079385257          73.6867534452     SG+        A1 (1)
   80   106           3.1090879714          84.6025848146      PI        B1 (2)
   81   158           3.1090879714          84.6025848148      PI        B2 (3)
   82   200           3.1798288434          86.5275418048      DE        A2 (4)
   83    33           3.1798288434          86.5275418052      DE        A1 (1)
   84    34           3.2057535247          87.2329882472     SG+        A1 (1)
   85    35           3.3404020496          90.8969608819     SG+        A1 (1)
   86   107           3.7286378151         101.4613931471      PI        B1 (2)
   87   159           3.7286378151         101.4613931473      PI        B2 (3)
   88   201           3.7919063002         103.1830161513      PI        A2 (4)
   89    36           3.7919063002         103.1830161513      PI        A1 (1)
   90    37           4.0151268968         109.2571573887     SG+        A1 (1)
   91   160           4.0552571674         110.3491575667      PH        B2 (3)
   92   108           4.0552571674         110.3491575667      PH        B1 (2)
   93    38           4.1767165180         113.6542345250      DE        A1 (1)
   94   202           4.1767165180         113.6542345250      DE        A2 (4)
   95   161           4.2274424668         115.0345577661      PI        B2 (3)
   96   109           4.2274424668         115.0345577661      PI        B1 (2)
   97    39           4.3712054259         118.9465467654     SG+        A1 (1)
   98   203           4.4926619869         122.2515478119      DE        A2 (4)
   99    40           4.4926619869         122.2515478120      DE        A1 (1)
  100   162           4.5689441171         124.3272901024      PH        B2 (3)
  101   110           4.5689441171         124.3272901024      PH        B1 (2)
  102    41           4.7610271787         129.5541359380     SG+        A1 (1)
  103   163           4.9766968003         135.4228046993      PI        B2 (3)
  104   111           4.9766968003         135.4228046993      PI        B1 (2)
  105   204           5.2111385997         141.8022903868      DE        A2 (4)
  106    42           5.2111385997         141.8022903871      DE        A1 (1)
  107    43           5.2503026791         142.8679991676     SG+        A1 (1)
  108   164           5.3743053170         146.2422824888      PI        B2 (3)
  109   112           5.3743053170         146.2422824888      PI        B1 (2)
  110   205           5.9373506444         161.5635247638      PI        A2 (4)
  111    44           5.9373506444         161.5635247638      PI        A1 (1)
  112   113           6.0490160682         164.6020954245      PI        B1 (2)
  113   165           6.0490160682         164.6020954247      PI        B2 (3)
  114    45           6.1352356122         166.9482484940     SG+        A1 (1)
  115   166           6.3234147655         172.0688635821      PH        B2 (3)
  116   114           6.3234147655         172.0688635821      PH        B1 (2)
  117    46           6.3634538238         173.1583817477     SG+        A1 (1)
  118   206           6.3649643205         173.1994844536      DE        A2 (4)
  119    47           6.3649643205         173.1994844537      DE        A1 (1)
  120   115           6.4639812288         175.8938715081      PI        B1 (2)
  121   167           6.4639812288         175.8938715083      PI        B2 (3)
  122   168           6.6189343348         180.1103598839      PH        B2 (3)
  123   116           6.6189343348         180.1103598839      PH        B1 (2)
  124   207           6.8309053300         185.8783839026      DE        A2 (4)
  125    48           6.8309053300         185.8783839029      DE        A1 (1)
  126    49           7.2120225609         196.2491109940     SG+        A1 (1)
  127   117           8.0825750784         219.9380493176      PI        B1 (2)
  128   169           8.0825750784         219.9380493178      PI        B2 (3)
  129   208           8.3489505297         227.1864938514      DE        A2 (4)
  130    50           8.3489505297         227.1864938519      DE        A1 (1)
  131    51           8.7649734694         238.5070535672     SG+        A1 (1)
  132    52           8.9944495693         244.7514157028     SG+        A1 (1)
  133   170           9.0724319268         246.8734235308      PI        B2 (3)
  134   118           9.0724319268         246.8734235310      PI        B1 (2)
  135    53          10.0232452242         272.7463687083     SG+        A1 (1)
  136   171          10.2804529086         279.7453456203      PI        B2 (3)
  137   119          10.2804529086         279.7453456204      PI        B1 (2)
  138   209          10.6147492570         288.8420117275      PI        A2 (4)
  139    54          10.6147492570         288.8420117275      PI        A1 (1)
  140   172          11.1163860735         302.4922434692      PH        B2 (3)
  141   120          11.1163860735         302.4922434692      PH        B1 (2)
  142    55          11.4046475734         310.3362376623      DE        A1 (1)
  143   210          11.4046475734         310.3362376624      DE        A2 (4)
  144    56          11.4355820691         311.1780080857     SG+        A1 (1)
  145   173          11.5170446526         313.3947176775      PI        B2 (3)
  146   121          11.5170446526         313.3947176776      PI        B1 (2)
  147   174          11.8934983470         323.6385434877      PH        B2 (3)
  148   122          11.8934983470         323.6385434877      PH        B1 (2)
  149    57          12.5332946571         341.0482861796      DE        A1 (1)
  150   211          12.5332946571         341.0482861804      DE        A2 (4)
  151    58          13.2266678762         359.9159306848     SG+        A1 (1)
  152   212          13.3304142816         362.7390138976      DE        A2 (4)
  153    59          13.3304142816         362.7390138976      DE        A1 (1)
  154   175          13.5043843886         367.4729811788      PI        B2 (3)
  155   123          13.5043843886         367.4729811789      PI        B1 (2)
  156    60          14.2281126735         387.1666290161     SG+        A1 (1)
  157   124          15.4555007333         420.5655560938      PI        B1 (2)
  158   176          15.4555007333         420.5655560938      PI        B2 (3)
  159    61          15.7412673997         428.3416624154     SG+        A1 (1)
  160    62          19.1781602723         521.8642720757     SG+        A1 (1)
  161   177          19.7758211668         538.1274518185      PI        B2 (3)
  162   125          19.7758211668         538.1274518185      PI        B1 (2)
  163    63          22.1148292777         601.7750983015     SG+        A1 (1)
  164   213          26.8405671489         730.3689633625      DE        A2 (4)
  165    64          26.8405671489         730.3689633626      DE        A1 (1)
  166   126          28.1224360059         765.2503882980      PI        B1 (2)
  167   178          28.1224360059         765.2503882981      PI        B2 (3)
  168    65          29.4411562978         801.1345917588     SG+        A1 (1)
  169   179          34.1482951513         929.2223518194      PI        B2 (3)
  170   127          34.1482951513         929.2223518196      PI        B1 (2)
  171    66          36.5243599637         993.8783624113     SG+        A1 (1)
  172    67          37.6081474796        1023.3697200301     SG+        A1 (1)
  173    68          47.2830224689        1286.6364527129      DE        A1 (1)
  174   214          47.2830224689        1286.6364527130      DE        A2 (4)
  175   180          48.2733183364        1313.5837732421      PI        B2 (3)
  176   128          48.2733183364        1313.5837732424      PI        B1 (2)
  177    69          48.9347152655        1331.5812986591     SG+        A1 (1)
  178    70          65.2560974678        1775.7086873848     SG+        A1 (1)
  179   181          67.1976556670        1828.5411719351      PI        B2 (3)
  180   129          67.1976556670        1828.5411719352      PI        B1 (2)
  181    71          69.0128778328        1877.9358782450     SG+        A1 (1)
  182   130          98.7988336157        2688.4529409891      PH        B1 (2)
  183   182          98.7988336157        2688.4529409891      PH        B2 (3)
  184   215          98.8592308511        2690.0964333186      DE        A2 (4)
  185    72          98.8592308511        2690.0964333186      DE        A1 (1)
  186   131          98.9032952733        2691.2954872053      PI        B1 (2)
  187   183          98.9032952733        2691.2954872054      PI        B2 (3)
  188    73          98.9767322833        2693.2938098412     SG+        A1 (1)
  189   132         103.3118959400        2811.2596102041      PH        B1 (2)
  190   184         103.3118959400        2811.2596102042      PH        B2 (3)
  191   216         103.3868939447        2813.3004096646      DE        A2 (4)
  192    74         103.3868939448        2813.3004096670      DE        A1 (1)
  193   185         103.5150080030        2816.7865704232      PI        B2 (3)
  194   133         103.5150080030        2816.7865704234      PI        B1 (2)
  195    75         103.6445576044        2820.3117942957     SG+        A1 (1)
  196    76         115.4136372400        3140.5647325261      DE        A1 (1)
  197   217         115.4136372400        3140.5647325261      DE        A2 (4)
  198   186         116.0498496731        3157.8769529673      PI        B2 (3)
  199   134         116.0498496731        3157.8769529673      PI        B1 (2)
  200    77         116.6299810040        3173.6631290343     SG+        A1 (1)
  201   187         117.3573741312        3193.4565023017      PI        B2 (3)
  202   135         117.3573741312        3193.4565023023      PI        B1 (2)
  203    78         119.3135918996        3246.6878940101     SG+        A1 (1)
  204    79         123.6750168541        3365.3683006172     SG+        A1 (1)
  205   218         198.6922531354        5406.6910786782      DE        A2 (4)
  206    80         198.6922531354        5406.6910786782      DE        A1 (1)
  207   188         199.2434196896        5421.6890831011      PI        B2 (3)
  208   136         199.2434196896        5421.6890831016      PI        B1 (2)
  209    81         199.6016503508        5431.4370349682     SG+        A1 (1)
  210    82         217.6949253541        5923.7800780448     SG+        A1 (1)
  211   189         225.5824897040        6138.4116156631      PI        B2 (3)
  212   137         225.5824897040        6138.4116156632      PI        B1 (2)
  213    83         227.0106939011        6177.2750276416     SG+        A1 (1)
  214   190         395.7390995265       10768.6083635877      PI        B2 (3)
  215   138         395.7390995266       10768.6083635886      PI        B1 (2)
  216    84         397.2331488753       10809.2635132354     SG+        A1 (1)
  217    85         510.0891574317       13880.2316310568     SG+        A1 (1)
  218    86         896.6333622589       24398.6341896575     SG+        A1 (1)


  VSCF finished.

 @CHECKOUT-I, Total execution time (CPU/WALL):       46.50/       9.20 seconds.
--executable xvscf finished with status     0 in        9.22 seconds (walltime).
 --invoking executable--
/nfs/workspaces/public/cfour_mpi/bin/xvtran
 @GETMEM-I,  Allocated    3814 MB of main memory.
  Full RHF integral transformation
  Transformation of IIII integrals :
  1 pass through the AO integral file was required.
     4727719 AO integrals were read.
     8956107 MO integrals were written to HF2.
  Transformation of IIJJ integrals :
  1 pass through the AO integral file was required.
    10661887 AO integrals were read.
    14813680 MO integrals were written to HF2.
  Transformation of IJIJ integrals :
  1 pass through the AO integral file was required.
    20231470 AO integrals were read.
    28504747 MO integrals were written to HF2.
  Transformation of IJKL integrals :
  1 pass through the AO integral file was required.
    14932378 AO integrals were read.
    19381522 MO integrals were written to HF2.
  Summary of active molecular orbitals: 
------------------------------------------------------------------------
 
  Index      Eigenvalue    Symmetry    Index      Eigenvalue    Symmetry
------------------------------------------------------------------------
     1       -20.6449060        1       110         4.2274425        2
     2       -11.2595145        1       111         4.5689441        2
     3        -1.6800996        1       112         4.9766968        2
     4        -0.8222184        1       113         5.3743053        2
     5        -0.5202853        1       114         6.0490161        2
     6        -0.7621191        2       115         6.3234148        2
     7        -0.7621191        3       116         6.4639812        2
     8         0.0564529        1       117         6.6189343        2
     9         0.0762757        1       118         8.0825751        2
    10         0.1569662        1       119         9.0724319        2
    11         0.2263100        1       120        10.2804529        2
    12         0.2263458        1       121        11.1163861        2
    13         0.3017929        1       122        11.5170447        2
    14         0.4018544        1       123        11.8934983        2
    15         0.5076414        1       124        13.5043844        2
    16         0.5165110        1       125        15.4555007        2
    17         0.6567613        1       126        19.7758212        2
    18         0.7680776        1       127        28.1224360        2
    19         0.8017060        1       128        34.1482952        2
    20         0.8817542        1       129        48.2733183        2
    21         0.9141098        1       130        67.1976557        2
    22         0.9700796        1       131        98.7988336        2
    23         1.3798886        1       132        98.9032953        2
    24         1.4939292        1       133       103.3118959        2
    25         1.5573452        1       134       103.5150080        2
    26         1.6745364        1       135       116.0498497        2
    27         1.7700316        1       136       117.3573741        2
    28         1.8025534        1       137       199.2434197        2
    29         2.1172166        1       138       225.5824897        2
    30         2.2490863        1       139       395.7390995        2
    31         2.2515338        1       140         0.0642827        3
    32         2.3568438        1       141         0.1545673        3
    33         2.3990664        1       142         0.2133160        3
    34         2.7079385        1       143         0.3512598        3
    35         3.1798288        1       144         0.4127525        3
    36         3.2057535        1       145         0.6182202        3
    37         3.3404020        1       146         0.7493839        3
    38         3.7919063        1       147         0.8529636        3
    39         4.0151269        1       148         0.8680645        3
    40         4.1767165        1       149         1.1433412        3
    41         4.3712054        1       150         1.4608975        3
    42         4.4926620        1       151         1.5202363        3
    43         4.7610272        1       152         1.8447224        3
    44         5.2111386        1       153         2.0511275        3
    45         5.2503027        1       154         2.2653260        3
    46         5.9373506        1       155         2.3622569        3
    47         6.1352356        1       156         2.4531854        3
    48         6.3634538        1       157         2.6102478        3
    49         6.3649643        1       158         3.1090880        3
    50         6.8309053        1       159         3.7286378        3
    51         7.2120226        1       160         4.0552572        3
    52         8.3489505        1       161         4.2274425        3
    53         8.7649735        1       162         4.5689441        3
    54         8.9944496        1       163         4.9766968        3
    55        10.0232452        1       164         5.3743053        3
    56        10.6147493        1       165         6.0490161        3
    57        11.4046476        1       166         6.3234148        3
    58        11.4355821        1       167         6.4639812        3
    59        12.5332947        1       168         6.6189343        3
    60        13.2266679        1       169         8.0825751        3
    61        13.3304143        1       170         9.0724319        3
    62        14.2281127        1       171        10.2804529        3
    63        15.7412674        1       172        11.1163861        3
    64        19.1781603        1       173        11.5170447        3
    65        22.1148293        1       174        11.8934983        3
    66        26.8405671        1       175        13.5043844        3
    67        29.4411563        1       176        15.4555007        3
    68        36.5243600        1       177        19.7758212        3
    69        37.6081475        1       178        28.1224360        3
    70        47.2830225        1       179        34.1482952        3
    71        48.9347153        1       180        48.2733183        3
    72        65.2560975        1       181        67.1976557        3
    73        69.0128778        1       182        98.7988336        3
    74        98.8592309        1       183        98.9032953        3
    75        98.9767323        1       184       103.3118959        3
    76       103.3868939        1       185       103.5150080        3
    77       103.6445576        1       186       116.0498497        3
    78       115.4136372        1       187       117.3573741        3
    79       116.6299810        1       188       199.2434197        3
    80       119.3135919        1       189       225.5824897        3
    81       123.6750169        1       190       395.7390995        3
    82       198.6922531        1       191         0.2263100        4
    83       199.6016504        1       192         0.5165110        4
    84       217.6949254        1       193         0.7680776        4
    85       227.0106939        1       194         0.9141098        4
    86       397.2331489        1       195         1.4939292        4
    87       510.0891574        1       196         1.7700316        4
    88       896.6333623        1       197         2.1172166        4
    89         0.0642827        2       198         2.2515338        4
    90         0.1545673        2       199         2.3990664        4
    91         0.2133160        2       200         3.1798288        4
    92         0.3512598        2       201         3.7919063        4
    93         0.4127525        2       202         4.1767165        4
    94         0.6182202        2       203         4.4926620        4
    95         0.7493839        2       204         5.2111386        4
    96         0.8529636        2       205         5.9373506        4
    97         0.8680645        2       206         6.3649643        4
    98         1.1433412        2       207         6.8309053        4
    99         1.4608975        2       208         8.3489505        4
   100         1.5202363        2       209        10.6147493        4
   101         1.8447224        2       210        11.4046476        4
   102         2.0511275        2       211        12.5332947        4
   103         2.2653260        2       212        13.3304143        4
   104         2.3622569        2       213        26.8405671        4
   105         2.4531854        2       214        47.2830225        4
   106         2.6102478        2       215        98.8592309        4
   107         3.1090880        2       216       103.3868939        4
   108         3.7286378        2       217       115.4136372        4
   109         4.0552572        2       218       198.6922531        4
------------------------------------------------------------------------
  -20.6449060311621       -11.2595145178312       -1.68009963925986     
 -0.822218424933875      -0.520285345107157      -0.762119062580508     
 -0.762119062566386       5.645291678473853E-002  7.627567695722595E-002
  0.156966247478562       0.226309989276322       0.226345837221865     
  0.301792882910005       0.401854352646790       0.507641394937122     
  0.516510974951505       0.656761318918009       0.768077616278852     
  0.801705998151727       0.881754197471088       0.914109826185183     
  0.970079648639949        1.37988863598540        1.49392921214117     
   1.55734520461292        1.67453635305177        1.77003164459320     
   1.80255341049981        2.11721661188222        2.24908632333104     
   2.25153384050865        2.35684380682911        2.39906640264734     
   2.70793852565231        3.17982884343947        3.20575352472617     
   3.34040204960184        3.79190630018677        4.01512689680959     
   4.17671651802241        4.37120542593982        4.49266198689508     
   4.76102717872018        5.21113859970481        5.25030267912236     
   5.93735064435464        6.13523561224092        6.36345382380311     
   6.36496432054451        6.83090532996930        7.21202256089460     
   8.34895052972282        8.76497346941995        8.99444956932103     
   10.0232452242134        10.6147492570146        11.4046475734248     
   11.4355820691449        12.5332946571028        13.2266678762388     
   13.3304142816063        14.2281126734665        15.7412673997100     
   19.1781602722800        22.1148292777164        26.8405671489164     
   29.4411562978017        36.5243599636788        37.6081474795633     
   47.2830224689327        48.9347152654901        65.2560974678273     
   69.0128778327747        98.8592308511068        98.9767322833423     
[...]
 Convergence information after     5 iterations: 
 Largest element of residual vector : -0.10267137E-02.
 Largest element of DIIS residual   : -0.45351357E-03.
 Convergence information after     6 iterations: 
 Largest element of residual vector : -0.30841801E-03.
 Largest element of DIIS residual   : -0.81278920E-04.
 Convergence information after     7 iterations: 
 Largest element of residual vector : -0.54092341E-04.
 Largest element of DIIS residual   : -0.25020444E-04.
 Convergence information after     8 iterations: 
 Largest element of residual vector : -0.15270750E-04.
 Largest element of DIIS residual   :  0.82036161E-05.
 Convergence information after     9 iterations: 
 Largest element of residual vector :  0.42736456E-05.
 Largest element of DIIS residual   :  0.19694815E-05.
 Convergence information after    10 iterations: 
 Largest element of residual vector :  0.15376530E-05.
 Largest element of DIIS residual   :  0.81235979E-06.
 Convergence information after    11 iterations: 
 Largest element of residual vector :  0.42410523E-06.
 Largest element of DIIS residual   :  0.23732548E-06.
 Convergence information after    12 iterations: 
 Largest element of residual vector :  0.16474236E-06.
 Largest element of DIIS residual   :  0.10534308E-06.
 Convergence information after    13 iterations: 
 Largest element of residual vector :  0.65605599E-07.
 Largest element of DIIS residual   :  0.44190811E-07.
 Perturbed amplitude equations converged in    13 iterations.
  Dominant contributions to perturbed wavefunction:
    7    7  142   37   0.2321473354 ABAB
    7    7   37  142   0.2321473354 ABAB
    5    5  142   53   0.2177025767 ABAB
    5    5   53  142   0.2177025767 ABAB
    7    7  142   53   0.1977449310 ABAB
    7    7   53  142   0.1977449310 ABAB
    7    7  142   48   0.1947517416 ABAB
    7    7   48  142   0.1947517416 ABAB
    5    5  142   43   0.1932710402 ABAB
    5    5   43  142   0.1932710402 ABAB
    7    7  144   53   0.1796573492 ABAB
    7    7   53  144   0.1796573492 ABAB
    7    7  142   63   0.1793072270 ABAB
    7    7   63  142   0.1793072270 ABAB
    5    5  142   37   0.1665693909 ABAB
    5    5   37  142   0.1665693909 ABAB
    7    6   37   91   0.1612178141 ABAB
    6    7   91   37   0.1612178141 ABAB
    7    7  145   37   0.1591457167 ABAB
    7    7   37  145   0.1591457167 ABAB
  norm of converged amps    3.11536904984243     
 Starting iterative solution of the perturbed Lambda equations.
 The DIIS procedure is used to accelerate convergence.
 Convergence criterion is 10**(-7).
 Maximum number of iterations is 100.
 Convergence information after     1 iterations: 
 Largest element of residual vector : -0.59860178E-01.
 Largest element of DIIS residual   : -0.59860178E-01.
 Convergence information after     2 iterations: 
 Largest element of residual vector :  0.52315158E-02.
 Largest element of DIIS residual   :  0.66013168E-02.
 Convergence information after     3 iterations: 
 Largest element of residual vector : -0.31638871E-02.
 Largest element of DIIS residual   : -0.27998717E-02.
 Convergence information after     4 iterations: 
 Largest element of residual vector : -0.19272834E-02.
 Largest element of DIIS residual   : -0.14172379E-02.
 Convergence information after     5 iterations: 
 Largest element of residual vector : -0.96298138E-03.
 Largest element of DIIS residual   : -0.42280529E-03.
 Convergence information after     6 iterations: 
 Largest element of residual vector : -0.28835799E-03.
 Largest element of DIIS residual   : -0.73741307E-04.
 Convergence information after     7 iterations: 
 Largest element of residual vector : -0.49012239E-04.
 Largest element of DIIS residual   : -0.21124903E-04.
 Convergence information after     8 iterations: 
 Largest element of residual vector : -0.12732937E-04.
 Largest element of DIIS residual   :  0.73494834E-05.
 Convergence information after     9 iterations: 
 Largest element of residual vector :  0.38890864E-05.
 Largest element of DIIS residual   :  0.17390750E-05.
 Convergence information after    10 iterations: 
 Largest element of residual vector :  0.13742577E-05.
 Largest element of DIIS residual   :  0.74886992E-06.
 Convergence information after    11 iterations: 
 Largest element of residual vector :  0.40108456E-06.
 Largest element of DIIS residual   :  0.22981401E-06.
 Convergence information after    12 iterations: 
 Largest element of residual vector :  0.15723378E-06.
 Largest element of DIIS residual   :  0.98810024E-07.
 Perturbed Lambda equations converged in    12 iterations.
  Dominant contributions to perturbed wavefunction:
    7    7  142   37   0.2241368970 ABAB
    7    7   37  142   0.2241368970 ABAB
    5    5  142   53   0.2091944361 ABAB
    5    5   53  142   0.2091944361 ABAB
    7    7  142   53   0.1901147726 ABAB
    7    7   53  142   0.1901147726 ABAB
    7    7  142   48   0.1881721550 ABAB
    7    7   48  142   0.1881721550 ABAB
    5    5  142   43   0.1859205602 ABAB
    5    5   43  142   0.1859205602 ABAB
    7    7  144   53   0.1729501007 ABAB
    7    7   53  144   0.1729501007 ABAB
    7    7  142   63   0.1729498536 ABAB
    7    7   63  142   0.1729498536 ABAB
    5    5  142   37   0.1597152475 ABAB
    5    5   37  142   0.1597152475 ABAB
    7    7  145   37   0.1542385444 ABAB
    7    7   37  145   0.1542385444 ABAB
    7    6   37   91   0.1542096480 ABAB
    6    7   91   37   0.1542096480 ABAB
        The DBOC first-order density matrix is being calculated 
             (Symmetry block 3, perturbation   2)
 term   11.7123305363970     
 final tnorm  0.912499080321746     
  norm contr. I: |<0|L dT/dx|0>|^2   0.000000000000000E+000
  norm contr. II: <0|[nabla(1+L)e-T][nabla e^T]|0>   11.7123305363970     
  total norm contribution   11.7123305363970     
 oo  1.320893551572013E-002
 vv  -88.0065405202207     
 vo  4.946026847060999E-003
  Correlated perturbed 1-el contribution to DBOC  -87.9883855578579       cm**-1
  SUM_I |dc_I/dx|^2 contribution to DBOC   44.0935232955820       cm**-1
 
 
  The total diagonal Born-Oppenheimer correction (DBOC) is:      0.0040417068 a.u.
  The total diagonal Born-Oppenheimer correction (DBOC) is:        887.052102 cm-1
 
 Total CC energy including DBOC  -113.081750042678     
 First-order density matrix is being calculated  (Symmetry block 3, perturbation   2)
 Calculation of the contributions of <pq||rs> to dI(i,j)/dx required   2.2 seconds.
 Calculation of the contributions of <pq||rs> to dI(a,b)/dx required  16.5 seconds.
 Calculation of the contributions of <pq||rs> to dI(i,a)/dx required   9.3 seconds.
 First-order Z-vector equations are solved for 1 perturbation.
 Convergence reached after  17 iterations.
        U*G(pq,rs) contribution is being calculated
             (Symmetry block 3, perturbation   2)

 CCSD contribution to force constants 

        0.0000000000        0.0000000000        0.0000000000
        0.0000000000        0.0000000000        0.0000000000
        0.0000000000        0.0000000000        0.0000000000
        0.0000000000        0.0000000000        0.0000000000
        0.0000000000        0.0000000000        0.0000000000
        0.0000000000        0.0000000000        0.0000000000
        0.0000000000        0.0000000000        0.0000000000
        0.0000000000        0.0000000000        0.0000000000
        0.0000000000        0.0000000000        0.0000000000
        0.0000000000        0.0000000000        0.0000000000
        0.0000000000        0.0000000000        0.0000000000
        0.0000000000      -19.7416766675       19.7416766675

 CCSD contribution to dipole derivatives 

        0.0000000000        0.0000000000        0.0000000000
        0.0000000000        0.0000000000        0.0000000000
        0.0000000000        0.0000000000        0.0000000000
        0.0000000000        0.0000000000       -0.0351617509
        0.0000000000        0.0000000000        0.0000000000
        0.0000000000        0.0000000000        0.0000000000
 @CHECKOUT-I, Total execution time (CPU/WALL):      993.07/     235.32 seconds.
--executable xsdcc finished with status     0 in      235.35 seconds (walltime).
 --invoking executable--
/nfs/workspaces/public/cfour_mpi/bin/xanti
 @GETMEM-I,  Allocated    3814 MB of main memory.
 CCSD MO derivative gammas will be sorted to Mulliken order.
 @CHECKOUT-I, Total execution time (CPU/WALL):       10.28/      12.37 seconds.
--executable xanti finished with status     0 in       12.38 seconds (walltime).
 --invoking executable--
/nfs/workspaces/public/cfour_mpi/bin/xbcktrn
 @GETMEM-I,  Allocated    3814 MB of main memory.
 CCSD MO derivative gammas will be transformed to the AO basis.
 @CHECKOUT-I, Total execution time (CPU/WALL):       28.10/       5.18 seconds.
--executable xbcktrn finished with status     0 in        5.20 seconds (walltime).
 --invoking executable--
/nfs/workspaces/public/cfour_mpi/bin/xvdint
 @GETMEM-I,  Allocated    3814 MB of main memory.
 One- and two-electron integral derivatives are calculated
 for RHF-CC/MBPT hessians and dipole derivatives.
 Spherical gaussians are used.
  magnet F F
                    8722  records have been written to the Sort file.
  Total length of Sort file :             178609116  words.
 Evaluation of 2el integral derivatives

                      Two-electron integral gradient
                      ------------------------------

                         C #1 z     0.0000000000
                         O #2 z     0.0000000000


 C #1       0.0000000000           -2.5328267467            0.0000000000
 O #2       0.0000000000            2.5328267467            0.0000000000


 Evaluation of 2e integral derivatives required  344.81 seconds.
  contribution to Hessian
        0.0000000000        0.0000000000        0.0000000000
        0.0000000000       -2.5328267467        2.5328267467
 @CHECKOUT-I, Total execution time (CPU/WALL):      344.80/      69.35 seconds.
--executable xvdint finished with status     0 in       69.38 seconds (walltime).
 --invoking executable--
/nfs/workspaces/public/cfour_mpi/bin/xanti
 @GETMEM-I,  Allocated    3814 MB of main memory.
 CCSD MO gammas will be sorted to Mulliken order.
 @CHECKOUT-I, Total execution time (CPU/WALL):       11.42/      10.07 seconds.
--executable xanti finished with status     0 in       10.09 seconds (walltime).
 --invoking executable--
/nfs/workspaces/public/cfour_mpi/bin/xbcktrn
 @GETMEM-I,  Allocated    3814 MB of main memory.
 CCSD MO gammas will be transformed to the AO basis.
 @CHECKOUT-I, Total execution time (CPU/WALL):       32.73/       6.15 seconds.
--executable xbcktrn finished with status     0 in        6.16 seconds (walltime).
 --invoking executable--
/nfs/workspaces/public/cfour_mpi/bin/xvdint
 @GETMEM-I,  Allocated    3814 MB of main memory.
 One- and two-electron integral derivatives are calculated
 for RHF-CC/MBPT hessians and dipole derivatives.
 Spherical gaussians are used.
  magnet F F

                     Kinetic energy integral gradient
                     --------------------------------

                         C #1 z    -2.0502105029
                         O #2 z     2.0502105029


 C #1       0.0000000000            0.0000000000           -2.0502105029
 O #2       0.0000000000            0.0000000000            2.0502105029



                   Nuclear attraction integral gradient
                   ------------------------------------

                         C #1 z    28.9539276555
                         O #2 z   -28.9539276555


 C #1       0.0000000000            0.0000000000           28.9539276555
 O #2       0.0000000000            0.0000000000          -28.9539276555



                      Reorthonormalization gradient
                      -----------------------------

                         C #1 z     0.0000000000
                         O #2 z     0.0000000000


 C #1       0.0000000000            0.0000000000            0.0000000000
 O #2       0.0000000000            0.0000000000            0.0000000000



                     Kinetic energy integral Hessian
                     -------------------------------


           Symmetry 1

           C #1 z      O #2 z

 C #1 z   -0.141740
 O #2 z    0.141740   -0.141740


           Symmetry 2

           C #1 x      O #2 x

 C #1 x   -4.455570
 O #2 x    4.455570   -4.455570


           Symmetry 3

           C #1 y      O #2 y

 C #1 y   -4.455570
 O #2 y    4.455570   -4.455570




           C #1 x      C #1 y      C #1 z      O #2 x      O #2 y      O #2 z

 C #1 x   -4.455570
 C #1 y    0.000000   -4.455570
 C #1 z    0.000000    0.000000   -0.141740

 O #2 x    4.455570    0.000000    0.000000   -4.455570
 O #2 y    0.000000    4.455570    0.000000    0.000000   -4.455570
 O #2 z    0.000000    0.000000    0.141740    0.000000    0.000000   -0.141740




                   Nuclear attraction integral Hessian
                   -----------------------------------


           Symmetry 1

           C #1 z      O #2 z

 C #1 z  -10.922173
 O #2 z   10.922173  -10.922173


           Symmetry 2

           C #1 x      O #2 x

 C #1 x   37.489394
 O #2 x  -37.489394   37.489394


           Symmetry 3

           C #1 y      O #2 y

 C #1 y   37.489394
 O #2 y  -37.489394   37.489394




           C #1 x      C #1 y      C #1 z      O #2 x      O #2 y      O #2 z

 C #1 x   37.489394
 C #1 y    0.000000   37.489394
 C #1 z    0.000000    0.000000  -10.922173

 O #2 x  -37.489394    0.000000    0.000000   37.489394
 O #2 y    0.000000  -37.489394    0.000000    0.000000   37.489394
 O #2 z    0.000000    0.000000   10.922173    0.000000    0.000000  -10.922173




                Highest order reorthonormalization Hessian
                ------------------------------------------


           Symmetry 1

           C #1 z      O #2 z

 C #1 z    0.000000
 O #2 z    0.000000    0.000000


           Symmetry 2

           C #1 x      O #2 x

 C #1 x    0.000000
 O #2 x    0.000000    0.000000


           Symmetry 3

           C #1 y      O #2 y

 C #1 y    0.000000
 O #2 y    0.000000    0.000000




           C #1 x      C #1 y      C #1 z      O #2 x      O #2 y      O #2 z




                Electronic contributions to dipole moment
                -----------------------------------------

                               au             Debye

                    z      0.13957727      0.35477009

  Conversion factor used: 1 a.u. =   2.54174691 Debye 



   Electronic contributions to static part of dipole moment derivatives
   --------------------------------------------------------------------


                     Total dipole moment derivatives
                     -------------------------------


           Symmetry 1
                              Ez

               C #1 z    -5.89388712
               O #2 z    -8.10611288

           Symmetry 2
                              Ex

               C #1 x    -5.92378381
               O #2 x    -8.07621619

           Symmetry 3
                              Ey

               C #1 y    -5.92378381
               O #2 y    -8.07621619



                       Ex          Ey          Ez

      C #1    x   -5.923784    0.000000    0.000000
      C #1    y    0.000000   -5.923784    0.000000
      C #1    z    0.000000    0.000000   -5.893887

      O #2    x   -8.076216    0.000000    0.000000
      O #2    y    0.000000   -8.076216    0.000000
      O #2    z    0.000000    0.000000   -8.106113

 Evaluation of 1e integral derivatives required    1.72 seconds.
                    8815  records have been written to the Sort file.
  Total length of Sort file :             180513570  words.
 Evaluation of 2el integral derivatives

                      Two-electron integral gradient
                      ------------------------------

                         C #1 z   -11.4697104681
                         O #2 z    11.4697104681


 C #1       0.0000000000            0.0000000000          -11.4697104681
 O #2       0.0000000000            0.0000000000           11.4697104681


 Evaluation of 2e integral derivatives required  697.21 seconds.

                            Molecular gradient
                            ------------------

                         C #1 z    -1.1602690586
                         O #2 z     1.1602690586


 C #1       0.0000000000            0.0000000000           -1.1602690586
 O #2       0.0000000000            0.0000000000            1.1602690586


  Molecular gradient norm 0.164E+01

                            Molecular hessian
                            -----------------


           Symmetry 1

           C #1 z      O #2 z

 C #1 z  121.600128
 O #2 z -121.600128  121.600128


           Symmetry 2

           C #1 x      O #2 x

 C #1 x   20.387096
 O #2 x  -20.387096   20.387096


           Symmetry 3

           C #1 y      O #2 y

 C #1 y   20.387096
 O #2 y  -20.387096   20.387096




           C #1 x      C #1 y      C #1 z      O #2 x      O #2 y      O #2 z

 C #1 x   20.387096
 C #1 y    0.000000   20.387096
 C #1 z    0.000000    0.000000  121.600128

 O #2 x  -20.387096    0.000000    0.000000   20.387096
 O #2 y    0.000000  -20.387096    0.000000    0.000000   20.387096
 O #2 z    0.000000    0.000000 -121.600128    0.000000    0.000000  121.600128




                           Total dipole moment
                           -------------------

                               au             Debye

                    z     -0.33298785     -0.84637084

  Conversion factor used: 1 a.u. =   2.54174691 Debye 



                     Total dipole moment derivatives
                     -------------------------------


           Symmetry 1
                              Ez

               C #1 z     0.60828690
               O #2 z    -0.60828690

           Symmetry 2
                              Ex

               C #1 x    -0.19669979
               O #2 x     0.19669979

           Symmetry 3
                              Ey

               C #1 y    -0.19669979
               O #2 y     0.19669979



                       Ex          Ey          Ez

      C #1    x   -0.196700    0.000000    0.000000
      C #1    y    0.000000   -0.196700    0.000000
      C #1    z    0.000000    0.000000    0.608287

      O #2    x    0.196700    0.000000    0.000000
      O #2    y    0.000000    0.196700    0.000000
      O #2    z    0.000000    0.000000   -0.608287

 @CHECKOUT-I, Total execution time (CPU/WALL):      698.92/     116.73 seconds.
--executable xvdint finished with status     0 in      116.75 seconds (walltime).
 --invoking executable--
/nfs/workspaces/public/cfour_mpi/bin/xjoda
  @GTFLGS-I, Hessian will be transformed to curvilinear coordinates.
  @GTFLGS-I, Hessian will be transformed to curvilinear coordinates.
  igrd and ihes are                      0                     1
  gradient from JOBARC 
   0.000000000000000   0.000000000000000  -1.160269058622978
   0.000000000000000   0.000000000000000   1.160269058622978
 
  @PROJFCM-I, Projecting force constant matrix onto totally symmetric subspace.
  Largest difference between matrix elements of symmetrized
  and unsymmetrized FCM :     0.1909072012E-08.
  read isotopes from ZMAT file 
 
  Summary of diagonal Born-Oppenheimer correction at the correlated level
  The total diagonal Born-Oppenheimer correction (DBOC) is:      0.0040417068 a.u.
  The total diagonal Born-Oppenheimer correction (DBOC) is:        887.052102 cm-1
  The total diagonal Born-Oppenheimer correction (DBOC) is:            10.612 kJ/mole
  hellooooooo 
  readis is  F
 
 @CHECKOUT-I, Total execution time (CPU/WALL):        0.01/       0.04 seconds.
--executable xjoda finished with status     0 in        0.06 seconds (walltime).
  The final electronic energy is      -113.081750042678095 a.u. 
  This computation required                         2671.36 seconds (walltime).
