 --invoking executable--
/nfs/workspaces/public/cfour_mpi/bin/xjoda


   *************************************************************************
         <<<     CCCCCC     CCCCCC   |||     CCCCCC     CCCCCC   >>>
       <<<      CCC        CCC       |||    CCC        CCC         >>>
      <<<      CCC        CCC        |||   CCC        CCC            >>>
    <<<        CCC        CCC        |||   CCC        CCC              >>>
      <<<      CCC        CCC        |||   CCC        CCC            >>>
       <<<      CCC        CCC       |||    CCC        CCC         >>>
         <<<     CCCCCC     CCCCCC   |||     CCCCCC     CCCCCC   >>>
   *************************************************************************

     ****************************************************************
     * CFOUR Coupled-Cluster techniques for Computational Chemistry *
     ****************************************************************
 

   Department of Chemistry                Institut fuer Physikalische Chemie
   University of Florida                  Universitaet Mainz
   Gainesville, FL 32611, USA             D-55099 Mainz, Germany

   Department of Chemistry                Fakultaet fuer Chemie und Biowiss.
   Johns Hopkins University               Karlsruher Institut fuer Technologie
   Baltimore, MD 21218, USA               D-76131 Karlsruhe, Germany

   Department of Chemistry                Department of Physical Chemistry
   Southern Methodist University          Eotvos Lorand University
   Dallas, TX 75275, USA                  H-1053 Budapest, Hungary

 
                       Version 2.1
 
                     vincent.theory.phys.ucl.ac.uk                     
                     Fri 28 Feb 03:01:42 GMT 2025                      
                     integer*8 version is running
 
********************************************************************************
*                          Input from ZMAT file                                *
********************************************************************************
Carbon Monoxide DBOC calculation                                                
C                                                                               
O 1 r                                                                           
                                                                                
r=1.5206896551724138                                                            
                                                                                
                                                                                
*CFOUR(CALC=CCSD,BASIS=AUG-PCVQZ,SCF_CONV=10                                    
CC_CONV=14,DBOC=ON,MEMORY=500000000                                             
ZFIELD=200)                                                                     
                                                                                
%isotopes                                                                       
13                                                                              
16                                                                              
********************************************************************************
  @GTFLGS-I, Hessian will be transformed to curvilinear coordinates.
    -------------------------------------------------------------------
                    CFOUR Control Parameters 
    -------------------------------------------------------------------
        External           Internal           Value            Units
          Name               Name
    -------------------------------------------------------------------
       ABCDTYPE             IABCDT         STANDARD    [  0]    ***   
       ANHARMONIC           IANHAR         OFF         [  0]    ***   
       ANH_ALGORIT          IANALG         STANDARD    [  0]    ***   
       ANH_DERIVAT          IANDER         SECOND      [  1]    ***   
       ANH_MODE             ANHMOD         VIBRATION   [  0]    ***   
       ANH_STEPSIZ          ICUBST             50000          x 10-6  
       ANH_SYMMETR          IANHSM         ABELIAN     [  0]    ***   
       AO_LADDERS           IAOLAD         SINGLEPASS  [  1]    ***   
       AV_SCF               IAVSCF         OFF         [  0]    ***   
       BASIS                IBASIS         AUG-PCVQZ   [ 52]    ***   
       BOTHVECTORS          BOTHVC         OFF         [  0]    ***   
       BOX_POTENT           IPIAB          OFF         [  0]    ***   
       BREIT                IBREIT         OFF         [  0]    ***   
       BRUCK_CONV           IBRTOL          10D-  4             ***   
       BRUECKNER            IBRKNR         OFF         [  0]    ***   
       BUFFERSIZE           IBUFFS              4096            ***   
       CACHE_RECS           ICHREC             10               ***   
       CALCLEVEL            ICLLVL         CCSD        [ 10]    ***   
       CCORBOPT             ICCORB         OFF         [  0]  x 0.01  
       CC_CONV              ICCCNV          10D- 14             ***   
       CC_EXPORDER          ICCEOR              5               ***   
       CC_EXTRAPOL          ICCEXT         DIIS        [  1]    ***   
       CC_GUESS             ICCGES         MP2         [  0]    ***   
       CC_MAXCYC            ICCCYC            100              cycles 
       CC_PROGRAM           ICCPRO         VCC         [  0]    ***   
       CHARGE               ICHRGE              0               ***   
       CHOLESKY             ICHOLE         OFF         [  0]    ***   
       CIS_CONV             ICISTL              5               ***   
       COMM_SIZE            IPSIZE            ***               ***   
       CONSTANT             ICONST         OLD         [  1]    ***   
       CONTINUUM            ICONTU         NONE        [  0]    ***   
       CONTRACTION          ICNTYP         GENERAL     [  1]    ***   
       COORDINATES          ICOORD         INTERNAL    [  0]    ***   
       CPHF_CONVER          ICPHFT          10D- 16             ***   
       CPHF_MAXCYC          ICPHFC             64              cycles 
       CUBIC                ICUBIC         OFF         [  0]    ***   
       CURVILINEAR          ICURVY         ON          [  1]    ***   
       DBOC                 IDBOC          ON          [  1]    ***   
       DCT                  IDCT           OFF         [  0]    ***   
       DERIV_LEV            IDRLVL         SECOND      [  2]    ***   
       DEVMEM_SIZE          IDVMEM          50000000           MByte  
       DIAG_MRCC            IEOMST          10D-  0             ***   
       DIFF_TYPE            IDIFTY         RELAXED     [  0]    ***   
       DIRECT               IDIRCT         OFF         [  0]    ***   
       DROPMO               IDRPMO      NONE         
       ECP                  IECP           OFF         [  0]    ***   
       EIGENVECTOR          IVEC                1               ***   
       EL_ANHARM            IELANH         OFF         [  0]    ***   
       EOMFOLLOW            IEOMSR         ENERGY      [  0]    ***   
       EOMIP                IEOMIP         OFF         [  0]    ***   
       EOMLEVEL             HBARFM         SAME        [  0]    ***   
       EOM_MRCC             IMRCCE         NEW         [  1]    ***   
       EOM_NONIT            EOMNON         OFF         [  0]    ***   
       EOM_NSING            IEOMSI          10D-  0             ***   
       EOM_NSTATES          IMRCCD         DAVIDSON    [  0]    ***   
       EOM_NTRIP            IEOMTR          10D-  0             ***   
       EOM_ORDER            IEXORD         ENERGY      [  0]    ***   
       EOM_PROPSTA          IEOMST              0               ***   
       ESTATE_CONV          IEXTOL          10D-  5             ***   
       ESTATE_DIAG          IEXDIG         ITERATIVE   [  0]    ***   
       ESTATE_LOCK          IESLOC         ON          [  1]    ***   
       ESTATE_MAXC          IEXMXC             40               ***   
       ESTATE_PROP          IEXPRP         OFF         [  0]    ***   
       EVAL_HESS            IRECAL              0            # of cyc.
       EXCITATION           IEXCIT              0               ***   
       EXCITE               IEXCIT         NONE        [  0]    ***   
       EXTERN_POT           IEXPOT         OFF         [  0]    ***   
       FCGRADNEW            IFCGNW         OFF         [  0]    ***   
       FC_FIELD             IFINFC              0             x 10-6  
       FD_CALTYPE           IFDCAL         GRADONLY    [  0]    ***   
       FD_PROJECT           IFDPRJ         OFF         [  1]    ***   
       FD_STEPSIZE          IDISFD              0            10-4 bohr
       FD_USEGROUP          IFDGRP         FULL        [  0]    ***   
       FILE_RECSIZ          IFLREC              4096           words  
       FINITE_PERT          IFIPER              0             x 10-6  
       FIXGEOM              IFIXGM         OFF         [  0]    ***   
       FOCK                 IFOCK          AO          [  1]    ***   
       FREQ_ALGORI          IVIALG         STANDARD    [  0]    ***   
       FROZEN_CORE          IFROCO         OFF         [  0]    ***   
       GAMMA_ABCD           IGABCD         STORE       [  0]    ***   
       GAMMA_ABCI           IGABCI         STORE       [  0]    ***   
       GENBAS_1             IGNBS1              0               ***   
       GENBAS_2             IGNBS2              0               ***   
       GENBAS_3             IGNBS3              0               ***   
       GENBAS_4             IGNBS4              0               ***   
       GEO_CONV             ICONTL              5              H/bohr 
       GEO_MAXCYC           IOPTCY             50               ***   
       GEO_MAXSTEP          IMXSTP            300            millibohr
       GEO_METHOD           INR            SINGLE_POINT[  5]    ***   
       GIAO                 IGIAO          OFF         [  1]    ***   
       GIMIC                IGIMIC         OFF         [  0]    ***   
       GRID                 IGRID          OFF         [  0]    ***   
       GRID_ALGO            IGALGO         SERIAL      [  0]    ***   
       GUESS                IGUESS         MOREAD      [  0]    ***   
       HBAR                 IHBAR          OFF         [  0]    ***   
       HESS_TYPE            IHESTP         SCF         [  0]    ***   
       HF2_FILE             IHF2Fl         USE         [  1]    ***   
       HFSTABILITY          ISTABL         OFF         [  0]    ***   
       INCORE               INCORE         OFF         [  0]    ***   
       INPUT_MRCC           IMRCC          ON          [  1]    ***   
       INTEGRALS            INTTYP         VMOL        [  1]    ***   
       JODA_PRINT           IJPRNT              0               ***   
       KEYWORD_OUT          IDMPKW         NO          [  0]    ***   
       LINDEP_TOL           ILINDP              8               ***   
       LINEQ_CONV           IZTACN          10D-  7           cycles  
       LINEQ_EXPOR          ILMAXD              5               ***   
       LINEQ_MAXCY          ILMAXC            100               ***   
       LINEQ_TYPE           ILTYPE         DIIS        [  1]    ***   
       LOCK_ORBOCC          ILOCOC         OFF         [  0]    ***   
       MEMORY_SIZE          IMEMSZ         500000000           words  
       MEM_UNIT             IMEMU          INTEGERWORDS[  0]    ***   
       MRCC                 IMRCCC         OFF         [  0]    ***   
       MULTIPLICTY          IMULTP              1               ***   
       NACOUPLING           IVCOUP         OFF         [  0]    ***   
       NEGEVAL              IDIE           ABORT       [  0]    ***   
       NEWNORM              INEWNO         OFF         [  0]    ***   
       NON-HF               INONHF         OFF         [  0]    ***   
       NTOP_TAMP            ITOPT2             15               ***   
       NUC_MODEL            INUCMO         POINT       [  0]    ***   
       OCCUPATION           IOCCU   ESTIMATED BY SCF 
       OPEN-SHELL           IOPEN          SPIN-ORBITAL[  0]    ***   
       OPTVIB               IOPTVB         OFF         [  0]    ***   
       ORBITALS             IORBTP         STANDARD    [  0]    ***   
       PARALLEL             IPARAL         ON          [  1]    ***   
       PARA_INT             IPINTS         ON          [  1]    ***   
       PARA_PRINT           IPPRIN              0               ***   
       PERT_ORB             IPTORB         STANDARD    [  0]    ***   
       POINTS               IGRDFD              0               ***   
       PRINT                IPRNT               0               ***   
       PROPS                IPROPS         OFF         [  0]    ***   
       PROP_INTEGR          IINTYP         INTERNAL    [  0]    ***   
       PSI                  IPSI           OFF         [  0]    ***   
       QC_ALG               IQCALG         FLM         [  0]    ***   
       QC_LINALG            IQCLIN         TRIDIAG     [  2]    ***   
       QC_MAXCYC            IQCMAX          10D-100           cycles  
       QC_MAXSCFCY          IQCMSC          10D- 15           cycles  
       QC_RTRUST            IQCRTR          10D-  0           x 10-3  
       QC_SKIPSCF           IQCSKI         OFF         [  0]    ***   
       QC_START             IQCSTA          10D-  1             ***   
       QRHFGUESS            IQGUES         OFF         [  0]    ***   
       QUARTIC              IQUART         OFF         [  0]    ***   
       RAMAN_INT            IRAMIN         OFF         [  0]    ***   
       RAMAN_ORB            IRAMRE         UNRELAXED   [  0]    ***   
       RDO                  IRDOFM         ON          [  1]    ***   
       REDUCE_REPR          REDREP         Ir          [  0]    ***   
       REFERENCE            IREFNC         RHF         [  0]    ***   
       RELATIVIST           IRELAT         OFF         [  0]    ***   
       RELAX_DENS           IRDENS         ON          [  1]    ***   
       RESET_FLAGS          IRESET         OFF         [  0]    ***   
       RESTART_CC           ICCRES         OFF         [  0]    ***   
       ROT_EVEC             ROTVEC              0               ***   
       SAVE_INTS            ISVINT         OFF         [  0]    ***   
       SCALE_ON             ISTCRT              0               ***   
       SCF_CONV             ISCFCV          10D- 10             ***   
       SCF_DAMPING          IDAMP               0             x 10-3  
       SCF_EXPORDE          IRPPOR              6               ***   
       SCF_EXPSTAR          IRPPLS              8               ***   
       SCF_EXTRAPO          IRPP           ON          [  1]    ***   
       SCF_MAXCYC           ISCFCY            150              cycles 
       SCF_NOSTOP           ISCFST         OFF         [  0]    ***   
       SCF_PRINT            ISCFPR              0               ***   
       SCF_PROG             ISCFPR         SCF         [  0]    ***   
       SD_FIELD             IFINSD              0             x 10-6  
       SOPERT               IPERSO         OFF         [  0]    ***   
       SPHERICAL            IDFGHI         ON          [  1]    ***   
       SPINORBIT            ISOCAL         OFF         [  0]    ***   
       SPINROTATIO          ISRCON         OFF         [  0]    ***   
       SPIN_FLIP            ISPFLP         OFF         [  0]    ***   
       SPIN_ORBIT           ISPORB         OFF         [  0]    ***   
       SPIN_SCAL            ISCSMP         OFF         [  0]    ***   
       STEEPSCALE           ISTPSC              1000          x 10-3  
       SUBGROUP             ISUBGP         DEFAULT     [  0]    ***   
       SUBGRPAXIS           ISBXYZ         X           [  0]    ***   
       SYMMETRY             ISYM           ON          [  0]    ***   
       SYM_CHECK            ISYMCK         OVERRIDE    [  1]    ***   
       T3_EXTRAPOL          IT3EXT         OFF         [  0]    ***   
       T4_EXTRAPOL          IT4EXP         OFF         [  0]    ***   
       TAMP_SUM             IEVERY              5               ***   
       TESTSUITE            ITESTS         OFF         [  0]    ***   
       THERMOCH             ITHERM         OFF         [  0]    ***   
       TOL_CHOLESK          ITOLCH          10D-  4             ***   
       TRANGRAD             IRESRM         OFF         [  0]    ***   
       TRANS_INV            ITRAIN         IGNORE      [  1]    ***   
       TREAT_PERT           ITREAT         SIMULTANEOUS[  0]    ***   
       TRIP_ALGORI          ITRALG         NORMAL      [  0]    ***   
       UIJ_THRESHO          IUIJTH              1               ***   
       UNITS                IUNITS         ANGSTROM    [  0]    ***   
       UNOS                 IUNOS          OFF         [  0]    ***   
       UPDATE_HESS          IHUPDT         ON          [  1]    ***   
       VIBPHASE             ISETPH         STANDARD    [  0]    ***   
       VIBRATION            IVIB           ANALYTIC    [  1]    ***   
       VIB_ALGORIT          IGEALG         STANDARD    [  0]    ***   
       VNATORB              IVNORB         OFF         [  0]    ***   
       VTRAN                IVTRAN         FULL/PARTIAL[  0]    ***   
       XFIELD               IXEFLD              0             x 10-6  
       XFORM_TOL            IXFTOL          10D- 11             ***   
       YFIELD               IYEFLD              0             x 10-6  
       ZFIELD               IZEFLD            200             x 10-6  
       ZSCALE_EXP           IZEXPS         OFF         [  0]    ***   
    -------------------------------------------------------------------
   2 entries found in Z-matrix 
   Job Title : Carbon Monoxide DBOC calculation                                                
   There are  1 unique internal coordinates.
   Of these,  0 will be optimized.
   User supplied Z-matrix: 
--------------------------------------------------------------------------------
       SYMBOL    BOND      LENGTH    ANGLE     ANGLE     DIHED     ANGLE
                  TO      (ANGST)    WRT      (DEG)      WRT      (DEG)
--------------------------------------------------------------------------------
        C    
        O          1         r    
                  *Initial values for internal coordinates* 
                      Name             Value
                        r               1.5206896552
--------------------------------------------------------------------------------
  read isotopes from ZMAT file 
   Rotational constants (in cm-1): 
          1.0163659645             1.0163659645
   Rotational constants (in MHz): 
      30469.8893417896         30469.8893417896
********************************************************************************
   The full molecular point group is CXv .
   The largest Abelian subgroup of the full molecular point group is C2v .
   The computational point group is C2v .
********************************************************************************
--------------------------------------------------------------------------------
   Analysis of internal coordinates specified by Z-matrix 
--------------------------------------------------------------------------------
   *The nuclear repulsion energy is   16.703277170068027 a.u.
   *There is   1 degree of freedom within the tot. symm. molecular subspace.
   *Z-matrix requests optimization of   0 coordinates.
   *The optimization is constrained.
   *The following   1 parameters can have non-zero 
    derivatives within the totally symmetric subspace:
             r    [ 1]
   *The following   0 parameters are to be optimized:

   *The following coordinates must be varied in an  unconstrained optimization.
             r    [ 1]
--------------------------------------------------------------------------------


 ----------------------------------------------------------------
         Coordinates used in calculation (QCOMP) 
 ----------------------------------------------------------------
 Z-matrix   Atomic            Coordinates (in bohr)
  Symbol    Number           X              Y              Z
 ----------------------------------------------------------------
     C         6        -0.00000000     0.00000000     1.58507346
     O         8         0.00000000     0.00000000    -1.28861411
 ----------------------------------------------------------------
 
   Interatomic distance matrix (Angstroms) 
 
                 C             O    
                [ 1]        [ 2]
  C    [ 1]     0.00000
  O    [ 2]     1.52069     0.00000
 rotcon2
   Rotational constants (in cm-1): 
          1.0163659645             0.0000000000
   Rotational constants (in MHz): 
      30469.8893417896             0.0000000000
  ECPDATA file not present.   Using default ECPDATA. 
  @GTFLGS-I, Hessian will be transformed to curvilinear coordinates.
  There are  218 basis functions.
 @CHECKOUT-I, Total execution time (CPU/WALL):        0.42/       0.52 seconds.
--executable xjoda finished with status     0 in        0.55 seconds (walltime).
 --invoking executable--
/nfs/workspaces/public/cfour_mpi/bin/xvmol
 SERIAL VERSION OF MOLECULE STARTED
********************************************************************************
                    INPUT FROM MOL FILE
********************************************************************************
INTGRL        1    0    1    0    0    0    0    0    0                         
         *** CFOUR Program System (Release V0.1) ***                            
Carbon Monoxide DBOC calculation                                                
    2    2 X  Y       0.10E-08              0    0                              
   9999.00      3.00                                                            
          6.00000000    1    5    1    1    1    1    1                         
C #1  -0.000000000000000   0.000000000000000   1.585073462488100                
   16    9                                                                      
   33980.0000000000       9.100000000000000E-005 -1.900000000000000E-005        
  0.000000000000000E+000  0.000000000000000E+000  0.000000000000000E+000        
  0.000000000000000E+000  0.000000000000000E+000  0.000000000000000E+000        
  0.000000000000000E+000                                                        
   5089.00000000000       7.040000000000000E-004 -1.510000000000000E-004        
  0.000000000000000E+000  0.000000000000000E+000  0.000000000000000E+000        
  0.000000000000000E+000  0.000000000000000E+000  0.000000000000000E+000        
  0.000000000000000E+000                                                        
   1157.00000000000       3.693000000000000E-003 -7.850000000000000E-004        
  0.000000000000000E+000  0.000000000000000E+000  0.000000000000000E+000        
  0.000000000000000E+000  0.000000000000000E+000  0.000000000000000E+000        
  0.000000000000000E+000                                                        
   326.600000000000       1.536000000000000E-002 -3.324000000000000E-003        
  0.000000000000000E+000  0.000000000000000E+000  0.000000000000000E+000        
  0.000000000000000E+000  0.000000000000000E+000  0.000000000000000E+000        
  0.000000000000000E+000                                                        
   106.100000000000       5.292900000000000E-002 -1.151200000000000E-002        
  0.000000000000000E+000  0.000000000000000E+000  0.000000000000000E+000        
  0.000000000000000E+000  0.000000000000000E+000  0.000000000000000E+000        
  0.000000000000000E+000                                                        
   38.1100000000000       0.147043000000000      -3.416000000000000E-002        
  0.000000000000000E+000  0.000000000000000E+000  0.000000000000000E+000        
  0.000000000000000E+000  0.000000000000000E+000  0.000000000000000E+000        
  0.000000000000000E+000                                                        
   14.7500000000000       0.305631000000000      -7.717300000000001E-002        
  0.000000000000000E+000  0.000000000000000E+000  0.000000000000000E+000        
  0.000000000000000E+000  0.000000000000000E+000  0.000000000000000E+000        
  0.000000000000000E+000                                                        
   6.03500000000000       0.399345000000000      -0.141493000000000             
  0.000000000000000E+000  0.000000000000000E+000  0.000000000000000E+000        
  0.000000000000000E+000  0.000000000000000E+000  0.000000000000000E+000        
  0.000000000000000E+000                                                        
   2.53000000000000       0.217051000000000      -0.118019000000000             
  0.000000000000000E+000  0.000000000000000E+000  0.000000000000000E+000        
  0.000000000000000E+000  0.000000000000000E+000  0.000000000000000E+000        
  0.000000000000000E+000                                                        
  0.735500000000000       1.589400000000000E-002  0.273806000000000             
   1.00000000000000       0.000000000000000E+000  0.000000000000000E+000        
  0.000000000000000E+000  0.000000000000000E+000  0.000000000000000E+000        
  0.000000000000000E+000                                                        
  0.290500000000000      -3.084000000000000E-003  0.586510000000000             
  0.000000000000000E+000   1.00000000000000       0.000000000000000E+000        
  0.000000000000000E+000  0.000000000000000E+000  0.000000000000000E+000        
  0.000000000000000E+000                                                        
  0.111100000000000       9.779999999999999E-004  0.285430000000000             
  0.000000000000000E+000  0.000000000000000E+000   1.00000000000000             
  0.000000000000000E+000  0.000000000000000E+000  0.000000000000000E+000        
  0.000000000000000E+000                                                        
   7.21600000000000       0.000000000000000E+000  0.000000000000000E+000        
  0.000000000000000E+000  0.000000000000000E+000  0.000000000000000E+000        
   1.00000000000000       0.000000000000000E+000  0.000000000000000E+000        
  0.000000000000000E+000                                                        
   19.5700000000000       0.000000000000000E+000  0.000000000000000E+000        
  0.000000000000000E+000  0.000000000000000E+000  0.000000000000000E+000        
  0.000000000000000E+000   1.00000000000000       0.000000000000000E+000        
  0.000000000000000E+000                                                        
   53.0730000000000       0.000000000000000E+000  0.000000000000000E+000        
  0.000000000000000E+000  0.000000000000000E+000  0.000000000000000E+000        
  0.000000000000000E+000  0.000000000000000E+000   1.00000000000000             
  0.000000000000000E+000                                                        
  4.145000000000000E-002  0.000000000000000E+000  0.000000000000000E+000        
  0.000000000000000E+000  0.000000000000000E+000  0.000000000000000E+000        
  0.000000000000000E+000  0.000000000000000E+000  0.000000000000000E+000        
   1.00000000000000                                                             
   10    8                                                                      
   34.5100000000000       5.378000000000000E-003  0.000000000000000E+000        
  0.000000000000000E+000  0.000000000000000E+000  0.000000000000000E+000        
  0.000000000000000E+000  0.000000000000000E+000  0.000000000000000E+000        
   7.91500000000000       3.613200000000000E-002  0.000000000000000E+000        
  0.000000000000000E+000  0.000000000000000E+000  0.000000000000000E+000        
  0.000000000000000E+000  0.000000000000000E+000  0.000000000000000E+000        
   2.36800000000000       0.142493000000000       0.000000000000000E+000        
  0.000000000000000E+000  0.000000000000000E+000  0.000000000000000E+000        
  0.000000000000000E+000  0.000000000000000E+000  0.000000000000000E+000        
  0.813200000000000       0.342150000000000        1.00000000000000             
  0.000000000000000E+000  0.000000000000000E+000  0.000000000000000E+000        
  0.000000000000000E+000  0.000000000000000E+000  0.000000000000000E+000        
  0.289000000000000       0.463864000000000       0.000000000000000E+000        
   1.00000000000000       0.000000000000000E+000  0.000000000000000E+000        
  0.000000000000000E+000  0.000000000000000E+000  0.000000000000000E+000        
  0.100700000000000       0.250028000000000       0.000000000000000E+000        
  0.000000000000000E+000   1.00000000000000       0.000000000000000E+000        
  0.000000000000000E+000  0.000000000000000E+000  0.000000000000000E+000        
   8.18200000000000       0.000000000000000E+000  0.000000000000000E+000        
  0.000000000000000E+000  0.000000000000000E+000   1.00000000000000             
  0.000000000000000E+000  0.000000000000000E+000  0.000000000000000E+000        
   24.1860000000000       0.000000000000000E+000  0.000000000000000E+000        
  0.000000000000000E+000  0.000000000000000E+000  0.000000000000000E+000        
   1.00000000000000       0.000000000000000E+000  0.000000000000000E+000        
   71.4940000000000       0.000000000000000E+000  0.000000000000000E+000        
  0.000000000000000E+000  0.000000000000000E+000  0.000000000000000E+000        
  0.000000000000000E+000   1.00000000000000       0.000000000000000E+000        
  3.218000000000000E-002  0.000000000000000E+000  0.000000000000000E+000        
  0.000000000000000E+000  0.000000000000000E+000  0.000000000000000E+000        
  0.000000000000000E+000  0.000000000000000E+000   1.00000000000000             
    6    6                                                                      
   1.84800000000000        1.00000000000000       0.000000000000000E+000        
  0.000000000000000E+000  0.000000000000000E+000  0.000000000000000E+000        
  0.000000000000000E+000                                                        
  0.649000000000000       0.000000000000000E+000   1.00000000000000             
  0.000000000000000E+000  0.000000000000000E+000  0.000000000000000E+000        
  0.000000000000000E+000                                                        
  0.228000000000000       0.000000000000000E+000  0.000000000000000E+000        
   1.00000000000000       0.000000000000000E+000  0.000000000000000E+000        
  0.000000000000000E+000                                                        
   8.65600000000000       0.000000000000000E+000  0.000000000000000E+000        
  0.000000000000000E+000   1.00000000000000       0.000000000000000E+000        
  0.000000000000000E+000                                                        
   33.2130000000000       0.000000000000000E+000  0.000000000000000E+000        
  0.000000000000000E+000  0.000000000000000E+000   1.00000000000000             
  0.000000000000000E+000                                                        
  7.660000000000000E-002  0.000000000000000E+000  0.000000000000000E+000        
  0.000000000000000E+000  0.000000000000000E+000  0.000000000000000E+000        
   1.00000000000000                                                             
    4    4                                                                      
   1.41900000000000        1.00000000000000       0.000000000000000E+000        
  0.000000000000000E+000  0.000000000000000E+000                                
  0.485000000000000       0.000000000000000E+000   1.00000000000000             
  0.000000000000000E+000  0.000000000000000E+000                                
   24.6940000000000       0.000000000000000E+000  0.000000000000000E+000        
   1.00000000000000       0.000000000000000E+000                                
  0.187000000000000       0.000000000000000E+000  0.000000000000000E+000        
  0.000000000000000E+000   1.00000000000000                                     
    2    2                                                                      
   1.01100000000000        1.00000000000000       0.000000000000000E+000        
  0.424000000000000       0.000000000000000E+000   1.00000000000000             
          8.00000000    1    5    1    1    1    1    1                         
O #2   0.000000000000000   0.000000000000000  -1.288614108596162                
   16    9                                                                      
   61420.0000000000       9.000000000000001E-005 -2.000000000000000E-005        
  0.000000000000000E+000  0.000000000000000E+000  0.000000000000000E+000        
  0.000000000000000E+000  0.000000000000000E+000  0.000000000000000E+000        
  0.000000000000000E+000                                                        
   9199.00000000000       6.980000000000001E-004 -1.590000000000000E-004        
  0.000000000000000E+000  0.000000000000000E+000  0.000000000000000E+000        
  0.000000000000000E+000  0.000000000000000E+000  0.000000000000000E+000        
  0.000000000000000E+000                                                        
   2091.00000000000       3.664000000000000E-003 -8.290000000000000E-004        
  0.000000000000000E+000  0.000000000000000E+000  0.000000000000000E+000        
  0.000000000000000E+000  0.000000000000000E+000  0.000000000000000E+000        
  0.000000000000000E+000                                                        
   590.900000000000       1.521800000000000E-002 -3.508000000000000E-003        
  0.000000000000000E+000  0.000000000000000E+000  0.000000000000000E+000        
  0.000000000000000E+000  0.000000000000000E+000  0.000000000000000E+000        
  0.000000000000000E+000                                                        
   192.300000000000       5.242300000000000E-002 -1.215600000000000E-002        
  0.000000000000000E+000  0.000000000000000E+000  0.000000000000000E+000        
  0.000000000000000E+000  0.000000000000000E+000  0.000000000000000E+000        
  0.000000000000000E+000                                                        
   69.3200000000000       0.145921000000000      -3.626100000000000E-002        
  0.000000000000000E+000  0.000000000000000E+000  0.000000000000000E+000        
  0.000000000000000E+000  0.000000000000000E+000  0.000000000000000E+000        
  0.000000000000000E+000                                                        
   26.9700000000000       0.305258000000000      -8.299200000000000E-002        
  0.000000000000000E+000  0.000000000000000E+000  0.000000000000000E+000        
  0.000000000000000E+000  0.000000000000000E+000  0.000000000000000E+000        
  0.000000000000000E+000                                                        
   11.1000000000000       0.398508000000000      -0.152090000000000             
  0.000000000000000E+000  0.000000000000000E+000  0.000000000000000E+000        
  0.000000000000000E+000  0.000000000000000E+000  0.000000000000000E+000        
  0.000000000000000E+000                                                        
   4.68200000000000       0.216980000000000      -0.115331000000000             
  0.000000000000000E+000  0.000000000000000E+000  0.000000000000000E+000        
  0.000000000000000E+000  0.000000000000000E+000  0.000000000000000E+000        
  0.000000000000000E+000                                                        
   1.42800000000000       1.759400000000000E-002  0.288979000000000             
   1.00000000000000       0.000000000000000E+000  0.000000000000000E+000        
  0.000000000000000E+000  0.000000000000000E+000  0.000000000000000E+000        
  0.000000000000000E+000                                                        
  0.554700000000000      -2.502000000000000E-003  0.586128000000000             
  0.000000000000000E+000   1.00000000000000       0.000000000000000E+000        
  0.000000000000000E+000  0.000000000000000E+000  0.000000000000000E+000        
  0.000000000000000E+000                                                        
  0.206700000000000       9.540000000000000E-004  0.277624000000000             
  0.000000000000000E+000  0.000000000000000E+000   1.00000000000000             
  0.000000000000000E+000  0.000000000000000E+000  0.000000000000000E+000        
  0.000000000000000E+000                                                        
   12.9740000000000       0.000000000000000E+000  0.000000000000000E+000        
  0.000000000000000E+000  0.000000000000000E+000  0.000000000000000E+000        
   1.00000000000000       0.000000000000000E+000  0.000000000000000E+000        
  0.000000000000000E+000                                                        
   34.9000000000000       0.000000000000000E+000  0.000000000000000E+000        
  0.000000000000000E+000  0.000000000000000E+000  0.000000000000000E+000        
  0.000000000000000E+000   1.00000000000000       0.000000000000000E+000        
  0.000000000000000E+000                                                        
   93.8810000000000       0.000000000000000E+000  0.000000000000000E+000        
  0.000000000000000E+000  0.000000000000000E+000  0.000000000000000E+000        
  0.000000000000000E+000  0.000000000000000E+000   1.00000000000000             
  0.000000000000000E+000                                                        
  6.959000000000000E-002  0.000000000000000E+000  0.000000000000000E+000        
  0.000000000000000E+000  0.000000000000000E+000  0.000000000000000E+000        
  0.000000000000000E+000  0.000000000000000E+000  0.000000000000000E+000        
   1.00000000000000                                                             
   10    8                                                                      
   63.4200000000000       6.044000000000000E-003  0.000000000000000E+000        
  0.000000000000000E+000  0.000000000000000E+000  0.000000000000000E+000        
  0.000000000000000E+000  0.000000000000000E+000  0.000000000000000E+000        
   14.6600000000000       4.179900000000000E-002  0.000000000000000E+000        
  0.000000000000000E+000  0.000000000000000E+000  0.000000000000000E+000        
  0.000000000000000E+000  0.000000000000000E+000  0.000000000000000E+000        
   4.45900000000000       0.161143000000000       0.000000000000000E+000        
  0.000000000000000E+000  0.000000000000000E+000  0.000000000000000E+000        
  0.000000000000000E+000  0.000000000000000E+000  0.000000000000000E+000        
   1.53100000000000       0.356731000000000        1.00000000000000             
  0.000000000000000E+000  0.000000000000000E+000  0.000000000000000E+000        
  0.000000000000000E+000  0.000000000000000E+000  0.000000000000000E+000        
  0.530200000000000       0.448309000000000       0.000000000000000E+000        
   1.00000000000000       0.000000000000000E+000  0.000000000000000E+000        
  0.000000000000000E+000  0.000000000000000E+000  0.000000000000000E+000        
  0.175000000000000       0.244940000000000       0.000000000000000E+000        
  0.000000000000000E+000   1.00000000000000       0.000000000000000E+000        
  0.000000000000000E+000  0.000000000000000E+000  0.000000000000000E+000        
   14.4750000000000       0.000000000000000E+000  0.000000000000000E+000        
  0.000000000000000E+000  0.000000000000000E+000   1.00000000000000             
  0.000000000000000E+000  0.000000000000000E+000  0.000000000000000E+000        
   42.7300000000000       0.000000000000000E+000  0.000000000000000E+000        
  0.000000000000000E+000  0.000000000000000E+000  0.000000000000000E+000        
   1.00000000000000       0.000000000000000E+000  0.000000000000000E+000        
   126.140000000000       0.000000000000000E+000  0.000000000000000E+000        
  0.000000000000000E+000  0.000000000000000E+000  0.000000000000000E+000        
  0.000000000000000E+000   1.00000000000000       0.000000000000000E+000        
  5.348000000000000E-002  0.000000000000000E+000  0.000000000000000E+000        
  0.000000000000000E+000  0.000000000000000E+000  0.000000000000000E+000        
  0.000000000000000E+000  0.000000000000000E+000   1.00000000000000             
    6    6                                                                      
   3.77500000000000        1.00000000000000       0.000000000000000E+000        
  0.000000000000000E+000  0.000000000000000E+000  0.000000000000000E+000        
  0.000000000000000E+000                                                        
   1.30000000000000       0.000000000000000E+000   1.00000000000000             
  0.000000000000000E+000  0.000000000000000E+000  0.000000000000000E+000        
  0.000000000000000E+000                                                        
  0.444000000000000       0.000000000000000E+000  0.000000000000000E+000        
   1.00000000000000       0.000000000000000E+000  0.000000000000000E+000        
  0.000000000000000E+000                                                        
   14.9270000000000       0.000000000000000E+000  0.000000000000000E+000        
  0.000000000000000E+000   1.00000000000000       0.000000000000000E+000        
  0.000000000000000E+000                                                        
   57.5440000000000       0.000000000000000E+000  0.000000000000000E+000        
  0.000000000000000E+000  0.000000000000000E+000   1.00000000000000             
  0.000000000000000E+000                                                        
  0.154000000000000       0.000000000000000E+000  0.000000000000000E+000        
  0.000000000000000E+000  0.000000000000000E+000  0.000000000000000E+000        
   1.00000000000000                                                             
    4    4                                                                      
   2.66600000000000        1.00000000000000       0.000000000000000E+000        
  0.000000000000000E+000  0.000000000000000E+000                                
  0.859000000000000       0.000000000000000E+000   1.00000000000000             
  0.000000000000000E+000  0.000000000000000E+000                                
   26.4830000000000       0.000000000000000E+000  0.000000000000000E+000        
   1.00000000000000       0.000000000000000E+000                                
  0.324000000000000       0.000000000000000E+000  0.000000000000000E+000        
  0.000000000000000E+000   1.00000000000000                                     
    2    2                                                                      
   1.84600000000000        1.00000000000000       0.000000000000000E+000        
  0.714000000000000       0.000000000000000E+000   1.00000000000000             
FINISH                                                                          
 
********************************************************************************
 ONE- AND TWO-ELECTRON INTEGRALS OVER SYMMETRY-ADAPTED AOS ARE CALCULATED.

  SPHERICAL HARMONICS ARE USED.
  
  INTEGRALS LESS THAN  0.10E-13 ARE NEGLECTED.

  NUCLEAR REPULSION ENERGY :   16.7032771701 A.U.
  @MOLECU-I, ONE ELECTRON INTEGRALS (CPU/WALL):        0.07/       0.08 SECONDS.
  @TWOEL-I,    4462267 INTEGRALS OF SYMMETRY TYPE  I I I I
  @TWOEL-I,   19246498 INTEGRALS OF SYMMETRY TYPE  I J I J
  @TWOEL-I,   10134728 INTEGRALS OF SYMMETRY TYPE  I I J J
  @TWOEL-I,   14233273 INTEGRALS OF SYMMETRY TYPE  I J K L
  @TWOEL-I, TOTAL NUMBER OF 2-E INTEGRALS   48076766.
  @MOLECU-I, TWO ELECTRON INTEGRALS (CPU/WALL):      225.97/      31.02 SECONDS.
 @CHECKOUT-I, Total execution time (CPU/WALL):      226.06/      31.12 seconds.

Running with 14 threads/proc

--executable xvmol finished with status     0 in       31.19 seconds (walltime).
 --invoking executable--
/nfs/workspaces/public/cfour_mpi/bin/xvmol2ja
 @GETMEM-I,  Allocated    3814 MB of main memory.
 @CHECKOUT-I, Total execution time (CPU/WALL):        0.30/       0.09 seconds.
--executable xvmol2ja finished with status     0 in        0.12 seconds (walltime).
 --invoking executable--
/nfs/workspaces/public/cfour_mpi/bin/xvprop
 @GETMEM-I,  Allocated    3814 MB of main memory.
   Property integrals will be calculated.
    --------------------------------------------------------------
                                   Property evaluated at 
    Property type                X             Y             Z
    --------------------------------------------------------------
    Dipole moment               ----          ----          ----  
    Quadrupole moment           ----          ----          ----  
    Octopole moment             ----          ----          ----  
    Relativisitic corr.         ----          ----          ----  
    Second moment            0.0000000     0.0000000     0.0000000
    Electron density         0.0000000     0.0000000     1.5850735
    Electron density         0.0000000     0.0000000    -1.2886141
    Field gradient           0.0000000     0.0000000     1.5850735
    Field gradient           0.0000000     0.0000000    -1.2886141
    Potential                0.0000000     0.0000000     1.5850735
    Potential                0.0000000     0.0000000    -1.2886141
    --------------------------------------------------------------
 @CHECKOUT-I, Total execution time (CPU/WALL):        1.35/       1.36 seconds.
--executable xvprop finished with status     0 in        1.39 seconds (walltime).
 --invoking executable--
/nfs/workspaces/public/cfour_mpi/bin/xvscf
  There are  218 functions in the AO basis.

  There are 4 irreducible representations.

       Irrep        # of functions
         1                 86
         2                 52
         3                 52
         4                 28


  Parameters for SCF calculation: 
        SCF reference function:  RHF  
  Maximum number of iterations:  150
     Full symmetry point group: CXv 
     Computational point group: C2v 
        Initial density matrix: MOREAD                 
     SCF convergence tolerance: 10**(-10)
  DIIS convergence acceleration:  ON
          Latest start for DIIS:   8
                     DIIS order:   6

  Memory information:    2523578 words required.
  Fock matrices are constructed from AO integral file.
 @GETMEM-I,  Allocated      19 MB of main memory.
  Initialization and symmetry analysis required      0.001 seconds.

  Adding electric field perturbation to one-electron Hamiltonian.
  Field direction     : Z
  Field strength      :  0.0002000 a.u.

  @INITGES-I, Occupancies from core Hamiltonian:

          Alpha population by irrep:   5    1    1    0
           Beta population by irrep:   5    1    1    0


 total no. of electrons in initial guess :  0.000000000000000E+000
  --------------------------------------------------------------------
  Iteration         Total Energy            Largest Density Difference
  --------------------------------------------------------------------
       0            16.703436864486395              0.0000000000D+00
   current occupation vector 
     5  1  1  0
     5  1  1  0
       1           -93.464785952822993              0.1753492754D+02
   current occupation vector 
     5  1  1  0
     5  1  1  0
       2           -98.180965442184075              0.1753490134D+02
   current occupation vector 
     5  1  1  0
     5  1  1  0
       3          -101.284477676520083              0.6242499563D+01
   current occupation vector 
     5  1  1  0
     5  1  1  0
       4           -96.319693479777911              0.6234739827D+01
   current occupation vector 
     5  1  1  0
     5  1  1  0
       5          -100.624802891599586              0.6827555968D+01
   current occupation vector 
     5  1  1  0
     5  1  1  0
       6           -95.712800147580595              0.6827854137D+01
   current occupation vector 
     5  1  1  0
     5  1  1  0
       7          -100.598772434889412              0.6872156296D+01
   current occupation vector 
     5  1  1  0
     5  1  1  0
       8           -95.690952882648631              0.6872274028D+01
   current occupation vector 
     5  1  1  0
     5  1  1  0
       9          -107.480126942506502              0.5577926161D+01
   current occupation vector 
     5  1  1  0
     5  1  1  0
      10          -109.841622303320037              0.1106408790D+01
   current occupation vector 
     5  1  1  0
     5  1  1  0
      11          -112.361702242656278              0.1368471789D+01
   current occupation vector 
     5  1  1  0
     5  1  1  0
      12          -112.574416535891928              0.4907081500D+00
   current occupation vector 
     5  1  1  0
     5  1  1  0
      13          -112.580577764585470              0.1284984166D+00
   current occupation vector 
     5  1  1  0
     5  1  1  0
      14          -112.582712694943851              0.6175862844D-01
   current occupation vector 
     5  1  1  0
     5  1  1  0
      15          -112.582857310312008              0.1590619190D-01
   current occupation vector 
     5  1  1  0
     5  1  1  0
      16          -112.582940056846709              0.1569519929D-01
   current occupation vector 
     5  1  1  0
     5  1  1  0
      17          -112.582967925785752              0.1061230846D-01
   current occupation vector 
     5  1  1  0
     5  1  1  0
      18          -112.582972538510504              0.5611627725D-02
   current occupation vector 
     5  1  1  0
     5  1  1  0
      19          -112.582972569093769              0.4544215841D-03
   current occupation vector 
     5  1  1  0
     5  1  1  0
      20          -112.582972569530753              0.1475986460D-04
   current occupation vector 
     5  1  1  0
     5  1  1  0
      21          -112.582972569558237              0.7941466168D-05
   current occupation vector 
     5  1  1  0
     5  1  1  0
      22          -112.582972569557583              0.9979898530D-06
   current occupation vector 
     5  1  1  0
     5  1  1  0
      23          -112.582972569557214              0.1531592785D-06
   current occupation vector 
     5  1  1  0
     5  1  1  0
      24          -112.582972569558095              0.5303599560D-07
   current occupation vector 
     5  1  1  0
     5  1  1  0
      25          -112.582972569556844              0.1457598109D-07
   current occupation vector 
     5  1  1  0
     5  1  1  0
      26          -112.582972569559345              0.5030229344D-08
   current occupation vector 
     5  1  1  0
     5  1  1  0
      27          -112.582972569557981              0.4473811321D-08
   current occupation vector 
     5  1  1  0
     5  1  1  0
      28          -112.582972569557896              0.1069935252D-08
   current occupation vector 
     5  1  1  0
     5  1  1  0

  SCF has converged.

 Density matrix saved to file den.dat
 total electron number:   14.0000000000000     
     E(SCF)=      -112.582972569558208              0.7486500309D-10

  Eigenvector printing suppressed.

 @PUTMOS-I, Writing converged MOs to NEWMOS. 
 @PUTMOS-I, Symmetry   1 Full Blocks 21 Partial Blocksize   2
 @PUTMOS-I, Symmetry   2 Full Blocks 13 Partial Blocksize   0
 @PUTMOS-I, Symmetry   3 Full Blocks 13 Partial Blocksize   0
 @PUTMOS-I, Symmetry   4 Full Blocks  7 Partial Blocksize   0
 @PUTFOCK-I, Writing converged Fock matrix to NEWFOCK. 
 @PUTFOCK-I, Symmetry   1 Full Blocks 21 Partial Blocksize   2
 @PUTFOCK-I, Symmetry   2 Full Blocks 13 Partial Blocksize   0
 @PUTFOCK-I, Symmetry   3 Full Blocks 13 Partial Blocksize   0
 @PUTFOCK-I, Symmetry   4 Full Blocks  7 Partial Blocksize   0


 
  ORBITAL EIGENVALUES (ALPHA)  (1H = 27.2113834 eV)

       MO #        E(hartree)               E(eV)           FULLSYM    COMPSYM
       ----   --------------------   --------------------   -------   ---------
    1     1         -20.6524655758        -561.9821589389     SG+        A1 (1)
    2     2         -11.5044658168        -313.0524301524     SG+        A1 (1)
    3     3          -1.3065132875         -35.5520339832     SG+        A1 (1)
    4     4          -0.7991601589         -21.7462534813     SG+        A1 (1)
    5     5          -0.5458922396         -14.8544830269     SG+        A1 (1)
    6    87          -0.5134388724         -13.9713820092      PI        B1 (2)
    7   139          -0.5134388724         -13.9713820092      PI        B2 (3)
  +++++++++++++++++++++++++++++++++++++++++++++++++++++++++++++++++++++++++++++
    8    88           0.0084241712           0.2292333528      PI        B1 (2)
    9   140           0.0084241712           0.2292333528      PI        B2 (3)
   10     6           0.0628041690           1.7089883228     SG+        A1 (1)
   11     7           0.0682295972           1.8566217298     SG+        A1 (1)
   12    89           0.0841951687           2.2910670163      PI        B1 (2)
   13   141           0.0841951687           2.2910670163      PI        B2 (3)
   14     8           0.1566757813           4.2633647550     SG+        A1 (1)
   15    90           0.1765354560           4.8037739777      PI        B1 (2)
   16   142           0.1765354560           4.8037739777      PI        B2 (3)
   17     9           0.2132609024           5.8031241796     SG+        A1 (1)
   18    10           0.2237075850           6.0873928655      DE        A1 (1)
   19   191           0.2237075850           6.0873928655      DE        A2 (4)
   20    91           0.2899564156           7.8901151943      PI        B1 (2)
   21   143           0.2899564156           7.8901151943      PI        B2 (3)
   22    11           0.3001707646           8.1680617597     SG+        A1 (1)
   23    12           0.3354834719           9.1289693791     SG+        A1 (1)
   24    92           0.4028193919          10.9612729144      PI        B1 (2)
   25   144           0.4028193919          10.9612729144      PI        B2 (3)
   26    13           0.4365500940          11.8791319820     SG+        A1 (1)
   27    14           0.5123590817          13.9419994105     SG+        A1 (1)
   28   192           0.5489227433          14.9369472238      DE        A2 (4)
   29    15           0.5489227433          14.9369472238      DE        A1 (1)
   30    93           0.6232398439          16.9592183433      PI        B1 (2)
   31   145           0.6232398439          16.9592183433      PI        B2 (3)
   32    16           0.7128117451          19.3965936872     SG+        A1 (1)
   33   146           0.7353067418          20.0087136690      PH        B2 (3)
   34    94           0.7353067418          20.0087136690      PH        B1 (2)
   35    17           0.7440116649          20.2455866687      DE        A1 (1)
   36   193           0.7440116649          20.2455866687      DE        A2 (4)
   37   147           0.7823804466          21.2896542962      PI        B2 (3)
   38    95           0.7823804466          21.2896542962      PI        B1 (2)
   39    18           0.8240504968          22.4235540096     SG+        A1 (1)
   40   194           0.8655504965          23.5528264129      DE        A2 (4)
   41    19           0.8655504965          23.5528264130      DE        A1 (1)
   42    20           0.8751466483          23.8139509785     SG+        A1 (1)
   43    96           0.8924762621          24.2855137437      PI        B1 (2)
   44   148           0.8924762621          24.2855137437      PI        B2 (3)
   45    97           1.0346235564          28.1535382668      PI        B1 (2)
   46   149           1.0346235564          28.1535382668      PI        B2 (3)
   47    21           1.1277615944          30.6879531299     SG+        A1 (1)
   48    22           1.3766967618          37.4618234116     SG+        A1 (1)
   49    98           1.4232137835          38.7276159240      PH        B1 (2)
   50   150           1.4232137835          38.7276159240      PH        B2 (3)
   51   151           1.5143737024          41.2082034265      PI        B2 (3)
   52    99           1.5143737024          41.2082034265      PI        B1 (2)
   53    23           1.5783326607          42.9486151640      DE        A1 (1)
   54   195           1.5783326607          42.9486151640      DE        A2 (4)
   55    24           1.6049652151          43.6733238123     SG+        A1 (1)
   56   100           1.6379496515          44.5708759578      PI        B1 (2)
   57   152           1.6379496515          44.5708759578      PI        B2 (3)
   58   196           1.6912628809          46.0216026816      DE        A2 (4)
   59    25           1.6912628809          46.0216026816      DE        A1 (1)
   60    26           1.9115880086          52.0169542052     SG+        A1 (1)
   61    27           1.9767655219          53.7905245076     SG+        A1 (1)
   62   197           2.0744168664          56.4477526833      PI        A2 (4)
   63    28           2.0744168664          56.4477526833      PI        A1 (1)
   64   101           2.0870388839          56.7912152404      PI        B1 (2)
   65   153           2.0870388839          56.7912152404      PI        B2 (3)
   66    29           2.1345993831          58.0854022182      DE        A1 (1)
   67   198           2.1345993831          58.0854022182      DE        A2 (4)
   68   154           2.2133356080          60.2279238213      PH        B2 (3)
   69   102           2.2133356080          60.2279238213      PH        B1 (2)
   70   155           2.2296070003          60.6706909169      PH        B2 (3)
   71   103           2.2296070003          60.6706909169      PH        B1 (2)
   72    30           2.2365307695          60.8590962546     SG+        A1 (1)
   73   104           2.2383124263          60.9075776010      PI        B1 (2)
   74   156           2.2383124263          60.9075776010      PI        B2 (3)
   75   199           2.2954595569          62.4626300811      DE        A2 (4)
   76    31           2.2954595569          62.4626300812      DE        A1 (1)
   77    32           2.4359778593          66.2863274846     SG+        A1 (1)
   78   105           2.5190513409          68.5468718421      PI        B1 (2)
   79   157           2.5190513409          68.5468718421      PI        B2 (3)
   80   106           2.5986520437          70.7129170835      PI        B1 (2)
   81   158           2.5986520437          70.7129170835      PI        B2 (3)
   82    33           2.6118523454          71.0721155537     SG+        A1 (1)
   83   200           2.6891245683          73.1747996390      DE        A2 (4)
   84    34           2.6891245683          73.1747996390      DE        A1 (1)
   85    35           3.0357496647          82.6069480316     SG+        A1 (1)
   86   107           3.4572412425          94.0763169570      PI        B1 (2)
   87   159           3.4572412425          94.0763169570      PI        B2 (3)
   88    36           3.7044552643         100.8033524851      PI        A1 (1)
   89   201           3.7044552643         100.8033524851      PI        A2 (4)
   90    37           3.9048634161         106.2567355398     SG+        A1 (1)
   91   160           3.9494509985         107.4700253407      PH        B2 (3)
   92   108           3.9494509985         107.4700253407      PH        B1 (2)
   93   161           4.1331794641         112.4695310587      PH        B2 (3)
   94   109           4.1331794641         112.4695310587      PH        B1 (2)
   95   110           4.1599756384         113.1986920321      PI        B1 (2)
   96   162           4.1599756384         113.1986920321      PI        B2 (3)
   97    38           4.1645568374         113.3233527943     SG+        A1 (1)
   98   202           4.2041826195         114.4016251437      DE        A2 (4)
   99    39           4.2041826195         114.4016251437      DE        A1 (1)
  100    40           4.2811771842         116.4967537619      DE        A1 (1)
  101   203           4.2811771842         116.4967537619      DE        A2 (4)
  102    41           4.4388905686         120.7883531325     SG+        A1 (1)
  103   163           4.5869193893         124.8164221259      PI        B2 (3)
  104   111           4.5869193893         124.8164221259      PI        B1 (2)
  105   204           4.7443081429         129.0991878451      DE        A2 (4)
  106    42           4.7443081429         129.0991878452      DE        A1 (1)
  107    43           4.7512202727         129.2872764579     SG+        A1 (1)
  108   164           5.1854195576         141.1024396730      PI        B2 (3)
  109   112           5.1854195576         141.1024396730      PI        B1 (2)
  110    44           5.3117278630         144.5394633954     SG+        A1 (1)
  111   113           5.3545393366         145.7044228183      PI        B1 (2)
  112   165           5.3545393366         145.7044228184      PI        B2 (3)
  113   205           5.8382991227         158.8681958315      PI        A2 (4)
  114    45           5.8382991227         158.8681958315      PI        A1 (1)
  115   114           5.9143231855         160.9369157528      PH        B1 (2)
  116   166           5.9143231855         160.9369157528      PH        B2 (3)
  117    46           6.0808930123         165.4695111729     SG+        A1 (1)
  118   206           6.1353463951         166.9512630490      DE        A2 (4)
  119    47           6.1353463951         166.9512630490      DE        A1 (1)
  120   115           6.1549110164         167.4836434614      PI        B1 (2)
  121   167           6.1549110164         167.4836434614      PI        B2 (3)
  122    48           6.2119878428         169.0367828666     SG+        A1 (1)
  123   116           6.3671084383         173.2578288651      PH        B1 (2)
  124   168           6.3671084383         173.2578288651      PH        B2 (3)
  125   207           6.3779509348         173.5528681943      DE        A2 (4)
  126    49           6.3779509348         173.5528681943      DE        A1 (1)
  127   208           6.5017926331         176.9227721266      DE        A2 (4)
  128    50           6.5017926331         176.9227721267      DE        A1 (1)
  129   117           6.8465714378         186.3046803685      PI        B1 (2)
  130   169           6.8465714378         186.3046803685      PI        B2 (3)
  131    51           7.1350663017         194.1550247196     SG+        A1 (1)
  132   170           7.3997230635         201.3567013342      PI        B2 (3)
  133   118           7.3997230635         201.3567013342      PI        B1 (2)
  134    52           8.0221529340         218.2938791801     SG+        A1 (1)
  135    53           9.6345487565         262.1694000999     SG+        A1 (1)
  136   119           9.8144549820         267.0648973778      PI        B1 (2)
  137   171           9.8144549820         267.0648973778      PI        B2 (3)
  138    54          10.6444252622         289.6495368828      PI        A1 (1)
  139   209          10.6444252622         289.6495368828      PI        A2 (4)
  140    55          10.6995459978         291.1494483528     SG+        A1 (1)
  141   172          10.7456189861         292.4031581004      PH        B2 (3)
  142   120          10.7456189861         292.4031581004      PH        B1 (2)
  143   210          10.9780549422         298.7280620184      DE        A2 (4)
  144    56          10.9780549422         298.7280620184      DE        A1 (1)
  145   121          10.9838956178         298.8869948818      PI        B1 (2)
  146   173          10.9838956178         298.8869948818      PI        B2 (3)
  147    57          11.1917876168         304.5440237710     SG+        A1 (1)
  148   174          11.8830400583         323.3539589850      PH        B2 (3)
  149   122          11.8830400583         323.3539589850      PH        B1 (2)
  150    58          12.0093804751         326.7918565045      DE        A1 (1)
  151   211          12.0093804751         326.7918565045      DE        A2 (4)
  152   123          12.4495623795         338.7698150714      PI        B1 (2)
  153   175          12.4495623795         338.7698150714      PI        B2 (3)
  154    59          12.6800465340         345.0416077655     SG+        A1 (1)
  155   212          12.7359190554         346.5619763682      DE        A2 (4)
  156    60          12.7359190554         346.5619763682      DE        A1 (1)
  157   176          13.0924368429         356.2633185726      PI        B2 (3)
  158   124          13.0924368429         356.2633185726      PI        B1 (2)
  159    61          13.6538733203         371.5407818124     SG+        A1 (1)
  160    62          17.4028211993         473.5548398968     SG+        A1 (1)
  161   125          18.7679249966         510.7012027046      PI        B1 (2)
  162   177          18.7679249966         510.7012027049      PI        B2 (3)
  163    63          19.8826583996         541.0346407226     SG+        A1 (1)
  164   213          26.2800282173         715.1159235837      DE        A2 (4)
  165    64          26.2800282173         715.1159235837      DE        A1 (1)
  166   178          26.6246356715         724.4931691415      PI        B2 (3)
  167   126          26.6246356715         724.4931691415      PI        B1 (2)
  168    65          27.1091611034         737.6777764378     SG+        A1 (1)
  169   127          33.4932361793         911.3972909811      PI        B1 (2)
  170   179          33.4932361793         911.3972909811      PI        B2 (3)
  171    66          34.3302773418         934.1743389764     SG+        A1 (1)
  172    67          35.7011302288         971.4771424682     SG+        A1 (1)
  173    68          47.0732782602        1280.9290226324      DE        A1 (1)
  174   214          47.0732782602        1280.9290226325      DE        A2 (4)
  175   128          47.2579715326        1285.9547820788      PI        B1 (2)
  176   180          47.2579715326        1285.9547820788      PI        B2 (3)
  177    69          47.5843080526        1294.8348502425     SG+        A1 (1)
  178    70          63.8219440284        1736.6833882897     SG+        A1 (1)
  179   129          66.3430999872        1805.2875296964      PI        B1 (2)
  180   181          66.3430999872        1805.2875296966      PI        B2 (3)
  181    71          67.1503129988        1827.2529124397     SG+        A1 (1)
  182   130          98.5254790500        2681.0145850993      PH        B1 (2)
  183   182          98.5254790500        2681.0145850994      PH        B2 (3)
  184   215          98.5388956518        2681.3796693932      DE        A2 (4)
  185    72          98.5388956518        2681.3796693933      DE        A1 (1)
  186   131          98.5529435624        2681.7619324759      PI        B1 (2)
  187   183          98.5529435624        2681.7619324759      PI        B2 (3)
  188    73          98.5660989981        2682.1199100810     SG+        A1 (1)
  189   132         103.3025047359        2811.0040625477      PH        B1 (2)
  190   184         103.3025047359        2811.0040625477      PH        B2 (3)
  191   216         103.3077058452        2811.1455919284      DE        A2 (4)
  192    74         103.3077058454        2811.1455919327      DE        A1 (1)
  193   133         103.3426212380        2812.0956880686      PI        B1 (2)
  194   185         103.3426212380        2812.0956880686      PI        B2 (3)
  195    75         103.3469503029        2812.2134879120     SG+        A1 (1)
  196   217         114.9796697636        3128.7558771427      DE        A2 (4)
  197    76         114.9796697636        3128.7558771427      DE        A1 (1)
  198   186         115.1460008569        3133.2819762948      PI        B2 (3)
  199   134         115.1460008569        3133.2819762948      PI        B1 (2)
  200    77         115.3948406417        3140.0532510837     SG+        A1 (1)
  201   135         116.7862556069        3177.9155771684      PI        B1 (2)
  202   187         116.7862556069        3177.9155771686      PI        B2 (3)
  203    78         117.4627582285        3196.3241493771     SG+        A1 (1)
  204    79         121.9497207388        3318.4206065454     SG+        A1 (1)
  205    80         198.5525443056        5402.8894081438      DE        A1 (1)
  206   218         198.5525443056        5402.8894081438      DE        A2 (4)
  207   188         198.6531660809        5405.6274658505      PI        B2 (3)
  208   136         198.6531660809        5405.6274658507      PI        B1 (2)
  209    81         198.8217208909        5410.2140754100     SG+        A1 (1)
  210    82         216.3491204152        5887.1588638698     SG+        A1 (1)
  211   137         224.8193116344        6117.6444846072      PI        B1 (2)
  212   189         224.8193116344        6117.6444846074      PI        B2 (3)
  213    83         225.4502486712        6134.8131542163     SG+        A1 (1)
  214   138         395.2986850158       10756.6240754810      PI        B1 (2)
  215   190         395.2986850158       10756.6240754815      PI        B2 (3)
  216    84         395.8531703192       10771.7123876620     SG+        A1 (1)
  217    85         508.6566237838       13841.2504087311     SG+        A1 (1)
  218    86         895.1698761499       24358.8107080455     SG+        A1 (1)


  VSCF finished.

 @CHECKOUT-I, Total execution time (CPU/WALL):       52.56/      12.95 seconds.
--executable xvscf finished with status     0 in       12.99 seconds (walltime).
 --invoking executable--
/nfs/workspaces/public/cfour_mpi/bin/xvtran
 @GETMEM-I,  Allocated    3814 MB of main memory.
  Full RHF integral transformation
  Transformation of IIII integrals :
  1 pass through the AO integral file was required.
     4462267 AO integrals were read.
     8684940 MO integrals were written to HF2.
  Transformation of IIJJ integrals :
  1 pass through the AO integral file was required.
    10134728 AO integrals were read.
    14438326 MO integrals were written to HF2.
  Transformation of IJIJ integrals :
  1 pass through the AO integral file was required.
    19246498 AO integrals were read.
    26880321 MO integrals were written to HF2.
  Transformation of IJKL integrals :
  1 pass through the AO integral file was required.
    14233273 AO integrals were read.
    18184887 MO integrals were written to HF2.
  Summary of active molecular orbitals: 
------------------------------------------------------------------------
 
  Index      Eigenvalue    Symmetry    Index      Eigenvalue    Symmetry
------------------------------------------------------------------------
     1       -20.6524656        1       110         4.1331795        2
     2       -11.5044658        1       111         4.1599756        2
     3        -1.3065133        1       112         4.5869194        2
     4        -0.7991602        1       113         5.1854196        2
     5        -0.5458922        1       114         5.3545393        2
     6        -0.5134389        2       115         5.9143232        2
     7        -0.5134389        3       116         6.1549110        2
     8         0.0628042        1       117         6.3671084        2
     9         0.0682296        1       118         6.8465714        2
    10         0.1566758        1       119         7.3997231        2
    11         0.2132609        1       120         9.8144550        2
    12         0.2237076        1       121        10.7456190        2
    13         0.3001708        1       122        10.9838956        2
    14         0.3354835        1       123        11.8830401        2
    15         0.4365501        1       124        12.4495624        2
    16         0.5123591        1       125        13.0924368        2
    17         0.5489227        1       126        18.7679250        2
    18         0.7128117        1       127        26.6246357        2
    19         0.7440117        1       128        33.4932362        2
    20         0.8240505        1       129        47.2579715        2
    21         0.8655505        1       130        66.3431000        2
    22         0.8751466        1       131        98.5254791        2
    23         1.1277616        1       132        98.5529436        2
    24         1.3766968        1       133       103.3025047        2
    25         1.5783327        1       134       103.3426212        2
    26         1.6049652        1       135       115.1460009        2
    27         1.6912629        1       136       116.7862556        2
    28         1.9115880        1       137       198.6531661        2
    29         1.9767655        1       138       224.8193116        2
    30         2.0744169        1       139       395.2986850        2
    31         2.1345994        1       140         0.0084242        3
    32         2.2365308        1       141         0.0841952        3
    33         2.2954596        1       142         0.1765355        3
    34         2.4359779        1       143         0.2899564        3
    35         2.6118523        1       144         0.4028194        3
    36         2.6891246        1       145         0.6232398        3
    37         3.0357497        1       146         0.7353067        3
    38         3.7044553        1       147         0.7823804        3
    39         3.9048634        1       148         0.8924763        3
    40         4.1645568        1       149         1.0346236        3
    41         4.2041826        1       150         1.4232138        3
    42         4.2811772        1       151         1.5143737        3
    43         4.4388906        1       152         1.6379497        3
    44         4.7443081        1       153         2.0870389        3
    45         4.7512203        1       154         2.2133356        3
    46         5.3117279        1       155         2.2296070        3
    47         5.8382991        1       156         2.2383124        3
    48         6.0808930        1       157         2.5190513        3
    49         6.1353464        1       158         2.5986520        3
    50         6.2119878        1       159         3.4572412        3
    51         6.3779509        1       160         3.9494510        3
    52         6.5017926        1       161         4.1331795        3
    53         7.1350663        1       162         4.1599756        3
    54         8.0221529        1       163         4.5869194        3
    55         9.6345488        1       164         5.1854196        3
    56        10.6444253        1       165         5.3545393        3
    57        10.6995460        1       166         5.9143232        3
    58        10.9780549        1       167         6.1549110        3
    59        11.1917876        1       168         6.3671084        3
    60        12.0093805        1       169         6.8465714        3
    61        12.6800465        1       170         7.3997231        3
    62        12.7359191        1       171         9.8144550        3
    63        13.6538733        1       172        10.7456190        3
    64        17.4028212        1       173        10.9838956        3
    65        19.8826584        1       174        11.8830401        3
    66        26.2800282        1       175        12.4495624        3
    67        27.1091611        1       176        13.0924368        3
    68        34.3302773        1       177        18.7679250        3
    69        35.7011302        1       178        26.6246357        3
    70        47.0732783        1       179        33.4932362        3
    71        47.5843081        1       180        47.2579715        3
    72        63.8219440        1       181        66.3431000        3
    73        67.1503130        1       182        98.5254791        3
    74        98.5388957        1       183        98.5529436        3
    75        98.5660990        1       184       103.3025047        3
    76       103.3077058        1       185       103.3426212        3
    77       103.3469503        1       186       115.1460009        3
    78       114.9796698        1       187       116.7862556        3
    79       115.3948406        1       188       198.6531661        3
    80       117.4627582        1       189       224.8193116        3
    81       121.9497207        1       190       395.2986850        3
    82       198.5525443        1       191         0.2237076        4
    83       198.8217209        1       192         0.5489227        4
    84       216.3491204        1       193         0.7440117        4
    85       225.4502487        1       194         0.8655505        4
    86       395.8531703        1       195         1.5783327        4
    87       508.6566238        1       196         1.6912629        4
    88       895.1698761        1       197         2.0744169        4
    89         0.0084242        2       198         2.1345994        4
    90         0.0841952        2       199         2.2954596        4
    91         0.1765355        2       200         2.6891246        4
    92         0.2899564        2       201         3.7044553        4
    93         0.4028194        2       202         4.2041826        4
    94         0.6232398        2       203         4.2811772        4
    95         0.7353067        2       204         4.7443081        4
    96         0.7823804        2       205         5.8382991        4
    97         0.8924763        2       206         6.1353464        4
    98         1.0346236        2       207         6.3779509        4
    99         1.4232138        2       208         6.5017926        4
   100         1.5143737        2       209        10.6444253        4
   101         1.6379497        2       210        10.9780549        4
   102         2.0870389        2       211        12.0093805        4
   103         2.2133356        2       212        12.7359191        4
   104         2.2296070        2       213        26.2800282        4
   105         2.2383124        2       214        47.0732783        4
   106         2.5190513        2       215        98.5388957        4
   107         2.5986520        2       216       103.3077058        4
   108         3.4572412        2       217       114.9796698        4
   109         3.9494510        2       218       198.5525443        4
------------------------------------------------------------------------
  -20.6524655758180       -11.5044658167716       -1.30651328749552     
 -0.799160158879367      -0.545892239603388      -0.513438872393950     
 -0.513438872393936       6.280416903767266E-002  6.822959724307218E-002
  0.156675781320832       0.213260902405349       0.223707585019483     
  0.300170764551830       0.335483471931613       0.436550094031424     
  0.512359081697461       0.548922743259946       0.712811745072900     
  0.744011664938482       0.824050496807751       0.865550496523104     
  0.875146648314013        1.12776159443209        1.37669676182812     
   1.57833266073554        1.60496521511920        1.69126288087184     
   1.91158800861365        1.97676552187468        2.07441686640810     
   2.13459938307368        2.23653076949371        2.29545955686884     
   2.43597785934700        2.61185234535698        2.68912456832394     
   3.03574966466549        3.70445526430156        3.90486341608649     
   4.16455683742774        4.20418261953342        4.28117718417325     
   4.43889056858791        4.74430814293641        4.75122027268646     
   5.31172786295708        5.83829912269198        6.08089301233058     
   6.13534639510459        6.21198784280002        6.37795093484041     
   6.50179263310267        7.13506630168681        8.02215293398376     
   9.63454875652928        10.6444252622154        10.6995459978279     
   10.9780549421974        11.1917876167590        12.0093804751033     
[...]
 Convergence information after    14 iterations: 
 Largest element of residual vector : -0.84934879E-06.
 Largest element of DIIS residual   : -0.65556746E-06.
 Convergence information after    15 iterations: 
 Largest element of residual vector :  0.77845540E-06.
 Largest element of DIIS residual   :  0.50442049E-06.
 Convergence information after    16 iterations: 
 Largest element of residual vector :  0.37968271E-06.
 Largest element of DIIS residual   :  0.21899255E-06.
 Convergence information after    17 iterations: 
 Largest element of residual vector :  0.21211076E-06.
 Largest element of DIIS residual   :  0.90225151E-07.
 Perturbed amplitude equations converged in    17 iterations.
  Dominant contributions to perturbed wavefunction:
    7    7  140   28   0.2188251803 ABAB
    7    7   28  140   0.2188251803 ABAB
    7    7  140   39  -0.2165659473 ABAB
    7    7   39  140  -0.2165659473 ABAB
    7    7  140   45  -0.2155756785 ABAB
    7    7   45  140  -0.2155756785 ABAB
    7    7  140   22  -0.2054992347 ABAB
    7    7   22  140  -0.2054992347 ABAB
    7    7  140   29  -0.1588426774 ABAB
    7    7   29  140  -0.1588426774 ABAB
    7    7  140   57   0.1558062903 ABAB
    7    7   57  140   0.1558062903 ABAB
    7    0   35    0  -0.1548811703 AA  
    7    7  140   54   0.1533266226 ABAB
    7    7   54  140   0.1533266226 ABAB
    7    6   28   89   0.1368311544 ABAB
    6    7   89   28   0.1368311544 ABAB
    7    6   39   89  -0.1363921854 ABAB
    6    7   89   39  -0.1363921854 ABAB
    7    6   45   89  -0.1353275230 ABAB
  norm of converged amps    1.74418729172846     
 Starting iterative solution of the perturbed Lambda equations.
 The DIIS procedure is used to accelerate convergence.
 Convergence criterion is 10**(-7).
 Maximum number of iterations is 100.
 Convergence information after     1 iterations: 
 Largest element of residual vector :  0.75428792E-01.
 Largest element of DIIS residual   :  0.75428792E-01.
 Convergence information after     2 iterations: 
 Largest element of residual vector :  0.14320259E-01.
 Largest element of DIIS residual   :  0.10792678E-01.
 Convergence information after     3 iterations: 
 Largest element of residual vector : -0.64542732E-02.
 Largest element of DIIS residual   : -0.60854730E-02.
 Convergence information after     4 iterations: 
 Largest element of residual vector : -0.38916522E-02.
 Largest element of DIIS residual   : -0.34781388E-02.
 Convergence information after     5 iterations: 
 Largest element of residual vector : -0.31556182E-02.
 Largest element of DIIS residual   : -0.23217546E-02.
 Convergence information after     6 iterations: 
 Largest element of residual vector : -0.15118003E-02.
 Largest element of DIIS residual   : -0.67216239E-03.
 Convergence information after     7 iterations: 
 Largest element of residual vector : -0.68595616E-03.
 Largest element of DIIS residual   : -0.30877642E-03.
 Convergence information after     8 iterations: 
 Largest element of residual vector : -0.21002063E-03.
 Largest element of DIIS residual   : -0.13735611E-03.
 Convergence information after     9 iterations: 
 Largest element of residual vector : -0.86892659E-04.
 Largest element of DIIS residual   : -0.37625176E-04.
 Convergence information after    10 iterations: 
 Largest element of residual vector : -0.32066653E-04.
 Largest element of DIIS residual   : -0.14375132E-04.
 Convergence information after    11 iterations: 
 Largest element of residual vector : -0.65680931E-05.
 Largest element of DIIS residual   : -0.41899442E-05.
 Convergence information after    12 iterations: 
 Largest element of residual vector : -0.19055954E-05.
 Largest element of DIIS residual   : -0.16498047E-05.
 Convergence information after    13 iterations: 
 Largest element of residual vector : -0.14521849E-05.
 Largest element of DIIS residual   : -0.12561346E-05.
 Convergence information after    14 iterations: 
 Largest element of residual vector : -0.63164660E-06.
 Largest element of DIIS residual   : -0.41874716E-06.
 Convergence information after    15 iterations: 
 Largest element of residual vector :  0.48842751E-06.
 Largest element of DIIS residual   :  0.33674940E-06.
 Convergence information after    16 iterations: 
 Largest element of residual vector :  0.24837578E-06.
 Largest element of DIIS residual   :  0.15825510E-06.
 Convergence information after    17 iterations: 
 Largest element of residual vector :  0.14459917E-06.
 Largest element of DIIS residual   :  0.73429132E-07.
 Perturbed Lambda equations converged in    17 iterations.
  Dominant contributions to perturbed wavefunction:
    7    7  140   28   0.1889473946 ABAB
    7    7   28  140   0.1889473946 ABAB
    7    7  140   45  -0.1837782995 ABAB
    7    7   45  140  -0.1837782995 ABAB
    7    7  140   39  -0.1832636423 ABAB
    7    7   39  140  -0.1832636423 ABAB
    7    7  140   22  -0.1751529983 ABAB
    7    7   22  140  -0.1751529983 ABAB
    7    7  140   29  -0.1326912580 ABAB
    7    7   29  140  -0.1326912580 ABAB
    7    7  140   54   0.1319864291 ABAB
    7    7   54  140   0.1319864291 ABAB
    7    7  140   57   0.1317483659 ABAB
    7    7   57  140   0.1317483659 ABAB
    7    6   28   89   0.1163168520 ABAB
    6    7   89   28   0.1163168520 ABAB
    7    6   45   89  -0.1138295268 ABAB
    6    7   89   45  -0.1138295268 ABAB
    7    6   39   89  -0.1137872674 ABAB
    6    7   89   39  -0.1137872674 ABAB
        The DBOC first-order density matrix is being calculated 
             (Symmetry block 3, perturbation   2)
 term   3.25942536466846     
 final tnorm  0.818335237153196     
  norm contr. I: |<0|L dT/dx|0>|^2   0.000000000000000E+000
  norm contr. II: <0|[nabla(1+L)e-T][nabla e^T]|0>   3.25942536466846     
  total norm contribution   3.25942536466846     
 oo  8.435199952731318E-003
 vv  -24.4023689093972     
 vo  7.331560932528972E-002
  Correlated perturbed 1-el contribution to DBOC  -24.3206181001192       cm**-1
  SUM_I |dc_I/dx|^2 contribution to DBOC   12.2707899850162       cm**-1
 
 
  The total diagonal Born-Oppenheimer correction (DBOC) is:      0.0040090532 a.u.
  The total diagonal Born-Oppenheimer correction (DBOC) is:        879.885482 cm-1
 
 Total CC energy including DBOC  -113.118680970257     
 First-order density matrix is being calculated  (Symmetry block 3, perturbation   2)
 Calculation of the contributions of <pq||rs> to dI(i,j)/dx required   3.3 seconds.
 Calculation of the contributions of <pq||rs> to dI(a,b)/dx required  16.6 seconds.
 Calculation of the contributions of <pq||rs> to dI(i,a)/dx required   9.7 seconds.
 First-order Z-vector equations are solved for 1 perturbation.
 Convergence reached after  19 iterations.
        U*G(pq,rs) contribution is being calculated
             (Symmetry block 3, perturbation   2)

 CCSD contribution to force constants 

        0.0000000000        0.0000000000        0.0000000000
        0.0000000000        0.0000000000        0.0000000000
        0.0000000000        0.0000000000        0.0000000000
        0.0000000000        0.0000000000        0.0000000000
        0.0000000000        0.0000000000        0.0000000000
        0.0000000000        0.0000000000        0.0000000000
        0.0000000000        0.0000000000        0.0000000000
        0.0000000000        0.0000000000        0.0000000000
        0.0000000000        0.0000000000        0.0000000000
        0.0000000000        0.0000000000        0.0000000000
        0.0000000000        0.0000000000        0.0000000000
        0.0000000000       -2.5562592725        2.5562592725

 CCSD contribution to dipole derivatives 

        0.0000000000        0.0000000000        0.0000000000
        0.0000000000        0.0000000000        0.0000000000
        0.0000000000        0.0000000000        0.0000000000
        0.0000000000        0.0000000000       -0.0567396911
        0.0000000000        0.0000000000        0.0000000000
        0.0000000000        0.0000000000        0.0000000000
 @CHECKOUT-I, Total execution time (CPU/WALL):     1283.96/     541.05 seconds.
--executable xsdcc finished with status     0 in      541.28 seconds (walltime).
 --invoking executable--
/nfs/workspaces/public/cfour_mpi/bin/xanti
 @GETMEM-I,  Allocated    3814 MB of main memory.
 CCSD MO derivative gammas will be sorted to Mulliken order.
 @CHECKOUT-I, Total execution time (CPU/WALL):       13.96/      22.27 seconds.
--executable xanti finished with status     0 in       22.41 seconds (walltime).
 --invoking executable--
/nfs/workspaces/public/cfour_mpi/bin/xbcktrn
 @GETMEM-I,  Allocated    3814 MB of main memory.
 CCSD MO derivative gammas will be transformed to the AO basis.
 @CHECKOUT-I, Total execution time (CPU/WALL):       33.10/      16.97 seconds.
--executable xbcktrn finished with status     0 in       17.02 seconds (walltime).
 --invoking executable--
/nfs/workspaces/public/cfour_mpi/bin/xvdint
 @GETMEM-I,  Allocated    3814 MB of main memory.
 One- and two-electron integral derivatives are calculated
 for RHF-CC/MBPT hessians and dipole derivatives.
 Spherical gaussians are used.
  magnet F F
                    8722  records have been written to the Sort file.
  Total length of Sort file :             178609116  words.
 Evaluation of 2el integral derivatives

                      Two-electron integral gradient
                      ------------------------------

                         C #1 z     0.0000000000
                         O #2 z     0.0000000000


 C #1       0.0000000000            0.0395702110            0.0000000000
 O #2       0.0000000000           -0.0395702110            0.0000000000


 Evaluation of 2e integral derivatives required  359.08 seconds.
  contribution to Hessian
        0.0000000000        0.0000000000        0.0000000000
        0.0000000000        0.0395702110       -0.0395702110
 @CHECKOUT-I, Total execution time (CPU/WALL):      359.06/      71.92 seconds.
--executable xvdint finished with status     0 in       72.08 seconds (walltime).
 --invoking executable--
/nfs/workspaces/public/cfour_mpi/bin/xanti
 @GETMEM-I,  Allocated    3814 MB of main memory.
 CCSD MO gammas will be sorted to Mulliken order.
 @CHECKOUT-I, Total execution time (CPU/WALL):       15.76/      47.20 seconds.
--executable xanti finished with status     0 in       47.37 seconds (walltime).
 --invoking executable--
/nfs/workspaces/public/cfour_mpi/bin/xbcktrn
 @GETMEM-I,  Allocated    3814 MB of main memory.
 CCSD MO gammas will be transformed to the AO basis.
 @CHECKOUT-I, Total execution time (CPU/WALL):       65.29/      18.09 seconds.
--executable xbcktrn finished with status     0 in       18.16 seconds (walltime).
 --invoking executable--
/nfs/workspaces/public/cfour_mpi/bin/xvdint
 @GETMEM-I,  Allocated    3814 MB of main memory.
 One- and two-electron integral derivatives are calculated
 for RHF-CC/MBPT hessians and dipole derivatives.
 Spherical gaussians are used.
  magnet F F

                     Kinetic energy integral gradient
                     --------------------------------

                         C #1 z    -0.6267883844
                         O #2 z     0.6267883844


 C #1       0.0000000000            0.0000000000           -0.6267883844
 O #2       0.0000000000            0.0000000000            0.6267883844



                   Nuclear attraction integral gradient
                   ------------------------------------

                         C #1 z    14.9026796847
                         O #2 z   -14.9026796847


 C #1       0.0000000000            0.0000000000           14.9026796847
 O #2       0.0000000000            0.0000000000          -14.9026796847



                      Reorthonormalization gradient
                      -----------------------------

                         C #1 z     0.0000000000
                         O #2 z     0.0000000000


 C #1       0.0000000000            0.0000000000            0.0000000000
 O #2       0.0000000000            0.0000000000            0.0000000000



                     Kinetic energy integral Hessian
                     -------------------------------


           Symmetry 1

           C #1 z      O #2 z

 C #1 z    0.652313
 O #2 z   -0.652313    0.652313


           Symmetry 2

           C #1 x      O #2 x

 C #1 x   -0.515172
 O #2 x    0.515172   -0.515172


           Symmetry 3

           C #1 y      O #2 y

 C #1 y   -0.515172
 O #2 y    0.515172   -0.515172




           C #1 x      C #1 y      C #1 z      O #2 x      O #2 y      O #2 z

 C #1 x   -0.515172
 C #1 y    0.000000   -0.515172
 C #1 z    0.000000    0.000000    0.652313

 O #2 x    0.515172    0.000000    0.000000   -0.515172
 O #2 y    0.000000    0.515172    0.000000    0.000000   -0.515172
 O #2 z    0.000000    0.000000   -0.652313    0.000000    0.000000    0.652313




                   Nuclear attraction integral Hessian
                   -----------------------------------


           Symmetry 1

           C #1 z      O #2 z

 C #1 z   -9.163565
 O #2 z    9.163565   -9.163565


           Symmetry 2

           C #1 x      O #2 x

 C #1 x    8.550611
 O #2 x   -8.550611    8.550611


           Symmetry 3

           C #1 y      O #2 y

 C #1 y    8.550611
 O #2 y   -8.550611    8.550611




           C #1 x      C #1 y      C #1 z      O #2 x      O #2 y      O #2 z

 C #1 x    8.550611
 C #1 y    0.000000    8.550611
 C #1 z    0.000000    0.000000   -9.163565

 O #2 x   -8.550611    0.000000    0.000000    8.550611
 O #2 y    0.000000   -8.550611    0.000000    0.000000    8.550611
 O #2 z    0.000000    0.000000    9.163565    0.000000    0.000000   -9.163565




                Highest order reorthonormalization Hessian
                ------------------------------------------


           Symmetry 1

           C #1 z      O #2 z

 C #1 z    0.000000
 O #2 z    0.000000    0.000000


           Symmetry 2

           C #1 x      O #2 x

 C #1 x    0.000000
 O #2 x    0.000000    0.000000


           Symmetry 3

           C #1 y      O #2 y

 C #1 y    0.000000
 O #2 y    0.000000    0.000000




           C #1 x      C #1 y      C #1 z      O #2 x      O #2 y      O #2 z




                Electronic contributions to dipole moment
                -----------------------------------------

                               au             Debye

                    z      1.21245511      3.08175404

  Conversion factor used: 1 a.u. =   2.54174691 Debye 



   Electronic contributions to static part of dipole moment derivatives
   --------------------------------------------------------------------


                     Total dipole moment derivatives
                     -------------------------------


           Symmetry 1
                              Ez

               C #1 z    -5.66969984
               O #2 z    -8.33030016

           Symmetry 2
                              Ex

               C #1 x    -5.66965243
               O #2 x    -8.33034757

           Symmetry 3
                              Ey

               C #1 y    -5.66965243
               O #2 y    -8.33034757



                       Ex          Ey          Ez

      C #1    x   -5.669652    0.000000    0.000000
      C #1    y    0.000000   -5.669652    0.000000
      C #1    z    0.000000    0.000000   -5.669700

      O #2    x   -8.330348    0.000000    0.000000
      O #2    y    0.000000   -8.330348    0.000000
      O #2    z    0.000000    0.000000   -8.330300

 Evaluation of 1e integral derivatives required    1.78 seconds.
                    8815  records have been written to the Sort file.
  Total length of Sort file :             180513570  words.
 Evaluation of 2el integral derivatives

                      Two-electron integral gradient
                      ------------------------------

                         C #1 z    -7.8388554279
                         O #2 z     7.8388554279


 C #1       0.0000000000            0.0000000000           -7.8388554279
 O #2       0.0000000000            0.0000000000            7.8388554279


 Evaluation of 2e integral derivatives required  712.80 seconds.

                            Molecular gradient
                            ------------------

                         C #1 z     0.6245469511
                         O #2 z    -0.6245469511


 C #1       0.0000000000            0.0000000000            0.6245469511
 O #2       0.0000000000            0.0000000000           -0.6245469511


  Molecular gradient norm 0.883E+00

                            Molecular hessian
                            -----------------


           Symmetry 1

           C #1 z      O #2 z

 C #1 z   20.806043
 O #2 z  -20.806043   20.806043


           Symmetry 2

           C #1 x      O #2 x

 C #1 x    2.782589
 O #2 x   -2.782589    2.782589


           Symmetry 3

           C #1 y      O #2 y

 C #1 y    2.782589
 O #2 y   -2.782589    2.782589




           C #1 x      C #1 y      C #1 z      O #2 x      O #2 y      O #2 z

 C #1 x    2.782589
 C #1 y    0.000000    2.782589
 C #1 z    0.000000    0.000000   20.806043

 O #2 x   -2.782589    0.000000    0.000000    2.782589
 O #2 y    0.000000   -2.782589    0.000000    0.000000    2.782589
 O #2 z    0.000000    0.000000  -20.806043    0.000000    0.000000   20.806043




                           Total dipole moment
                           -------------------

                               au             Debye

                    z      0.41398302      1.05224006

  Conversion factor used: 1 a.u. =   2.54174691 Debye 



                     Total dipole moment derivatives
                     -------------------------------


           Symmetry 1
                              Ez

               C #1 z     0.62093531
               O #2 z    -0.62093531

           Symmetry 2
                              Ex

               C #1 x     0.14875676
               O #2 x    -0.14875676

           Symmetry 3
                              Ey

               C #1 y     0.14875676
               O #2 y    -0.14875676



                       Ex          Ey          Ez

      C #1    x    0.148757    0.000000    0.000000
      C #1    y    0.000000    0.148757    0.000000
      C #1    z    0.000000    0.000000    0.620935

      O #2    x   -0.148757    0.000000    0.000000
      O #2    y    0.000000   -0.148757    0.000000
      O #2    z    0.000000    0.000000   -0.620935

 @CHECKOUT-I, Total execution time (CPU/WALL):      714.57/     119.72 seconds.
--executable xvdint finished with status     0 in      119.93 seconds (walltime).
 --invoking executable--
/nfs/workspaces/public/cfour_mpi/bin/xjoda
  @GTFLGS-I, Hessian will be transformed to curvilinear coordinates.
  @GTFLGS-I, Hessian will be transformed to curvilinear coordinates.
  igrd and ihes are                      0                     1
  gradient from JOBARC 
   0.000000000000000   0.000000000000000   0.624546951098288
   0.000000000000000   0.000000000000000  -0.624546951098288
 
  @PROJFCM-I, Projecting force constant matrix onto totally symmetric subspace.
  Largest difference between matrix elements of symmetrized
  and unsymmetrized FCM :    -0.1176836406E-12.
  read isotopes from ZMAT file 
 
  Summary of diagonal Born-Oppenheimer correction at the correlated level
  The total diagonal Born-Oppenheimer correction (DBOC) is:      0.0040090532 a.u.
  The total diagonal Born-Oppenheimer correction (DBOC) is:        879.885482 cm-1
  The total diagonal Born-Oppenheimer correction (DBOC) is:            10.526 kJ/mole
  hellooooooo 
  readis is  F
 
 @CHECKOUT-I, Total execution time (CPU/WALL):        0.02/       0.11 seconds.
--executable xjoda finished with status     0 in        0.19 seconds (walltime).
  The final electronic energy is      -113.118680970256648 a.u. 
  This computation required                         4506.62 seconds (walltime).
