 --invoking executable--
/nfs/workspaces/public/cfour_mpi/bin/xjoda


   *************************************************************************
         <<<     CCCCCC     CCCCCC   |||     CCCCCC     CCCCCC   >>>
       <<<      CCC        CCC       |||    CCC        CCC         >>>
      <<<      CCC        CCC        |||   CCC        CCC            >>>
    <<<        CCC        CCC        |||   CCC        CCC              >>>
      <<<      CCC        CCC        |||   CCC        CCC            >>>
       <<<      CCC        CCC       |||    CCC        CCC         >>>
         <<<     CCCCCC     CCCCCC   |||     CCCCCC     CCCCCC   >>>
   *************************************************************************

     ****************************************************************
     * CFOUR Coupled-Cluster techniques for Computational Chemistry *
     ****************************************************************
 

   Department of Chemistry                Institut fuer Physikalische Chemie
   University of Florida                  Universitaet Mainz
   Gainesville, FL 32611, USA             D-55099 Mainz, Germany

   Department of Chemistry                Fakultaet fuer Chemie und Biowiss.
   Johns Hopkins University               Karlsruher Institut fuer Technologie
   Baltimore, MD 21218, USA               D-76131 Karlsruhe, Germany

   Department of Chemistry                Department of Physical Chemistry
   Southern Methodist University          Eotvos Lorand University
   Dallas, TX 75275, USA                  H-1053 Budapest, Hungary

 
                       Version 2.1
 
                     vincent.theory.phys.ucl.ac.uk                     
                     Thu 27 Feb 23:10:57 GMT 2025                      
                     integer*8 version is running
 
********************************************************************************
*                          Input from ZMAT file                                *
********************************************************************************
Carbon Monoxide DBOC calculation                                                
C                                                                               
O 1 r                                                                           
                                                                                
r=1.4586206896551723                                                            
                                                                                
                                                                                
*CFOUR(CALC=CCSD,BASIS=AUG-PCVQZ,SCF_CONV=10                                    
CC_CONV=14,DBOC=ON,MEMORY=500000000                                             
ZFIELD=-200)                                                                    
                                                                                
%isotopes                                                                       
13                                                                              
16                                                                              
********************************************************************************
  @GTFLGS-I, Hessian will be transformed to curvilinear coordinates.
    -------------------------------------------------------------------
                    CFOUR Control Parameters 
    -------------------------------------------------------------------
        External           Internal           Value            Units
          Name               Name
    -------------------------------------------------------------------
       ABCDTYPE             IABCDT         STANDARD    [  0]    ***   
       ANHARMONIC           IANHAR         OFF         [  0]    ***   
       ANH_ALGORIT          IANALG         STANDARD    [  0]    ***   
       ANH_DERIVAT          IANDER         SECOND      [  1]    ***   
       ANH_MODE             ANHMOD         VIBRATION   [  0]    ***   
       ANH_STEPSIZ          ICUBST             50000          x 10-6  
       ANH_SYMMETR          IANHSM         ABELIAN     [  0]    ***   
       AO_LADDERS           IAOLAD         SINGLEPASS  [  1]    ***   
       AV_SCF               IAVSCF         OFF         [  0]    ***   
       BASIS                IBASIS         AUG-PCVQZ   [ 52]    ***   
       BOTHVECTORS          BOTHVC         OFF         [  0]    ***   
       BOX_POTENT           IPIAB          OFF         [  0]    ***   
       BREIT                IBREIT         OFF         [  0]    ***   
       BRUCK_CONV           IBRTOL          10D-  4             ***   
       BRUECKNER            IBRKNR         OFF         [  0]    ***   
       BUFFERSIZE           IBUFFS              4096            ***   
       CACHE_RECS           ICHREC             10               ***   
       CALCLEVEL            ICLLVL         CCSD        [ 10]    ***   
       CCORBOPT             ICCORB         OFF         [  0]  x 0.01  
       CC_CONV              ICCCNV          10D- 14             ***   
       CC_EXPORDER          ICCEOR              5               ***   
       CC_EXTRAPOL          ICCEXT         DIIS        [  1]    ***   
       CC_GUESS             ICCGES         MP2         [  0]    ***   
       CC_MAXCYC            ICCCYC            100              cycles 
       CC_PROGRAM           ICCPRO         VCC         [  0]    ***   
       CHARGE               ICHRGE              0               ***   
       CHOLESKY             ICHOLE         OFF         [  0]    ***   
       CIS_CONV             ICISTL              5               ***   
       COMM_SIZE            IPSIZE            ***               ***   
       CONSTANT             ICONST         OLD         [  1]    ***   
       CONTINUUM            ICONTU         NONE        [  0]    ***   
       CONTRACTION          ICNTYP         GENERAL     [  1]    ***   
       COORDINATES          ICOORD         INTERNAL    [  0]    ***   
       CPHF_CONVER          ICPHFT          10D- 16             ***   
       CPHF_MAXCYC          ICPHFC             64              cycles 
       CUBIC                ICUBIC         OFF         [  0]    ***   
       CURVILINEAR          ICURVY         ON          [  1]    ***   
       DBOC                 IDBOC          ON          [  1]    ***   
       DCT                  IDCT           OFF         [  0]    ***   
       DERIV_LEV            IDRLVL         SECOND      [  2]    ***   
       DEVMEM_SIZE          IDVMEM          50000000           MByte  
       DIAG_MRCC            IEOMST          10D-  0             ***   
       DIFF_TYPE            IDIFTY         RELAXED     [  0]    ***   
       DIRECT               IDIRCT         OFF         [  0]    ***   
       DROPMO               IDRPMO      NONE         
       ECP                  IECP           OFF         [  0]    ***   
       EIGENVECTOR          IVEC                1               ***   
       EL_ANHARM            IELANH         OFF         [  0]    ***   
       EOMFOLLOW            IEOMSR         ENERGY      [  0]    ***   
       EOMIP                IEOMIP         OFF         [  0]    ***   
       EOMLEVEL             HBARFM         SAME        [  0]    ***   
       EOM_MRCC             IMRCCE         NEW         [  1]    ***   
       EOM_NONIT            EOMNON         OFF         [  0]    ***   
       EOM_NSING            IEOMSI          10D-  0             ***   
       EOM_NSTATES          IMRCCD         DAVIDSON    [  0]    ***   
       EOM_NTRIP            IEOMTR          10D-  0             ***   
       EOM_ORDER            IEXORD         ENERGY      [  0]    ***   
       EOM_PROPSTA          IEOMST              0               ***   
       ESTATE_CONV          IEXTOL          10D-  5             ***   
       ESTATE_DIAG          IEXDIG         ITERATIVE   [  0]    ***   
       ESTATE_LOCK          IESLOC         ON          [  1]    ***   
       ESTATE_MAXC          IEXMXC             40               ***   
       ESTATE_PROP          IEXPRP         OFF         [  0]    ***   
       EVAL_HESS            IRECAL              0            # of cyc.
       EXCITATION           IEXCIT              0               ***   
       EXCITE               IEXCIT         NONE        [  0]    ***   
       EXTERN_POT           IEXPOT         OFF         [  0]    ***   
       FCGRADNEW            IFCGNW         OFF         [  0]    ***   
       FC_FIELD             IFINFC              0             x 10-6  
       FD_CALTYPE           IFDCAL         GRADONLY    [  0]    ***   
       FD_PROJECT           IFDPRJ         OFF         [  1]    ***   
       FD_STEPSIZE          IDISFD              0            10-4 bohr
       FD_USEGROUP          IFDGRP         FULL        [  0]    ***   
       FILE_RECSIZ          IFLREC              4096           words  
       FINITE_PERT          IFIPER              0             x 10-6  
       FIXGEOM              IFIXGM         OFF         [  0]    ***   
       FOCK                 IFOCK          AO          [  1]    ***   
       FREQ_ALGORI          IVIALG         STANDARD    [  0]    ***   
       FROZEN_CORE          IFROCO         OFF         [  0]    ***   
       GAMMA_ABCD           IGABCD         STORE       [  0]    ***   
       GAMMA_ABCI           IGABCI         STORE       [  0]    ***   
       GENBAS_1             IGNBS1              0               ***   
       GENBAS_2             IGNBS2              0               ***   
       GENBAS_3             IGNBS3              0               ***   
       GENBAS_4             IGNBS4              0               ***   
       GEO_CONV             ICONTL              5              H/bohr 
       GEO_MAXCYC           IOPTCY             50               ***   
       GEO_MAXSTEP          IMXSTP            300            millibohr
       GEO_METHOD           INR            SINGLE_POINT[  5]    ***   
       GIAO                 IGIAO          OFF         [  1]    ***   
       GIMIC                IGIMIC         OFF         [  0]    ***   
       GRID                 IGRID          OFF         [  0]    ***   
       GRID_ALGO            IGALGO         SERIAL      [  0]    ***   
       GUESS                IGUESS         MOREAD      [  0]    ***   
       HBAR                 IHBAR          OFF         [  0]    ***   
       HESS_TYPE            IHESTP         SCF         [  0]    ***   
       HF2_FILE             IHF2Fl         USE         [  1]    ***   
       HFSTABILITY          ISTABL         OFF         [  0]    ***   
       INCORE               INCORE         OFF         [  0]    ***   
       INPUT_MRCC           IMRCC          ON          [  1]    ***   
       INTEGRALS            INTTYP         VMOL        [  1]    ***   
       JODA_PRINT           IJPRNT              0               ***   
       KEYWORD_OUT          IDMPKW         NO          [  0]    ***   
       LINDEP_TOL           ILINDP              8               ***   
       LINEQ_CONV           IZTACN          10D-  7           cycles  
       LINEQ_EXPOR          ILMAXD              5               ***   
       LINEQ_MAXCY          ILMAXC            100               ***   
       LINEQ_TYPE           ILTYPE         DIIS        [  1]    ***   
       LOCK_ORBOCC          ILOCOC         OFF         [  0]    ***   
       MEMORY_SIZE          IMEMSZ         500000000           words  
       MEM_UNIT             IMEMU          INTEGERWORDS[  0]    ***   
       MRCC                 IMRCCC         OFF         [  0]    ***   
       MULTIPLICTY          IMULTP              1               ***   
       NACOUPLING           IVCOUP         OFF         [  0]    ***   
       NEGEVAL              IDIE           ABORT       [  0]    ***   
       NEWNORM              INEWNO         OFF         [  0]    ***   
       NON-HF               INONHF         OFF         [  0]    ***   
       NTOP_TAMP            ITOPT2             15               ***   
       NUC_MODEL            INUCMO         POINT       [  0]    ***   
       OCCUPATION           IOCCU   ESTIMATED BY SCF 
       OPEN-SHELL           IOPEN          SPIN-ORBITAL[  0]    ***   
       OPTVIB               IOPTVB         OFF         [  0]    ***   
       ORBITALS             IORBTP         STANDARD    [  0]    ***   
       PARALLEL             IPARAL         ON          [  1]    ***   
       PARA_INT             IPINTS         ON          [  1]    ***   
       PARA_PRINT           IPPRIN              0               ***   
       PERT_ORB             IPTORB         STANDARD    [  0]    ***   
       POINTS               IGRDFD              0               ***   
       PRINT                IPRNT               0               ***   
       PROPS                IPROPS         OFF         [  0]    ***   
       PROP_INTEGR          IINTYP         INTERNAL    [  0]    ***   
       PSI                  IPSI           OFF         [  0]    ***   
       QC_ALG               IQCALG         FLM         [  0]    ***   
       QC_LINALG            IQCLIN         TRIDIAG     [  2]    ***   
       QC_MAXCYC            IQCMAX          10D-100           cycles  
       QC_MAXSCFCY          IQCMSC          10D- 15           cycles  
       QC_RTRUST            IQCRTR          10D-  0           x 10-3  
       QC_SKIPSCF           IQCSKI         OFF         [  0]    ***   
       QC_START             IQCSTA          10D-  1             ***   
       QRHFGUESS            IQGUES         OFF         [  0]    ***   
       QUARTIC              IQUART         OFF         [  0]    ***   
       RAMAN_INT            IRAMIN         OFF         [  0]    ***   
       RAMAN_ORB            IRAMRE         UNRELAXED   [  0]    ***   
       RDO                  IRDOFM         ON          [  1]    ***   
       REDUCE_REPR          REDREP         Ir          [  0]    ***   
       REFERENCE            IREFNC         RHF         [  0]    ***   
       RELATIVIST           IRELAT         OFF         [  0]    ***   
       RELAX_DENS           IRDENS         ON          [  1]    ***   
       RESET_FLAGS          IRESET         OFF         [  0]    ***   
       RESTART_CC           ICCRES         OFF         [  0]    ***   
       ROT_EVEC             ROTVEC              0               ***   
       SAVE_INTS            ISVINT         OFF         [  0]    ***   
       SCALE_ON             ISTCRT              0               ***   
       SCF_CONV             ISCFCV          10D- 10             ***   
       SCF_DAMPING          IDAMP               0             x 10-3  
       SCF_EXPORDE          IRPPOR              6               ***   
       SCF_EXPSTAR          IRPPLS              8               ***   
       SCF_EXTRAPO          IRPP           ON          [  1]    ***   
       SCF_MAXCYC           ISCFCY            150              cycles 
       SCF_NOSTOP           ISCFST         OFF         [  0]    ***   
       SCF_PRINT            ISCFPR              0               ***   
       SCF_PROG             ISCFPR         SCF         [  0]    ***   
       SD_FIELD             IFINSD              0             x 10-6  
       SOPERT               IPERSO         OFF         [  0]    ***   
       SPHERICAL            IDFGHI         ON          [  1]    ***   
       SPINORBIT            ISOCAL         OFF         [  0]    ***   
       SPINROTATIO          ISRCON         OFF         [  0]    ***   
       SPIN_FLIP            ISPFLP         OFF         [  0]    ***   
       SPIN_ORBIT           ISPORB         OFF         [  0]    ***   
       SPIN_SCAL            ISCSMP         OFF         [  0]    ***   
       STEEPSCALE           ISTPSC              1000          x 10-3  
       SUBGROUP             ISUBGP         DEFAULT     [  0]    ***   
       SUBGRPAXIS           ISBXYZ         X           [  0]    ***   
       SYMMETRY             ISYM           ON          [  0]    ***   
       SYM_CHECK            ISYMCK         OVERRIDE    [  1]    ***   
       T3_EXTRAPOL          IT3EXT         OFF         [  0]    ***   
       T4_EXTRAPOL          IT4EXP         OFF         [  0]    ***   
       TAMP_SUM             IEVERY              5               ***   
       TESTSUITE            ITESTS         OFF         [  0]    ***   
       THERMOCH             ITHERM         OFF         [  0]    ***   
       TOL_CHOLESK          ITOLCH          10D-  4             ***   
       TRANGRAD             IRESRM         OFF         [  0]    ***   
       TRANS_INV            ITRAIN         IGNORE      [  1]    ***   
       TREAT_PERT           ITREAT         SIMULTANEOUS[  0]    ***   
       TRIP_ALGORI          ITRALG         NORMAL      [  0]    ***   
       UIJ_THRESHO          IUIJTH              1               ***   
       UNITS                IUNITS         ANGSTROM    [  0]    ***   
       UNOS                 IUNOS          OFF         [  0]    ***   
       UPDATE_HESS          IHUPDT         ON          [  1]    ***   
       VIBPHASE             ISETPH         STANDARD    [  0]    ***   
       VIBRATION            IVIB           ANALYTIC    [  1]    ***   
       VIB_ALGORIT          IGEALG         STANDARD    [  0]    ***   
       VNATORB              IVNORB         OFF         [  0]    ***   
       VTRAN                IVTRAN         FULL/PARTIAL[  0]    ***   
       XFIELD               IXEFLD              0             x 10-6  
       XFORM_TOL            IXFTOL          10D- 11             ***   
       YFIELD               IYEFLD              0             x 10-6  
       ZFIELD               IZEFLD            ***             x 10-6  
       ZSCALE_EXP           IZEXPS         OFF         [  0]    ***   
    -------------------------------------------------------------------
   2 entries found in Z-matrix 
   Job Title : Carbon Monoxide DBOC calculation                                                
   There are  1 unique internal coordinates.
   Of these,  0 will be optimized.
   User supplied Z-matrix: 
--------------------------------------------------------------------------------
       SYMBOL    BOND      LENGTH    ANGLE     ANGLE     DIHED     ANGLE
                  TO      (ANGST)    WRT      (DEG)      WRT      (DEG)
--------------------------------------------------------------------------------
        C    
        O          1         r    
                  *Initial values for internal coordinates* 
                      Name             Value
                        r               1.4586206897
--------------------------------------------------------------------------------
  read isotopes from ZMAT file 
   Rotational constants (in cm-1): 
          1.1047056047             1.1047056047
   Rotational constants (in MHz): 
      33118.2455000620         33118.2455000620
********************************************************************************
   The full molecular point group is CXv .
   The largest Abelian subgroup of the full molecular point group is C2v .
   The computational point group is C2v .
********************************************************************************
--------------------------------------------------------------------------------
   Analysis of internal coordinates specified by Z-matrix 
--------------------------------------------------------------------------------
   *The nuclear repulsion energy is   17.414054921985816 a.u.
   *There is   1 degree of freedom within the tot. symm. molecular subspace.
   *Z-matrix requests optimization of   0 coordinates.
   *The optimization is constrained.
   *The following   1 parameters can have non-zero 
    derivatives within the totally symmetric subspace:
             r    [ 1]
   *The following   0 parameters are to be optimized:

   *The following coordinates must be varied in an  unconstrained optimization.
             r    [ 1]
--------------------------------------------------------------------------------


 ----------------------------------------------------------------
         Coordinates used in calculation (QCOMP) 
 ----------------------------------------------------------------
 Z-matrix   Atomic            Coordinates (in bohr)
  Symbol    Number           X              Y              Z
 ----------------------------------------------------------------
     C         6        -0.00000000     0.00000000     1.52037659
     O         8         0.00000000     0.00000000    -1.23601761
 ----------------------------------------------------------------
 
   Interatomic distance matrix (Angstroms) 
 
                 C             O    
                [ 1]        [ 2]
  C    [ 1]     0.00000
  O    [ 2]     1.45862     0.00000
 rotcon2
   Rotational constants (in cm-1): 
          1.1047056047             0.0000000000
   Rotational constants (in MHz): 
      33118.2455000620             0.0000000000
  ECPDATA file not present.   Using default ECPDATA. 
  @GTFLGS-I, Hessian will be transformed to curvilinear coordinates.
  There are  218 basis functions.
 @CHECKOUT-I, Total execution time (CPU/WALL):        0.20/       0.34 seconds.
--executable xjoda finished with status     0 in        0.37 seconds (walltime).
 --invoking executable--
/nfs/workspaces/public/cfour_mpi/bin/xvmol
 SERIAL VERSION OF MOLECULE STARTED
********************************************************************************
                    INPUT FROM MOL FILE
********************************************************************************
INTGRL        1    0    1    0    0    0    0    0    0                         
         *** CFOUR Program System (Release V0.1) ***                            
Carbon Monoxide DBOC calculation                                                
    2    2 X  Y       0.10E-08              0    0                              
   9999.00      3.00                                                            
          6.00000000    1    5    1    1    1    1    1                         
C #1  -0.000000000000000   0.000000000000000   1.520376586468177                
   16    9                                                                      
   33980.0000000000       9.100000000000000E-005 -1.900000000000000E-005        
  0.000000000000000E+000  0.000000000000000E+000  0.000000000000000E+000        
  0.000000000000000E+000  0.000000000000000E+000  0.000000000000000E+000        
  0.000000000000000E+000                                                        
   5089.00000000000       7.040000000000000E-004 -1.510000000000000E-004        
  0.000000000000000E+000  0.000000000000000E+000  0.000000000000000E+000        
  0.000000000000000E+000  0.000000000000000E+000  0.000000000000000E+000        
  0.000000000000000E+000                                                        
   1157.00000000000       3.693000000000000E-003 -7.850000000000000E-004        
  0.000000000000000E+000  0.000000000000000E+000  0.000000000000000E+000        
  0.000000000000000E+000  0.000000000000000E+000  0.000000000000000E+000        
  0.000000000000000E+000                                                        
   326.600000000000       1.536000000000000E-002 -3.324000000000000E-003        
  0.000000000000000E+000  0.000000000000000E+000  0.000000000000000E+000        
  0.000000000000000E+000  0.000000000000000E+000  0.000000000000000E+000        
  0.000000000000000E+000                                                        
   106.100000000000       5.292900000000000E-002 -1.151200000000000E-002        
  0.000000000000000E+000  0.000000000000000E+000  0.000000000000000E+000        
  0.000000000000000E+000  0.000000000000000E+000  0.000000000000000E+000        
  0.000000000000000E+000                                                        
   38.1100000000000       0.147043000000000      -3.416000000000000E-002        
  0.000000000000000E+000  0.000000000000000E+000  0.000000000000000E+000        
  0.000000000000000E+000  0.000000000000000E+000  0.000000000000000E+000        
  0.000000000000000E+000                                                        
   14.7500000000000       0.305631000000000      -7.717300000000001E-002        
  0.000000000000000E+000  0.000000000000000E+000  0.000000000000000E+000        
  0.000000000000000E+000  0.000000000000000E+000  0.000000000000000E+000        
  0.000000000000000E+000                                                        
   6.03500000000000       0.399345000000000      -0.141493000000000             
  0.000000000000000E+000  0.000000000000000E+000  0.000000000000000E+000        
  0.000000000000000E+000  0.000000000000000E+000  0.000000000000000E+000        
  0.000000000000000E+000                                                        
   2.53000000000000       0.217051000000000      -0.118019000000000             
  0.000000000000000E+000  0.000000000000000E+000  0.000000000000000E+000        
  0.000000000000000E+000  0.000000000000000E+000  0.000000000000000E+000        
  0.000000000000000E+000                                                        
  0.735500000000000       1.589400000000000E-002  0.273806000000000             
   1.00000000000000       0.000000000000000E+000  0.000000000000000E+000        
  0.000000000000000E+000  0.000000000000000E+000  0.000000000000000E+000        
  0.000000000000000E+000                                                        
  0.290500000000000      -3.084000000000000E-003  0.586510000000000             
  0.000000000000000E+000   1.00000000000000       0.000000000000000E+000        
  0.000000000000000E+000  0.000000000000000E+000  0.000000000000000E+000        
  0.000000000000000E+000                                                        
  0.111100000000000       9.779999999999999E-004  0.285430000000000             
  0.000000000000000E+000  0.000000000000000E+000   1.00000000000000             
  0.000000000000000E+000  0.000000000000000E+000  0.000000000000000E+000        
  0.000000000000000E+000                                                        
   7.21600000000000       0.000000000000000E+000  0.000000000000000E+000        
  0.000000000000000E+000  0.000000000000000E+000  0.000000000000000E+000        
   1.00000000000000       0.000000000000000E+000  0.000000000000000E+000        
  0.000000000000000E+000                                                        
   19.5700000000000       0.000000000000000E+000  0.000000000000000E+000        
  0.000000000000000E+000  0.000000000000000E+000  0.000000000000000E+000        
  0.000000000000000E+000   1.00000000000000       0.000000000000000E+000        
  0.000000000000000E+000                                                        
   53.0730000000000       0.000000000000000E+000  0.000000000000000E+000        
  0.000000000000000E+000  0.000000000000000E+000  0.000000000000000E+000        
  0.000000000000000E+000  0.000000000000000E+000   1.00000000000000             
  0.000000000000000E+000                                                        
  4.145000000000000E-002  0.000000000000000E+000  0.000000000000000E+000        
  0.000000000000000E+000  0.000000000000000E+000  0.000000000000000E+000        
  0.000000000000000E+000  0.000000000000000E+000  0.000000000000000E+000        
   1.00000000000000                                                             
   10    8                                                                      
   34.5100000000000       5.378000000000000E-003  0.000000000000000E+000        
  0.000000000000000E+000  0.000000000000000E+000  0.000000000000000E+000        
  0.000000000000000E+000  0.000000000000000E+000  0.000000000000000E+000        
   7.91500000000000       3.613200000000000E-002  0.000000000000000E+000        
  0.000000000000000E+000  0.000000000000000E+000  0.000000000000000E+000        
  0.000000000000000E+000  0.000000000000000E+000  0.000000000000000E+000        
   2.36800000000000       0.142493000000000       0.000000000000000E+000        
  0.000000000000000E+000  0.000000000000000E+000  0.000000000000000E+000        
  0.000000000000000E+000  0.000000000000000E+000  0.000000000000000E+000        
  0.813200000000000       0.342150000000000        1.00000000000000             
  0.000000000000000E+000  0.000000000000000E+000  0.000000000000000E+000        
  0.000000000000000E+000  0.000000000000000E+000  0.000000000000000E+000        
  0.289000000000000       0.463864000000000       0.000000000000000E+000        
   1.00000000000000       0.000000000000000E+000  0.000000000000000E+000        
  0.000000000000000E+000  0.000000000000000E+000  0.000000000000000E+000        
  0.100700000000000       0.250028000000000       0.000000000000000E+000        
  0.000000000000000E+000   1.00000000000000       0.000000000000000E+000        
  0.000000000000000E+000  0.000000000000000E+000  0.000000000000000E+000        
   8.18200000000000       0.000000000000000E+000  0.000000000000000E+000        
  0.000000000000000E+000  0.000000000000000E+000   1.00000000000000             
  0.000000000000000E+000  0.000000000000000E+000  0.000000000000000E+000        
   24.1860000000000       0.000000000000000E+000  0.000000000000000E+000        
  0.000000000000000E+000  0.000000000000000E+000  0.000000000000000E+000        
   1.00000000000000       0.000000000000000E+000  0.000000000000000E+000        
   71.4940000000000       0.000000000000000E+000  0.000000000000000E+000        
  0.000000000000000E+000  0.000000000000000E+000  0.000000000000000E+000        
  0.000000000000000E+000   1.00000000000000       0.000000000000000E+000        
  3.218000000000000E-002  0.000000000000000E+000  0.000000000000000E+000        
  0.000000000000000E+000  0.000000000000000E+000  0.000000000000000E+000        
  0.000000000000000E+000  0.000000000000000E+000   1.00000000000000             
    6    6                                                                      
   1.84800000000000        1.00000000000000       0.000000000000000E+000        
  0.000000000000000E+000  0.000000000000000E+000  0.000000000000000E+000        
  0.000000000000000E+000                                                        
  0.649000000000000       0.000000000000000E+000   1.00000000000000             
  0.000000000000000E+000  0.000000000000000E+000  0.000000000000000E+000        
  0.000000000000000E+000                                                        
  0.228000000000000       0.000000000000000E+000  0.000000000000000E+000        
   1.00000000000000       0.000000000000000E+000  0.000000000000000E+000        
  0.000000000000000E+000                                                        
   8.65600000000000       0.000000000000000E+000  0.000000000000000E+000        
  0.000000000000000E+000   1.00000000000000       0.000000000000000E+000        
  0.000000000000000E+000                                                        
   33.2130000000000       0.000000000000000E+000  0.000000000000000E+000        
  0.000000000000000E+000  0.000000000000000E+000   1.00000000000000             
  0.000000000000000E+000                                                        
  7.660000000000000E-002  0.000000000000000E+000  0.000000000000000E+000        
  0.000000000000000E+000  0.000000000000000E+000  0.000000000000000E+000        
   1.00000000000000                                                             
    4    4                                                                      
   1.41900000000000        1.00000000000000       0.000000000000000E+000        
  0.000000000000000E+000  0.000000000000000E+000                                
  0.485000000000000       0.000000000000000E+000   1.00000000000000             
  0.000000000000000E+000  0.000000000000000E+000                                
   24.6940000000000       0.000000000000000E+000  0.000000000000000E+000        
   1.00000000000000       0.000000000000000E+000                                
  0.187000000000000       0.000000000000000E+000  0.000000000000000E+000        
  0.000000000000000E+000   1.00000000000000                                     
    2    2                                                                      
   1.01100000000000        1.00000000000000       0.000000000000000E+000        
  0.424000000000000       0.000000000000000E+000   1.00000000000000             
          8.00000000    1    5    1    1    1    1    1                         
O #2   0.000000000000000   0.000000000000000  -1.236017614367748                
   16    9                                                                      
   61420.0000000000       9.000000000000001E-005 -2.000000000000000E-005        
  0.000000000000000E+000  0.000000000000000E+000  0.000000000000000E+000        
  0.000000000000000E+000  0.000000000000000E+000  0.000000000000000E+000        
  0.000000000000000E+000                                                        
   9199.00000000000       6.980000000000001E-004 -1.590000000000000E-004        
  0.000000000000000E+000  0.000000000000000E+000  0.000000000000000E+000        
  0.000000000000000E+000  0.000000000000000E+000  0.000000000000000E+000        
  0.000000000000000E+000                                                        
   2091.00000000000       3.664000000000000E-003 -8.290000000000000E-004        
  0.000000000000000E+000  0.000000000000000E+000  0.000000000000000E+000        
  0.000000000000000E+000  0.000000000000000E+000  0.000000000000000E+000        
  0.000000000000000E+000                                                        
   590.900000000000       1.521800000000000E-002 -3.508000000000000E-003        
  0.000000000000000E+000  0.000000000000000E+000  0.000000000000000E+000        
  0.000000000000000E+000  0.000000000000000E+000  0.000000000000000E+000        
  0.000000000000000E+000                                                        
   192.300000000000       5.242300000000000E-002 -1.215600000000000E-002        
  0.000000000000000E+000  0.000000000000000E+000  0.000000000000000E+000        
  0.000000000000000E+000  0.000000000000000E+000  0.000000000000000E+000        
  0.000000000000000E+000                                                        
   69.3200000000000       0.145921000000000      -3.626100000000000E-002        
  0.000000000000000E+000  0.000000000000000E+000  0.000000000000000E+000        
  0.000000000000000E+000  0.000000000000000E+000  0.000000000000000E+000        
  0.000000000000000E+000                                                        
   26.9700000000000       0.305258000000000      -8.299200000000000E-002        
  0.000000000000000E+000  0.000000000000000E+000  0.000000000000000E+000        
  0.000000000000000E+000  0.000000000000000E+000  0.000000000000000E+000        
  0.000000000000000E+000                                                        
   11.1000000000000       0.398508000000000      -0.152090000000000             
  0.000000000000000E+000  0.000000000000000E+000  0.000000000000000E+000        
  0.000000000000000E+000  0.000000000000000E+000  0.000000000000000E+000        
  0.000000000000000E+000                                                        
   4.68200000000000       0.216980000000000      -0.115331000000000             
  0.000000000000000E+000  0.000000000000000E+000  0.000000000000000E+000        
  0.000000000000000E+000  0.000000000000000E+000  0.000000000000000E+000        
  0.000000000000000E+000                                                        
   1.42800000000000       1.759400000000000E-002  0.288979000000000             
   1.00000000000000       0.000000000000000E+000  0.000000000000000E+000        
  0.000000000000000E+000  0.000000000000000E+000  0.000000000000000E+000        
  0.000000000000000E+000                                                        
  0.554700000000000      -2.502000000000000E-003  0.586128000000000             
  0.000000000000000E+000   1.00000000000000       0.000000000000000E+000        
  0.000000000000000E+000  0.000000000000000E+000  0.000000000000000E+000        
  0.000000000000000E+000                                                        
  0.206700000000000       9.540000000000000E-004  0.277624000000000             
  0.000000000000000E+000  0.000000000000000E+000   1.00000000000000             
  0.000000000000000E+000  0.000000000000000E+000  0.000000000000000E+000        
  0.000000000000000E+000                                                        
   12.9740000000000       0.000000000000000E+000  0.000000000000000E+000        
  0.000000000000000E+000  0.000000000000000E+000  0.000000000000000E+000        
   1.00000000000000       0.000000000000000E+000  0.000000000000000E+000        
  0.000000000000000E+000                                                        
   34.9000000000000       0.000000000000000E+000  0.000000000000000E+000        
  0.000000000000000E+000  0.000000000000000E+000  0.000000000000000E+000        
  0.000000000000000E+000   1.00000000000000       0.000000000000000E+000        
  0.000000000000000E+000                                                        
   93.8810000000000       0.000000000000000E+000  0.000000000000000E+000        
  0.000000000000000E+000  0.000000000000000E+000  0.000000000000000E+000        
  0.000000000000000E+000  0.000000000000000E+000   1.00000000000000             
  0.000000000000000E+000                                                        
  6.959000000000000E-002  0.000000000000000E+000  0.000000000000000E+000        
  0.000000000000000E+000  0.000000000000000E+000  0.000000000000000E+000        
  0.000000000000000E+000  0.000000000000000E+000  0.000000000000000E+000        
   1.00000000000000                                                             
   10    8                                                                      
   63.4200000000000       6.044000000000000E-003  0.000000000000000E+000        
  0.000000000000000E+000  0.000000000000000E+000  0.000000000000000E+000        
  0.000000000000000E+000  0.000000000000000E+000  0.000000000000000E+000        
   14.6600000000000       4.179900000000000E-002  0.000000000000000E+000        
  0.000000000000000E+000  0.000000000000000E+000  0.000000000000000E+000        
  0.000000000000000E+000  0.000000000000000E+000  0.000000000000000E+000        
   4.45900000000000       0.161143000000000       0.000000000000000E+000        
  0.000000000000000E+000  0.000000000000000E+000  0.000000000000000E+000        
  0.000000000000000E+000  0.000000000000000E+000  0.000000000000000E+000        
   1.53100000000000       0.356731000000000        1.00000000000000             
  0.000000000000000E+000  0.000000000000000E+000  0.000000000000000E+000        
  0.000000000000000E+000  0.000000000000000E+000  0.000000000000000E+000        
  0.530200000000000       0.448309000000000       0.000000000000000E+000        
   1.00000000000000       0.000000000000000E+000  0.000000000000000E+000        
  0.000000000000000E+000  0.000000000000000E+000  0.000000000000000E+000        
  0.175000000000000       0.244940000000000       0.000000000000000E+000        
  0.000000000000000E+000   1.00000000000000       0.000000000000000E+000        
  0.000000000000000E+000  0.000000000000000E+000  0.000000000000000E+000        
   14.4750000000000       0.000000000000000E+000  0.000000000000000E+000        
  0.000000000000000E+000  0.000000000000000E+000   1.00000000000000             
  0.000000000000000E+000  0.000000000000000E+000  0.000000000000000E+000        
   42.7300000000000       0.000000000000000E+000  0.000000000000000E+000        
  0.000000000000000E+000  0.000000000000000E+000  0.000000000000000E+000        
   1.00000000000000       0.000000000000000E+000  0.000000000000000E+000        
   126.140000000000       0.000000000000000E+000  0.000000000000000E+000        
  0.000000000000000E+000  0.000000000000000E+000  0.000000000000000E+000        
  0.000000000000000E+000   1.00000000000000       0.000000000000000E+000        
  5.348000000000000E-002  0.000000000000000E+000  0.000000000000000E+000        
  0.000000000000000E+000  0.000000000000000E+000  0.000000000000000E+000        
  0.000000000000000E+000  0.000000000000000E+000   1.00000000000000             
    6    6                                                                      
   3.77500000000000        1.00000000000000       0.000000000000000E+000        
  0.000000000000000E+000  0.000000000000000E+000  0.000000000000000E+000        
  0.000000000000000E+000                                                        
   1.30000000000000       0.000000000000000E+000   1.00000000000000             
  0.000000000000000E+000  0.000000000000000E+000  0.000000000000000E+000        
  0.000000000000000E+000                                                        
  0.444000000000000       0.000000000000000E+000  0.000000000000000E+000        
   1.00000000000000       0.000000000000000E+000  0.000000000000000E+000        
  0.000000000000000E+000                                                        
   14.9270000000000       0.000000000000000E+000  0.000000000000000E+000        
  0.000000000000000E+000   1.00000000000000       0.000000000000000E+000        
  0.000000000000000E+000                                                        
   57.5440000000000       0.000000000000000E+000  0.000000000000000E+000        
  0.000000000000000E+000  0.000000000000000E+000   1.00000000000000             
  0.000000000000000E+000                                                        
  0.154000000000000       0.000000000000000E+000  0.000000000000000E+000        
  0.000000000000000E+000  0.000000000000000E+000  0.000000000000000E+000        
   1.00000000000000                                                             
    4    4                                                                      
   2.66600000000000        1.00000000000000       0.000000000000000E+000        
  0.000000000000000E+000  0.000000000000000E+000                                
  0.859000000000000       0.000000000000000E+000   1.00000000000000             
  0.000000000000000E+000  0.000000000000000E+000                                
   26.4830000000000       0.000000000000000E+000  0.000000000000000E+000        
   1.00000000000000       0.000000000000000E+000                                
  0.324000000000000       0.000000000000000E+000  0.000000000000000E+000        
  0.000000000000000E+000   1.00000000000000                                     
    2    2                                                                      
   1.84600000000000        1.00000000000000       0.000000000000000E+000        
  0.714000000000000       0.000000000000000E+000   1.00000000000000             
FINISH                                                                          
 
********************************************************************************
 ONE- AND TWO-ELECTRON INTEGRALS OVER SYMMETRY-ADAPTED AOS ARE CALCULATED.

  SPHERICAL HARMONICS ARE USED.
  
  INTEGRALS LESS THAN  0.10E-13 ARE NEGLECTED.

  NUCLEAR REPULSION ENERGY :   17.4140549220 A.U.
  @MOLECU-I, ONE ELECTRON INTEGRALS (CPU/WALL):        0.06/       0.08 SECONDS.
  @TWOEL-I,    4481914 INTEGRALS OF SYMMETRY TYPE  I I I I
  @TWOEL-I,   19326702 INTEGRALS OF SYMMETRY TYPE  I J I J
  @TWOEL-I,   10176715 INTEGRALS OF SYMMETRY TYPE  I I J J
  @TWOEL-I,   14299509 INTEGRALS OF SYMMETRY TYPE  I J K L
  @TWOEL-I, TOTAL NUMBER OF 2-E INTEGRALS   48284840.
  @MOLECU-I, TWO ELECTRON INTEGRALS (CPU/WALL):      236.90/      32.61 SECONDS.
 @CHECKOUT-I, Total execution time (CPU/WALL):      236.99/      32.73 seconds.

Running with 14 threads/proc

--executable xvmol finished with status     0 in       32.82 seconds (walltime).
 --invoking executable--
/nfs/workspaces/public/cfour_mpi/bin/xvmol2ja
 @GETMEM-I,  Allocated    3814 MB of main memory.
 @CHECKOUT-I, Total execution time (CPU/WALL):        0.17/       0.08 seconds.
--executable xvmol2ja finished with status     0 in        0.13 seconds (walltime).
 --invoking executable--
/nfs/workspaces/public/cfour_mpi/bin/xvprop
 @GETMEM-I,  Allocated    3814 MB of main memory.
   Property integrals will be calculated.
    --------------------------------------------------------------
                                   Property evaluated at 
    Property type                X             Y             Z
    --------------------------------------------------------------
    Dipole moment               ----          ----          ----  
    Quadrupole moment           ----          ----          ----  
    Octopole moment             ----          ----          ----  
    Relativisitic corr.         ----          ----          ----  
    Second moment            0.0000000     0.0000000     0.0000000
    Electron density         0.0000000     0.0000000     1.5203766
    Electron density         0.0000000     0.0000000    -1.2360176
    Field gradient           0.0000000     0.0000000     1.5203766
    Field gradient           0.0000000     0.0000000    -1.2360176
    Potential                0.0000000     0.0000000     1.5203766
    Potential                0.0000000     0.0000000    -1.2360176
    --------------------------------------------------------------
 @CHECKOUT-I, Total execution time (CPU/WALL):        1.43/       1.48 seconds.
--executable xvprop finished with status     0 in        1.53 seconds (walltime).
 --invoking executable--
/nfs/workspaces/public/cfour_mpi/bin/xvscf
  There are  218 functions in the AO basis.

  There are 4 irreducible representations.

       Irrep        # of functions
         1                 86
         2                 52
         3                 52
         4                 28


  Parameters for SCF calculation: 
        SCF reference function:  RHF  
  Maximum number of iterations:  150
     Full symmetry point group: CXv 
     Computational point group: C2v 
        Initial density matrix: MOREAD                 
     SCF convergence tolerance: 10**(-10)
  DIIS convergence acceleration:  ON
          Latest start for DIIS:   8
                     DIIS order:   6

  Memory information:    2523578 words required.
  Fock matrices are constructed from AO integral file.
 @GETMEM-I,  Allocated      19 MB of main memory.
  Initialization and symmetry analysis required      0.001 seconds.

  Adding electric field perturbation to one-electron Hamiltonian.
  Field direction     : Z
  Field strength      : -0.0002000 a.u.

  @INITGES-I, Occupancies from core Hamiltonian:

          Alpha population by irrep:   5    1    1    0
           Beta population by irrep:   5    1    1    0


 total no. of electrons in initial guess :  0.000000000000000E+000
  --------------------------------------------------------------------
  Iteration         Total Energy            Largest Density Difference
  --------------------------------------------------------------------
       0            17.413901745706976              0.0000000000D+00
   current occupation vector 
     5  1  1  0
     5  1  1  0
       1           -93.327545173311833              0.1752057506D+02
   current occupation vector 
     5  1  1  0
     5  1  1  0
       2           -98.307171590272517              0.1752053853D+02
   current occupation vector 
     5  1  1  0
     5  1  1  0
       3          -102.744036904029088              0.6230058491D+01
   current occupation vector 
     5  1  1  0
     5  1  1  0
       4           -97.780478633906128              0.6222894666D+01
   current occupation vector 
     5  1  1  0
     5  1  1  0
       5          -100.945280110326763              0.6641218423D+01
   current occupation vector 
     5  1  1  0
     5  1  1  0
       6           -96.339950763256141              0.6636004227D+01
   current occupation vector 
     5  1  1  0
     5  1  1  0
       7          -100.902674700376579              0.6743550052D+01
   current occupation vector 
     5  1  1  0
     5  1  1  0
       8           -96.277360880195772              0.6743789037D+01
   current occupation vector 
     5  1  1  0
     5  1  1  0
       9          -107.641143660846794              0.5296309810D+01
   current occupation vector 
     5  1  1  0
     5  1  1  0
      10          -109.449776562830522              0.9032175774D+00
   current occupation vector 
     5  1  1  0
     5  1  1  0
      11          -112.306431559354976              0.1603726043D+01
   current occupation vector 
     5  1  1  0
     5  1  1  0
      12          -112.616949185676432              0.5284405769D+00
   current occupation vector 
     5  1  1  0
     5  1  1  0
      13          -112.620953212399442              0.1127655498D+00
   current occupation vector 
     5  1  1  0
     5  1  1  0
      14          -112.621976630654657              0.4772365000D-01
   current occupation vector 
     5  1  1  0
     5  1  1  0
      15          -112.622049921366042              0.1438679486D-01
   current occupation vector 
     5  1  1  0
     5  1  1  0
      16          -112.622067544180837              0.7398441386D-02
   current occupation vector 
     5  1  1  0
     5  1  1  0
      17          -112.622072090929223              0.5118599641D-02
   current occupation vector 
     5  1  1  0
     5  1  1  0
      18          -112.622072241853360              0.9277525212D-03
   current occupation vector 
     5  1  1  0
     5  1  1  0
      19          -112.622072243516399              0.1175796430D-03
   current occupation vector 
     5  1  1  0
     5  1  1  0
      20          -112.622072243664505              0.1903773233D-04
   current occupation vector 
     5  1  1  0
     5  1  1  0
      21          -112.622072243667830              0.1804997617D-05
   current occupation vector 
     5  1  1  0
     5  1  1  0
      22          -112.622072243667859              0.2445371216D-06
   current occupation vector 
     5  1  1  0
     5  1  1  0
      23          -112.622072243667631              0.3648476832D-07
   current occupation vector 
     5  1  1  0
     5  1  1  0
      24          -112.622072243666949              0.8529040585D-08
   current occupation vector 
     5  1  1  0
     5  1  1  0
      25          -112.622072243665556              0.1628288393D-08
   current occupation vector 
     5  1  1  0
     5  1  1  0
      26          -112.622072243667176              0.4536178100D-09
   current occupation vector 
     5  1  1  0
     5  1  1  0
      27          -112.622072243667745              0.2614721772D-09
   current occupation vector 
     5  1  1  0
     5  1  1  0
      28          -112.622072243668086              0.2245967856D-09
   current occupation vector 
     5  1  1  0
     5  1  1  0
      29          -112.622072243667262              0.1039299313D-08
   current occupation vector 
     5  1  1  0
     5  1  1  0
      30          -112.622072243665556              0.1339238720D-08
   current occupation vector 
     5  1  1  0
     5  1  1  0

  SCF has converged.

 Density matrix saved to file den.dat
 total electron number:   14.0000000000002     
     E(SCF)=      -112.622072243667091              0.4034202833D-10

  Eigenvector printing suppressed.

 @PUTMOS-I, Writing converged MOs to NEWMOS. 
 @PUTMOS-I, Symmetry   1 Full Blocks 21 Partial Blocksize   2
 @PUTMOS-I, Symmetry   2 Full Blocks 13 Partial Blocksize   0
 @PUTMOS-I, Symmetry   3 Full Blocks 13 Partial Blocksize   0
 @PUTMOS-I, Symmetry   4 Full Blocks  7 Partial Blocksize   0
 @PUTFOCK-I, Writing converged Fock matrix to NEWFOCK. 
 @PUTFOCK-I, Symmetry   1 Full Blocks 21 Partial Blocksize   2
 @PUTFOCK-I, Symmetry   2 Full Blocks 13 Partial Blocksize   0
 @PUTFOCK-I, Symmetry   3 Full Blocks 13 Partial Blocksize   0
 @PUTFOCK-I, Symmetry   4 Full Blocks  7 Partial Blocksize   0


 
  ORBITAL EIGENVALUES (ALPHA)  (1H = 27.2113834 eV)

       MO #        E(hartree)               E(eV)           FULLSYM    COMPSYM
       ----   --------------------   --------------------   -------   ---------
    1     1         -20.6575953925        -562.1217483470     SG+        A1 (1)
    2     2         -11.4873584450        -312.5869148990     SG+        A1 (1)
    3     3          -1.3326155096         -36.2623115572     SG+        A1 (1)
    4     4          -0.7956506874         -21.6507559064     SG+        A1 (1)
    5     5          -0.5555064211         -15.1160982064     SG+        A1 (1)
    6    87          -0.5282293428         -14.3738511699      PI        B1 (2)
    7   139          -0.5282293428         -14.3738511699      PI        B2 (3)
  +++++++++++++++++++++++++++++++++++++++++++++++++++++++++++++++++++++++++++++
    8   140           0.0205840022           0.5601191764      PI        B2 (3)
    9    88           0.0205840022           0.5601191764      PI        B1 (2)
   10     6           0.0626071467           1.7036270713     SG+        A1 (1)
   11     7           0.0683839236           1.8608211624     SG+        A1 (1)
   12   141           0.0858988356           2.3374261495      PI        B2 (3)
   13    89           0.0858988356           2.3374261495      PI        B1 (2)
   14     8           0.1574151808           4.2834848386     SG+        A1 (1)
   15    90           0.1750323135           4.7628713909      PI        B1 (2)
   16   142           0.1750323135           4.7628713909      PI        B2 (3)
   17     9           0.2204863626           5.9997389461     SG+        A1 (1)
   18   191           0.2241858842           6.1004080489      DE        A2 (4)
   19    10           0.2241858842           6.1004080489      DE        A1 (1)
   20    91           0.2928329037           7.9683884148      PI        B1 (2)
   21   143           0.2928329037           7.9683884148      PI        B2 (3)
   22    11           0.2996605671           8.1541785819     SG+        A1 (1)
   23    12           0.3539148637           9.6305130468     SG+        A1 (1)
   24    92           0.4005681810          10.9000143512      PI        B1 (2)
   25   144           0.4005681810          10.9000143512      PI        B2 (3)
   26    13           0.4590925981          12.4925447026     SG+        A1 (1)
   27    14           0.5120966482          13.9348582310     SG+        A1 (1)
   28   192           0.5480870224          14.9142061028      DE        A2 (4)
   29    15           0.5480870224          14.9142061028      DE        A1 (1)
   30   145           0.6246365448          16.9972245057      PI        B2 (3)
   31    93           0.6246365448          16.9972245057      PI        B1 (2)
   32    16           0.7225376429          19.6612488220     SG+        A1 (1)
   33    94           0.7376007124          20.0711357804      PH        B1 (2)
   34   146           0.7376007124          20.0711357804      PH        B2 (3)
   35   193           0.7479107407          20.3516859140      DE        A2 (4)
   36    17           0.7479107407          20.3516859140      DE        A1 (1)
   37   147           0.7871648085          21.4198434040      PI        B2 (3)
   38    95           0.7871648085          21.4198434040      PI        B1 (2)
   39    18           0.8251959755          22.4547240708     SG+        A1 (1)
   40    19           0.8699959330          23.6737928884      DE        A1 (1)
   41   194           0.8699959330          23.6737928884      DE        A2 (4)
   42    20           0.8700644396          23.6756570484     SG+        A1 (1)
   43   148           0.8964546408          24.3937709307      PI        B2 (3)
   44    96           0.8964546408          24.3937709307      PI        B1 (2)
   45   149           1.0324538120          28.0944965206      PI        B2 (3)
   46    97           1.0324538120          28.0944965206      PI        B1 (2)
   47    21           1.1238204439          30.5807089707     SG+        A1 (1)
   48    22           1.3892303921          37.8028808311     SG+        A1 (1)
   49    98           1.4260954414          38.8060298202      PH        B1 (2)
   50   150           1.4260954414          38.8060298202      PH        B2 (3)
   51   151           1.5369748888          41.8232129766      PI        B2 (3)
   52    99           1.5369748888          41.8232129766      PI        B1 (2)
   53    23           1.5710347064          42.7500277319      DE        A1 (1)
   54   195           1.5710347064          42.7500277319      DE        A2 (4)
   55    24           1.6195001540          44.0688396061     SG+        A1 (1)
   56   152           1.6408496867          44.6497899266      PI        B2 (3)
   57   100           1.6408496867          44.6497899266      PI        B1 (2)
   58    25           1.7047430078          46.3884155831      DE        A1 (1)
   59   196           1.7047430078          46.3884155831      DE        A2 (4)
   60    26           1.8976418244          51.6374592402     SG+        A1 (1)
   61    27           1.9937306765          54.2521698348     SG+        A1 (1)
   62   197           2.0794649839          56.5851189441      PI        A2 (4)
   63    28           2.0794649839          56.5851189441      PI        A1 (1)
   64   153           2.0904227432          56.8832947345      PI        B2 (3)
   65   101           2.0904227432          56.8832947346      PI        B1 (2)
   66   198           2.1422572735          58.2937840099      DE        A2 (4)
   67    29           2.1422572735          58.2937840099      DE        A1 (1)
   68   154           2.2198235049          60.4044684730      PH        B2 (3)
   69   102           2.2198235049          60.4044684730      PH        B1 (2)
   70   103           2.2486889926          61.1899383252      PH        B1 (2)
   71   155           2.2486889926          61.1899383252      PH        B2 (3)
   72   156           2.2513370204          61.2619948252      PI        B2 (3)
   73   104           2.2513370204          61.2619948252      PI        B1 (2)
   74    30           2.2549058890          61.3591086777     SG+        A1 (1)
   75    31           2.3056174546          62.7390405317      DE        A1 (1)
   76   199           2.3056174546          62.7390405317      DE        A2 (4)
   77    32           2.4734460642          67.3058891722     SG+        A1 (1)
   78   105           2.5210122897          68.6002319725      PI        B1 (2)
   79   157           2.5210122897          68.6002319725      PI        B2 (3)
   80    33           2.6003507856          70.7591422008     SG+        A1 (1)
   81   158           2.6195266392          71.2809437063      PI        B2 (3)
   82   106           2.6195266392          71.2809437063      PI        B1 (2)
   83   200           2.7350283198          74.4239042213      DE        A2 (4)
   84    34           2.7350283198          74.4239042213      DE        A1 (1)
   85    35           3.1426816434          85.5167151026     SG+        A1 (1)
   86   107           3.5167585606          95.6958655187      PI        B1 (2)
   87   159           3.5167585606          95.6958655187      PI        B2 (3)
   88    36           3.7020523390         100.7379655632      PI        A1 (1)
   89   201           3.7020523390         100.7379655632      PI        A2 (4)
   90    37           3.9048817676         106.2572349089     SG+        A1 (1)
   91   160           3.9844982251         108.4237088611      PH        B2 (3)
   92   108           3.9844982251         108.4237088611      PH        B1 (2)
   93   161           4.1289999239         112.3557999879      PH        B2 (3)
   94   109           4.1289999239         112.3557999879      PH        B1 (2)
   95   162           4.1636138791         113.2976935949      PI        B2 (3)
   96   110           4.1636138791         113.2976935949      PI        B1 (2)
   97    38           4.1931754118         114.1021037928     SG+        A1 (1)
   98   202           4.2192483787         114.8115852936      DE        A2 (4)
   99    39           4.2192483787         114.8115852936      DE        A1 (1)
  100    40           4.2740122039         116.3017847372      DE        A1 (1)
  101   203           4.2740122039         116.3017847372      DE        A2 (4)
  102    41           4.4303131679         120.5549501944     SG+        A1 (1)
  103   163           4.6488475552         126.5015731922      PI        B2 (3)
  104   111           4.6488475552         126.5015731922      PI        B1 (2)
  105    42           4.8089635221         130.8585501572     SG+        A1 (1)
  106   204           4.8132443481         130.9750373538      DE        A2 (4)
  107    43           4.8132443481         130.9750373538      DE        A1 (1)
  108   112           5.1506033252         140.1550418238      PI        B1 (2)
  109   164           5.1506033252         140.1550418238      PI        B2 (3)
  110    44           5.3677217210         146.0631337360     SG+        A1 (1)
  111   113           5.4083259580         147.1680311948      PI        B1 (2)
  112   165           5.4083259580         147.1680311949      PI        B2 (3)
  113    45           5.8483290636         159.1411243986      PI        A1 (1)
  114   205           5.8483290636         159.1411243986      PI        A2 (4)
  115   114           5.9319895371         161.4176416182      PH        B1 (2)
  116   166           5.9319895371         161.4176416182      PH        B2 (3)
  117    46           6.1244768851         166.6554886446     SG+        A1 (1)
  118   206           6.1654391465         167.7701284452      DE        A2 (4)
  119    47           6.1654391465         167.7701284452      DE        A1 (1)
  120   167           6.1851186267         168.3056343245      PI        B2 (3)
  121   115           6.1851186267         168.3056343245      PI        B1 (2)
  122    48           6.2529200001         170.1506034917     SG+        A1 (1)
  123   168           6.3796325095         173.5986261675      PH        B2 (3)
  124   116           6.3796325095         173.5986261675      PH        B1 (2)
  125   207           6.4628750743         175.8637715142      DE        A2 (4)
  126    49           6.4628750743         175.8637715142      DE        A1 (1)
  127    50           6.5138557197         177.2510254016      DE        A1 (1)
  128   208           6.5138557197         177.2510254016      DE        A2 (4)
  129   117           6.9128825160         188.1090965424      PI        B1 (2)
  130   169           6.9128825160         188.1090965424      PI        B2 (3)
  131    51           7.1982190345         195.8734979459     SG+        A1 (1)
  132   170           7.5479293681         205.3895999108      PI        B2 (3)
  133   118           7.5479293681         205.3895999108      PI        B1 (2)
  134    52           8.1946293606         222.9872013531     SG+        A1 (1)
  135    53           9.6837293846         263.5076730274     SG+        A1 (1)
  136   171           9.8979887307         269.3379662403      PI        B2 (3)
  137   119           9.8979887307         269.3379662404      PI        B1 (2)
  138   209          10.6350982993         289.3957373179      PI        A2 (4)
  139    54          10.6350982993         289.3957373179      PI        A1 (1)
  140    55          10.7309434386         292.0038161519     SG+        A1 (1)
  141   120          10.7560845106         292.6879394998      PH        B1 (2)
  142   172          10.7560845106         292.6879394998      PH        B2 (3)
  143    56          10.9908518873         299.0762845974      DE        A1 (1)
  144   210          10.9908518873         299.0762845974      DE        A2 (4)
  145   173          11.0143047012         299.7144681087      PI        B2 (3)
  146   121          11.0143047012         299.7144681087      PI        B1 (2)
  147    57          11.2617150621         306.4468462974     SG+        A1 (1)
  148   122          11.8752488757         323.1419501283      PH        B1 (2)
  149   174          11.8752488757         323.1419501283      PH        B2 (3)
  150   211          12.0336557467         327.4524202283      DE        A2 (4)
  151    58          12.0336557467         327.4524202284      DE        A1 (1)
  152   175          12.5402238879         341.2368401352      PI        B2 (3)
  153   123          12.5402238879         341.2368401352      PI        B1 (2)
  154    59          12.7466851125         346.8549356764      DE        A1 (1)
  155   212          12.7466851125         346.8549356764      DE        A2 (4)
  156    60          12.7907858540         348.0549778596     SG+        A1 (1)
  157   124          13.0875780865         356.1311050879      PI        B1 (2)
  158   176          13.0875780865         356.1311050879      PI        B2 (3)
  159    61          13.8080847362         375.7370877754     SG+        A1 (1)
  160    62          17.4549728851         474.9739594137     SG+        A1 (1)
  161   125          18.8263187019         512.2901762082      PI        B1 (2)
  162   177          18.8263187019         512.2901762084      PI        B2 (3)
  163    63          20.1064209510         547.1235293001     SG+        A1 (1)
  164    64          26.3050315720         715.7962994535      DE        A1 (1)
  165   213          26.3050315720         715.7962994536      DE        A2 (4)
  166   178          26.6884022233         726.2283452305      PI        B2 (3)
  167   126          26.6884022233         726.2283452305      PI        B1 (2)
  168    65          27.1854633142         739.7540651499     SG+        A1 (1)
  169   179          33.5607721207         913.2350373759      PI        B2 (3)
  170   127          33.5607721207         913.2350373766      PI        B1 (2)
  171    66          34.3346236614         934.2926083451     SG+        A1 (1)
  172    67          35.8528038323         975.6043910470     SG+        A1 (1)
  173   214          47.0749451655        1280.9743814335      DE        A2 (4)
  174    68          47.0749451655        1280.9743814335      DE        A1 (1)
  175   128          47.2583189574        1285.9642359880      PI        B1 (2)
  176   180          47.2583189574        1285.9642359882      PI        B2 (3)
  177    69          47.6867497029        1297.6224292651     SG+        A1 (1)
  178    70          63.8684897898        1737.9499628483     SG+        A1 (1)
  179   129          66.3895297956        1806.5509490148      PI        B1 (2)
  180   181          66.3895297956        1806.5509490150      PI        B2 (3)
  181    71          67.3080249694        1831.5444733380     SG+        A1 (1)
  182   182          98.5432607634        2681.4984501201      PH        B2 (3)
  183   130          98.5432607634        2681.4984501201      PH        B1 (2)
  184   215          98.5566650683        2681.8631997986      DE        A2 (4)
  185    72          98.5566650683        2681.8631997987      DE        A1 (1)
  186   183          98.5730822165        2682.3099331129      PI        B2 (3)
  187   131          98.5730822165        2682.3099331130      PI        B1 (2)
  188    73          98.5896596068        2682.7610268352     SG+        A1 (1)
  189   184         103.2955946813        2810.8160304052      PH        B2 (3)
  190   132         103.2955946813        2810.8160304052      PH        B1 (2)
  191   216         103.3061030901        2811.1019787437      DE        A2 (4)
  192    74         103.3061030902        2811.1019787471      DE        A1 (1)
  193   133         103.3470971077        2812.2174826746      PI        B1 (2)
  194   185         103.3470971077        2812.2174826746      PI        B2 (3)
  195    75         103.3493949992        2812.2800114814     SG+        A1 (1)
  196    76         115.0011194232        3129.3395520536      DE        A1 (1)
  197   217         115.0011194232        3129.3395520536      DE        A2 (4)
  198   186         115.1853134699        3134.3517268783      PI        B2 (3)
  199   134         115.1853134699        3134.3517268783      PI        B1 (2)
  200    77         115.4547760421        3141.6841762425     SG+        A1 (1)
  201   187         116.8437652227        3179.4804933736      PI        B2 (3)
  202   135         116.8437652227        3179.4804933742      PI        B1 (2)
  203    78         117.4752415954        3196.6638390609     SG+        A1 (1)
  204    79         122.0642506882        3321.5371249092     SG+        A1 (1)
  205    80         198.5513967535        5402.8581816639      DE        A1 (1)
  206   218         198.5513967535        5402.8581816639      DE        A2 (4)
  207   136         198.6508414742        5405.5642100858      PI        B1 (2)
  208   188         198.6508414742        5405.5642100858      PI        B2 (3)
  209    81         198.8745792602        5411.6524247630     SG+        A1 (1)
  210    82         216.3999510071        5888.5420345953     SG+        A1 (1)
  211   137         224.8592857501        6118.7322355966      PI        B1 (2)
  212   189         224.8592857501        6118.7322355967      PI        B2 (3)
  213    83         225.5732742788        6138.1608511929     SG+        A1 (1)
  214   190         395.3393931824       10757.7318010098      PI        B2 (3)
  215   138         395.3393931824       10757.7318010101      PI        B1 (2)
  216    84         395.8758492612       10772.3295130463     SG+        A1 (1)
  217    85         508.7379149738       13843.4624544680     SG+        A1 (1)
  218    86         895.2274615506       24360.3776864632     SG+        A1 (1)


  VSCF finished.

 @CHECKOUT-I, Total execution time (CPU/WALL):       56.97/      14.58 seconds.
--executable xvscf finished with status     0 in       14.65 seconds (walltime).
 --invoking executable--
/nfs/workspaces/public/cfour_mpi/bin/xvtran
 @GETMEM-I,  Allocated    3814 MB of main memory.
  Full RHF integral transformation
  Transformation of IIII integrals :
  1 pass through the AO integral file was required.
     4481914 AO integrals were read.
     8724804 MO integrals were written to HF2.
  Transformation of IIJJ integrals :
  1 pass through the AO integral file was required.
    10176715 AO integrals were read.
    14483599 MO integrals were written to HF2.
  Transformation of IJIJ integrals :
  1 pass through the AO integral file was required.
    19326702 AO integrals were read.
    27074901 MO integrals were written to HF2.
  Transformation of IJKL integrals :
  1 pass through the AO integral file was required.
    14299509 AO integrals were read.
    18303206 MO integrals were written to HF2.
  Summary of active molecular orbitals: 
------------------------------------------------------------------------
 
  Index      Eigenvalue    Symmetry    Index      Eigenvalue    Symmetry
------------------------------------------------------------------------
     1       -20.6575954        1       110         4.1289999        2
     2       -11.4873584        1       111         4.1636139        2
     3        -1.3326155        1       112         4.6488476        2
     4        -0.7956507        1       113         5.1506033        2
     5        -0.5555064        1       114         5.4083260        2
     6        -0.5282293        2       115         5.9319895        2
     7        -0.5282293        3       116         6.1851186        2
     8         0.0626071        1       117         6.3796325        2
     9         0.0683839        1       118         6.9128825        2
    10         0.1574152        1       119         7.5479294        2
    11         0.2204864        1       120         9.8979887        2
    12         0.2241859        1       121        10.7560845        2
    13         0.2996606        1       122        11.0143047        2
    14         0.3539149        1       123        11.8752489        2
    15         0.4590926        1       124        12.5402239        2
    16         0.5120966        1       125        13.0875781        2
    17         0.5480870        1       126        18.8263187        2
    18         0.7225376        1       127        26.6884022        2
    19         0.7479107        1       128        33.5607721        2
    20         0.8251960        1       129        47.2583190        2
    21         0.8699959        1       130        66.3895298        2
    22         0.8700644        1       131        98.5432608        2
    23         1.1238204        1       132        98.5730822        2
    24         1.3892304        1       133       103.2955947        2
    25         1.5710347        1       134       103.3470971        2
    26         1.6195002        1       135       115.1853135        2
    27         1.7047430        1       136       116.8437652        2
    28         1.8976418        1       137       198.6508415        2
    29         1.9937307        1       138       224.8592858        2
    30         2.0794650        1       139       395.3393932        2
    31         2.1422573        1       140         0.0205840        3
    32         2.2549059        1       141         0.0858988        3
    33         2.3056175        1       142         0.1750323        3
    34         2.4734461        1       143         0.2928329        3
    35         2.6003508        1       144         0.4005682        3
    36         2.7350283        1       145         0.6246365        3
    37         3.1426816        1       146         0.7376007        3
    38         3.7020523        1       147         0.7871648        3
    39         3.9048818        1       148         0.8964546        3
    40         4.1931754        1       149         1.0324538        3
    41         4.2192484        1       150         1.4260954        3
    42         4.2740122        1       151         1.5369749        3
    43         4.4303132        1       152         1.6408497        3
    44         4.8089635        1       153         2.0904227        3
    45         4.8132443        1       154         2.2198235        3
    46         5.3677217        1       155         2.2486890        3
    47         5.8483291        1       156         2.2513370        3
    48         6.1244769        1       157         2.5210123        3
    49         6.1654391        1       158         2.6195266        3
    50         6.2529200        1       159         3.5167586        3
    51         6.4628751        1       160         3.9844982        3
    52         6.5138557        1       161         4.1289999        3
    53         7.1982190        1       162         4.1636139        3
    54         8.1946294        1       163         4.6488476        3
    55         9.6837294        1       164         5.1506033        3
    56        10.6350983        1       165         5.4083260        3
    57        10.7309434        1       166         5.9319895        3
    58        10.9908519        1       167         6.1851186        3
    59        11.2617151        1       168         6.3796325        3
    60        12.0336557        1       169         6.9128825        3
    61        12.7466851        1       170         7.5479294        3
    62        12.7907859        1       171         9.8979887        3
    63        13.8080847        1       172        10.7560845        3
    64        17.4549729        1       173        11.0143047        3
    65        20.1064210        1       174        11.8752489        3
    66        26.3050316        1       175        12.5402239        3
    67        27.1854633        1       176        13.0875781        3
    68        34.3346237        1       177        18.8263187        3
    69        35.8528038        1       178        26.6884022        3
    70        47.0749452        1       179        33.5607721        3
    71        47.6867497        1       180        47.2583190        3
    72        63.8684898        1       181        66.3895298        3
    73        67.3080250        1       182        98.5432608        3
    74        98.5566651        1       183        98.5730822        3
    75        98.5896596        1       184       103.2955947        3
    76       103.3061031        1       185       103.3470971        3
    77       103.3493950        1       186       115.1853135        3
    78       115.0011194        1       187       116.8437652        3
    79       115.4547760        1       188       198.6508415        3
    80       117.4752416        1       189       224.8592858        3
    81       122.0642507        1       190       395.3393932        3
    82       198.5513968        1       191         0.2241859        4
    83       198.8745793        1       192         0.5480870        4
    84       216.3999510        1       193         0.7479107        4
    85       225.5732743        1       194         0.8699959        4
    86       395.8758493        1       195         1.5710347        4
    87       508.7379150        1       196         1.7047430        4
    88       895.2274616        1       197         2.0794650        4
    89         0.0205840        2       198         2.1422573        4
    90         0.0858988        2       199         2.3056175        4
    91         0.1750323        2       200         2.7350283        4
    92         0.2928329        2       201         3.7020523        4
    93         0.4005682        2       202         4.2192484        4
    94         0.6246365        2       203         4.2740122        4
    95         0.7376007        2       204         4.8132443        4
    96         0.7871648        2       205         5.8483291        4
    97         0.8964546        2       206         6.1654391        4
    98         1.0324538        2       207         6.4628751        4
    99         1.4260954        2       208         6.5138557        4
   100         1.5369749        2       209        10.6350983        4
   101         1.6408497        2       210        10.9908519        4
   102         2.0904227        2       211        12.0336557        4
   103         2.2198235        2       212        12.7466851        4
   104         2.2486890        2       213        26.3050316        4
   105         2.2513370        2       214        47.0749452        4
   106         2.5210123        2       215        98.5566651        4
   107         2.6195266        2       216       103.3061031        4
   108         3.5167586        2       217       115.0011194        4
   109         3.9844982        2       218       198.5513968        4
------------------------------------------------------------------------
  -20.6575953924851       -11.4873584449603       -1.33261550962525     
 -0.795650687367460      -0.555506421126184      -0.528229342794792     
 -0.528229342794789       6.260714665724890E-002  6.838392355899182E-002
  0.157415180831643       0.220486362560115       0.224185884239104     
  0.299660567124608       0.353914863687529       0.459092598083695     
  0.512096648162681       0.548087022388128       0.722537642905369     
  0.747910740692239       0.825195975548091       0.869995932965633     
  0.870064439592014        1.12382044386354        1.38923039212678     
   1.57103470644753        1.61950015397226        1.70474300777579     
   1.89764182442214        1.99373067650717        2.07946498391189     
   2.14225727347204        2.25490588904576        2.30561745462974     
   2.47344606419968        2.60035078557673        2.73502831984954     
   3.14268164339717        3.70205233899452        3.90488176756695     
   4.19317541175636        4.21924837873679        4.27401220392159     
   4.43031316792277        4.80896352212670        4.81324434809213     
   5.36772172104887        5.84832906358631        6.12447688508829     
[...]
 Convergence information after    14 iterations: 
 Largest element of residual vector :  0.14298873E-05.
 Largest element of DIIS residual   :  0.99030994E-06.
 Convergence information after    15 iterations: 
 Largest element of residual vector :  0.90076687E-06.
 Largest element of DIIS residual   :  0.71350359E-06.
 Convergence information after    16 iterations: 
 Largest element of residual vector :  0.51785047E-06.
 Largest element of DIIS residual   :  0.21531513E-06.
 Convergence information after    17 iterations: 
 Largest element of residual vector :  0.22269373E-06.
 Largest element of DIIS residual   :  0.75308845E-07.
 Perturbed amplitude equations converged in    17 iterations.
  Dominant contributions to perturbed wavefunction:
    7    7  140   28   0.2405674563 ABAB
    7    7   28  140   0.2405674563 ABAB
    7    7  140   39  -0.2222208400 ABAB
    7    7   39  140  -0.2222208400 ABAB
    7    7  140   22  -0.1834937611 ABAB
    7    7   22  140  -0.1834937611 ABAB
    7    7  140   44   0.1746898723 ABAB
    7    7   44  140   0.1746898723 ABAB
    7    7  140   54  -0.1665795929 ABAB
    7    7   54  140  -0.1665795929 ABAB
    7    6   28   89   0.1515412673 ABAB
    6    7   89   28   0.1515412673 ABAB
    7    7  140   57   0.1434200189 ABAB
    7    7   57  140   0.1434200189 ABAB
    7    7  140   29  -0.1418066821 ABAB
    7    7   29  140  -0.1418066821 ABAB
    7    6   39   89  -0.1407879808 ABAB
    6    7   89   39  -0.1407879808 ABAB
    7    7  140   24   0.1331098238 ABAB
    7    7   24  140   0.1331098238 ABAB
  norm of converged amps    1.82237302998472     
 Starting iterative solution of the perturbed Lambda equations.
 The DIIS procedure is used to accelerate convergence.
 Convergence criterion is 10**(-7).
 Maximum number of iterations is 100.
 Convergence information after     1 iterations: 
 Largest element of residual vector :  0.69521095E-01.
 Largest element of DIIS residual   :  0.69521095E-01.
 Convergence information after     2 iterations: 
 Largest element of residual vector : -0.12565571E-01.
 Largest element of DIIS residual   :  0.87879852E-02.
 Convergence information after     3 iterations: 
 Largest element of residual vector : -0.61855082E-02.
 Largest element of DIIS residual   : -0.57364916E-02.
 Convergence information after     4 iterations: 
 Largest element of residual vector : -0.38295582E-02.
 Largest element of DIIS residual   : -0.33836580E-02.
 Convergence information after     5 iterations: 
 Largest element of residual vector : -0.29400926E-02.
 Largest element of DIIS residual   : -0.19805861E-02.
 Convergence information after     6 iterations: 
 Largest element of residual vector : -0.13057014E-02.
 Largest element of DIIS residual   : -0.57257832E-03.
 Convergence information after     7 iterations: 
 Largest element of residual vector : -0.57155613E-03.
 Largest element of DIIS residual   : -0.22815481E-03.
 Convergence information after     8 iterations: 
 Largest element of residual vector : -0.14883572E-03.
 Largest element of DIIS residual   : -0.10041346E-03.
 Convergence information after     9 iterations: 
 Largest element of residual vector : -0.59164431E-04.
 Largest element of DIIS residual   : -0.22506613E-04.
 Convergence information after    10 iterations: 
 Largest element of residual vector : -0.18565927E-04.
 Largest element of DIIS residual   : -0.84254469E-05.
 Convergence information after    11 iterations: 
 Largest element of residual vector : -0.38958780E-05.
 Largest element of DIIS residual   : -0.30234379E-05.
 Convergence information after    12 iterations: 
 Largest element of residual vector : -0.21504575E-05.
 Largest element of DIIS residual   : -0.15696869E-05.
 Convergence information after    13 iterations: 
 Largest element of residual vector :  0.12919555E-05.
 Largest element of DIIS residual   :  0.13564085E-05.
 Convergence information after    14 iterations: 
 Largest element of residual vector :  0.98678112E-06.
 Largest element of DIIS residual   :  0.78472090E-06.
 Convergence information after    15 iterations: 
 Largest element of residual vector :  0.68889768E-06.
 Largest element of DIIS residual   :  0.55397010E-06.
 Convergence information after    16 iterations: 
 Largest element of residual vector :  0.39636519E-06.
 Largest element of DIIS residual   :  0.20974598E-06.
 Convergence information after    17 iterations: 
 Largest element of residual vector :  0.19755621E-06.
 Largest element of DIIS residual   :  0.74767035E-07.
 Perturbed Lambda equations converged in    17 iterations.
  Dominant contributions to perturbed wavefunction:
    7    7  140   28   0.2126681168 ABAB
    7    7   28  140   0.2126681168 ABAB
    7    7  140   39  -0.1933844916 ABAB
    7    7   39  140  -0.1933844916 ABAB
    7    7  140   22  -0.1607534547 ABAB
    7    7   22  140  -0.1607534547 ABAB
    7    7  140   44   0.1524809290 ABAB
    7    7   44  140   0.1524809290 ABAB
    7    7  140   54  -0.1478256995 ABAB
    7    7   54  140  -0.1478256995 ABAB
    7    6   28   89   0.1316686228 ABAB
    6    7   89   28   0.1316686228 ABAB
    7    7  140   57   0.1242235385 ABAB
    7    7   57  140   0.1242235385 ABAB
    7    7  140   29  -0.1216828562 ABAB
    7    7   29  140  -0.1216828562 ABAB
    7    6   39   89  -0.1205283883 ABAB
    6    7   89   39  -0.1205283883 ABAB
    7    7  140   24   0.1128332725 ABAB
    7    7   24  140   0.1128332725 ABAB
        The DBOC first-order density matrix is being calculated 
             (Symmetry block 3, perturbation   2)
 term   3.62392811233266     
 final tnorm  0.833850734530131     
  norm contr. I: |<0|L dT/dx|0>|^2   0.000000000000000E+000
  norm contr. II: <0|[nabla(1+L)e-T][nabla e^T]|0>   3.62392811233266     
  total norm contribution   3.62392811233266     
 oo  8.089486737806172E-003
 vv  -27.1507588827514     
 vo  7.246265445141778E-002
  Correlated perturbed 1-el contribution to DBOC  -27.0702067415622       cm**-1
  SUM_I |dc_I/dx|^2 contribution to DBOC   13.6430369810764       cm**-1
 
 
  The total diagonal Born-Oppenheimer correction (DBOC) is:      0.0040083848 a.u.
  The total diagonal Born-Oppenheimer correction (DBOC) is:        879.738769 cm-1
 
 Total CC energy including DBOC  -113.151243179129     
 First-order density matrix is being calculated  (Symmetry block 3, perturbation   2)
 Calculation of the contributions of <pq||rs> to dI(i,j)/dx required   3.1 seconds.
 Calculation of the contributions of <pq||rs> to dI(a,b)/dx required  15.8 seconds.
 Calculation of the contributions of <pq||rs> to dI(i,a)/dx required   9.5 seconds.
 First-order Z-vector equations are solved for 1 perturbation.
 Convergence reached after  22 iterations.
        U*G(pq,rs) contribution is being calculated
             (Symmetry block 3, perturbation   2)

 CCSD contribution to force constants 

        0.0000000000        0.0000000000        0.0000000000
        0.0000000000        0.0000000000        0.0000000000
        0.0000000000        0.0000000000        0.0000000000
        0.0000000000        0.0000000000        0.0000000000
        0.0000000000        0.0000000000        0.0000000000
        0.0000000000        0.0000000000        0.0000000000
        0.0000000000        0.0000000000        0.0000000000
        0.0000000000        0.0000000000        0.0000000000
        0.0000000000        0.0000000000        0.0000000000
        0.0000000000        0.0000000000        0.0000000000
        0.0000000000        0.0000000000        0.0000000000
        0.0000000000       -0.9519983749        0.9519983749

 CCSD contribution to dipole derivatives 

        0.0000000000        0.0000000000        0.0000000000
        0.0000000000        0.0000000000        0.0000000000
        0.0000000000        0.0000000000        0.0000000000
        0.0000000000        0.0000000000       -0.0556556527
        0.0000000000        0.0000000000        0.0000000000
        0.0000000000        0.0000000000        0.0000000000
 @CHECKOUT-I, Total execution time (CPU/WALL):     1325.25/     503.60 seconds.
--executable xsdcc finished with status     0 in      503.82 seconds (walltime).
 --invoking executable--
/nfs/workspaces/public/cfour_mpi/bin/xanti
 @GETMEM-I,  Allocated    3814 MB of main memory.
 CCSD MO derivative gammas will be sorted to Mulliken order.
 @CHECKOUT-I, Total execution time (CPU/WALL):       12.28/      27.91 seconds.
--executable xanti finished with status     0 in       28.06 seconds (walltime).
 --invoking executable--
/nfs/workspaces/public/cfour_mpi/bin/xbcktrn
 @GETMEM-I,  Allocated    3814 MB of main memory.
 CCSD MO derivative gammas will be transformed to the AO basis.
 @CHECKOUT-I, Total execution time (CPU/WALL):       25.31/       6.66 seconds.
--executable xbcktrn finished with status     0 in        6.73 seconds (walltime).
 --invoking executable--
/nfs/workspaces/public/cfour_mpi/bin/xvdint
 @GETMEM-I,  Allocated    3814 MB of main memory.
 One- and two-electron integral derivatives are calculated
 for RHF-CC/MBPT hessians and dipole derivatives.
 Spherical gaussians are used.
  magnet F F
                    8722  records have been written to the Sort file.
  Total length of Sort file :             178609116  words.
 Evaluation of 2el integral derivatives

                      Two-electron integral gradient
                      ------------------------------

                         C #1 z     0.0000000000
                         O #2 z     0.0000000000


 C #1       0.0000000000           -0.0030910398            0.0000000000
 O #2       0.0000000000            0.0030910398            0.0000000000


 Evaluation of 2e integral derivatives required  371.62 seconds.
  contribution to Hessian
        0.0000000000        0.0000000000        0.0000000000
        0.0000000000       -0.0030910398        0.0030910398
 @CHECKOUT-I, Total execution time (CPU/WALL):      371.61/      72.76 seconds.
--executable xvdint finished with status     0 in       72.92 seconds (walltime).
 --invoking executable--
/nfs/workspaces/public/cfour_mpi/bin/xanti
 @GETMEM-I,  Allocated    3814 MB of main memory.
 CCSD MO gammas will be sorted to Mulliken order.
 @CHECKOUT-I, Total execution time (CPU/WALL):       18.33/      58.90 seconds.
--executable xanti finished with status     0 in       60.00 seconds (walltime).
 --invoking executable--
/nfs/workspaces/public/cfour_mpi/bin/xbcktrn
 @GETMEM-I,  Allocated    3814 MB of main memory.
 CCSD MO gammas will be transformed to the AO basis.
 @CHECKOUT-I, Total execution time (CPU/WALL):       46.26/      20.24 seconds.
--executable xbcktrn finished with status     0 in       20.31 seconds (walltime).
 --invoking executable--
/nfs/workspaces/public/cfour_mpi/bin/xvdint
 @GETMEM-I,  Allocated    3814 MB of main memory.
 One- and two-electron integral derivatives are calculated
 for RHF-CC/MBPT hessians and dipole derivatives.
 Spherical gaussians are used.
  magnet F F

                     Kinetic energy integral gradient
                     --------------------------------

                         C #1 z    -0.7192463285
                         O #2 z     0.7192463285


 C #1       0.0000000000            0.0000000000           -0.7192463285
 O #2       0.0000000000            0.0000000000            0.7192463285



                   Nuclear attraction integral gradient
                   ------------------------------------

                         C #1 z    15.9948791483
                         O #2 z   -15.9948791483


 C #1       0.0000000000            0.0000000000           15.9948791483
 O #2       0.0000000000            0.0000000000          -15.9948791483



                      Reorthonormalization gradient
                      -----------------------------

                         C #1 z     0.0000000000
                         O #2 z     0.0000000000


 C #1       0.0000000000            0.0000000000            0.0000000000
 O #2       0.0000000000            0.0000000000            0.0000000000



                     Kinetic energy integral Hessian
                     -------------------------------


           Symmetry 1

           C #1 z      O #2 z

 C #1 z    0.737005
 O #2 z   -0.737005    0.737005


           Symmetry 2

           C #1 x      O #2 x

 C #1 x   -0.630404
 O #2 x    0.630404   -0.630404


           Symmetry 3

           C #1 y      O #2 y

 C #1 y   -0.630404
 O #2 y    0.630404   -0.630404




           C #1 x      C #1 y      C #1 z      O #2 x      O #2 y      O #2 z

 C #1 x   -0.630404
 C #1 y    0.000000   -0.630404
 C #1 z    0.000000    0.000000    0.737005

 O #2 x    0.630404    0.000000    0.000000   -0.630404
 O #2 y    0.000000    0.630404    0.000000    0.000000   -0.630404
 O #2 z    0.000000    0.000000   -0.737005    0.000000    0.000000    0.737005




                   Nuclear attraction integral Hessian
                   -----------------------------------


           Symmetry 1

           C #1 z      O #2 z

 C #1 z   -9.896783
 O #2 z    9.896783   -9.896783


           Symmetry 2

           C #1 x      O #2 x

 C #1 x    9.752017
 O #2 x   -9.752017    9.752017


           Symmetry 3

           C #1 y      O #2 y

 C #1 y    9.752017
 O #2 y   -9.752017    9.752017




           C #1 x      C #1 y      C #1 z      O #2 x      O #2 y      O #2 z

 C #1 x    9.752017
 C #1 y    0.000000    9.752017
 C #1 z    0.000000    0.000000   -9.896783

 O #2 x   -9.752017    0.000000    0.000000    9.752017
 O #2 y    0.000000   -9.752017    0.000000    0.000000    9.752017
 O #2 z    0.000000    0.000000    9.896783    0.000000    0.000000   -9.896783




                Highest order reorthonormalization Hessian
                ------------------------------------------


           Symmetry 1

           C #1 z      O #2 z

 C #1 z    0.000000
 O #2 z    0.000000    0.000000


           Symmetry 2

           C #1 x      O #2 x

 C #1 x    0.000000
 O #2 x    0.000000    0.000000


           Symmetry 3

           C #1 y      O #2 y

 C #1 y    0.000000
 O #2 y    0.000000    0.000000




           C #1 x      C #1 y      C #1 z      O #2 x      O #2 y      O #2 z




                Electronic contributions to dipole moment
                -----------------------------------------

                               au             Debye

                    z      1.10658502      2.81265907

  Conversion factor used: 1 a.u. =   2.54174691 Debye 



   Electronic contributions to static part of dipole moment derivatives
   --------------------------------------------------------------------


                     Total dipole moment derivatives
                     -------------------------------


           Symmetry 1
                              Ez

               C #1 z    -5.66877806
               O #2 z    -8.33122194

           Symmetry 2
                              Ex

               C #1 x    -5.67385698
               O #2 x    -8.32614302

           Symmetry 3
                              Ey

               C #1 y    -5.67385698
               O #2 y    -8.32614302



                       Ex          Ey          Ez

      C #1    x   -5.673857    0.000000    0.000000
      C #1    y    0.000000   -5.673857    0.000000
      C #1    z    0.000000    0.000000   -5.668778

      O #2    x   -8.326143    0.000000    0.000000
      O #2    y    0.000000   -8.326143    0.000000
      O #2    z    0.000000    0.000000   -8.331222

 Evaluation of 1e integral derivatives required    1.70 seconds.
                    8815  records have been written to the Sort file.
  Total length of Sort file :             180513570  words.
 Evaluation of 2el integral derivatives

                      Two-electron integral gradient
                      ------------------------------

                         C #1 z    -8.3060696483
                         O #2 z     8.3060696483


 C #1       0.0000000000            0.0000000000           -8.3060696483
 O #2       0.0000000000            0.0000000000            8.3060696483


 Evaluation of 2e integral derivatives required  719.19 seconds.

                            Molecular gradient
                            ------------------

                         C #1 z     0.6518692376
                         O #2 z    -0.6518692376


 C #1       0.0000000000            0.0000000000            0.6518692376
 O #2       0.0000000000            0.0000000000           -0.6518692376


  Molecular gradient norm 0.922E+00

                            Molecular hessian
                            -----------------


           Symmetry 1

           C #1 z      O #2 z

 C #1 z   25.649435
 O #2 z  -25.649435   25.649435


           Symmetry 2

           C #1 x      O #2 x

 C #1 x    1.232644
 O #2 x   -1.232644    1.232644


           Symmetry 3

           C #1 y      O #2 y

 C #1 y    1.232644
 O #2 y   -1.232644    1.232644




           C #1 x      C #1 y      C #1 z      O #2 x      O #2 y      O #2 z

 C #1 x    1.232644
 C #1 y    0.000000    1.232644
 C #1 z    0.000000    0.000000   25.649435

 O #2 x   -1.232644    0.000000    0.000000    1.232644
 O #2 y    0.000000   -1.232644    0.000000    0.000000    1.232644
 O #2 z    0.000000    0.000000  -25.649435    0.000000    0.000000   25.649435




                           Total dipole moment
                           -------------------

                               au             Debye

                    z      0.34070363      0.86598240

  Conversion factor used: 1 a.u. =   2.54174691 Debye 



                     Total dipole moment derivatives
                     -------------------------------


           Symmetry 1
                              Ez

               C #1 z     0.64445593
               O #2 z    -0.64445593

           Symmetry 2
                              Ex

               C #1 x     0.12854782
               O #2 x    -0.12854782

           Symmetry 3
                              Ey

               C #1 y     0.12854782
               O #2 y    -0.12854782



                       Ex          Ey          Ez

      C #1    x    0.128548    0.000000    0.000000
      C #1    y    0.000000    0.128548    0.000000
      C #1    z    0.000000    0.000000    0.644456

      O #2    x   -0.128548    0.000000    0.000000
      O #2    y    0.000000   -0.128548    0.000000
      O #2    z    0.000000    0.000000   -0.644456

 @CHECKOUT-I, Total execution time (CPU/WALL):      720.87/     126.51 seconds.
--executable xvdint finished with status     0 in      126.70 seconds (walltime).
 --invoking executable--
/nfs/workspaces/public/cfour_mpi/bin/xjoda
  @GTFLGS-I, Hessian will be transformed to curvilinear coordinates.
  @GTFLGS-I, Hessian will be transformed to curvilinear coordinates.
  igrd and ihes are                      0                     1
  gradient from JOBARC 
   0.000000000000000   0.000000000000000   0.651869237609185
   0.000000000000000   0.000000000000000  -0.651869237609185
 
  @PROJFCM-I, Projecting force constant matrix onto totally symmetric subspace.
  Largest difference between matrix elements of symmetrized
  and unsymmetrized FCM :    -0.2454481063E-11.
  read isotopes from ZMAT file 
 
  Summary of diagonal Born-Oppenheimer correction at the correlated level
  The total diagonal Born-Oppenheimer correction (DBOC) is:      0.0040083848 a.u.
  The total diagonal Born-Oppenheimer correction (DBOC) is:        879.738769 cm-1
  The total diagonal Born-Oppenheimer correction (DBOC) is:            10.524 kJ/mole
  hellooooooo 
  readis is  F
 
 @CHECKOUT-I, Total execution time (CPU/WALL):        0.02/       0.08 seconds.
--executable xjoda finished with status     0 in        0.14 seconds (walltime).
  The final electronic energy is      -113.151243179128940 a.u. 
  This computation required                         4625.35 seconds (walltime).
