 --invoking executable--
/nfs/workspaces/public/cfour_mpi/bin/xjoda


   *************************************************************************
         <<<     CCCCCC     CCCCCC   |||     CCCCCC     CCCCCC   >>>
       <<<      CCC        CCC       |||    CCC        CCC         >>>
      <<<      CCC        CCC        |||   CCC        CCC            >>>
    <<<        CCC        CCC        |||   CCC        CCC              >>>
      <<<      CCC        CCC        |||   CCC        CCC            >>>
       <<<      CCC        CCC       |||    CCC        CCC         >>>
         <<<     CCCCCC     CCCCCC   |||     CCCCCC     CCCCCC   >>>
   *************************************************************************

     ****************************************************************
     * CFOUR Coupled-Cluster techniques for Computational Chemistry *
     ****************************************************************
 

   Department of Chemistry                Institut fuer Physikalische Chemie
   University of Florida                  Universitaet Mainz
   Gainesville, FL 32611, USA             D-55099 Mainz, Germany

   Department of Chemistry                Fakultaet fuer Chemie und Biowiss.
   Johns Hopkins University               Karlsruher Institut fuer Technologie
   Baltimore, MD 21218, USA               D-76131 Karlsruhe, Germany

   Department of Chemistry                Department of Physical Chemistry
   Southern Methodist University          Eotvos Lorand University
   Dallas, TX 75275, USA                  H-1053 Budapest, Hungary

 
                       Version 2.1
 
                     vincent.theory.phys.ucl.ac.uk                     
                     Thu 27 Feb 10:14:28 GMT 2025                      
                     integer*8 version is running
 
********************************************************************************
*                          Input from ZMAT file                                *
********************************************************************************
Carbon Monoxide DBOC calculation                                                
C                                                                               
O 1 r                                                                           
                                                                                
r=1.303448275862069                                                             
                                                                                
                                                                                
*CFOUR(CALC=CCSD,BASIS=AUG-PCVQZ,SCF_CONV=10                                    
CC_CONV=14,DBOC=ON,MEMORY=500000000                                             
ZFIELD=-200)                                                                    
                                                                                
%isotopes                                                                       
13                                                                              
16                                                                              
********************************************************************************
  @GTFLGS-I, Hessian will be transformed to curvilinear coordinates.
    -------------------------------------------------------------------
                    CFOUR Control Parameters 
    -------------------------------------------------------------------
        External           Internal           Value            Units
          Name               Name
    -------------------------------------------------------------------
       ABCDTYPE             IABCDT         STANDARD    [  0]    ***   
       ANHARMONIC           IANHAR         OFF         [  0]    ***   
       ANH_ALGORIT          IANALG         STANDARD    [  0]    ***   
       ANH_DERIVAT          IANDER         SECOND      [  1]    ***   
       ANH_MODE             ANHMOD         VIBRATION   [  0]    ***   
       ANH_STEPSIZ          ICUBST             50000          x 10-6  
       ANH_SYMMETR          IANHSM         ABELIAN     [  0]    ***   
       AO_LADDERS           IAOLAD         SINGLEPASS  [  1]    ***   
       AV_SCF               IAVSCF         OFF         [  0]    ***   
       BASIS                IBASIS         AUG-PCVQZ   [ 52]    ***   
       BOTHVECTORS          BOTHVC         OFF         [  0]    ***   
       BOX_POTENT           IPIAB          OFF         [  0]    ***   
       BREIT                IBREIT         OFF         [  0]    ***   
       BRUCK_CONV           IBRTOL          10D-  4             ***   
       BRUECKNER            IBRKNR         OFF         [  0]    ***   
       BUFFERSIZE           IBUFFS              4096            ***   
       CACHE_RECS           ICHREC             10               ***   
       CALCLEVEL            ICLLVL         CCSD        [ 10]    ***   
       CCORBOPT             ICCORB         OFF         [  0]  x 0.01  
       CC_CONV              ICCCNV          10D- 14             ***   
       CC_EXPORDER          ICCEOR              5               ***   
       CC_EXTRAPOL          ICCEXT         DIIS        [  1]    ***   
       CC_GUESS             ICCGES         MP2         [  0]    ***   
       CC_MAXCYC            ICCCYC            100              cycles 
       CC_PROGRAM           ICCPRO         VCC         [  0]    ***   
       CHARGE               ICHRGE              0               ***   
       CHOLESKY             ICHOLE         OFF         [  0]    ***   
       CIS_CONV             ICISTL              5               ***   
       COMM_SIZE            IPSIZE            ***               ***   
       CONSTANT             ICONST         OLD         [  1]    ***   
       CONTINUUM            ICONTU         NONE        [  0]    ***   
       CONTRACTION          ICNTYP         GENERAL     [  1]    ***   
       COORDINATES          ICOORD         INTERNAL    [  0]    ***   
       CPHF_CONVER          ICPHFT          10D- 16             ***   
       CPHF_MAXCYC          ICPHFC             64              cycles 
       CUBIC                ICUBIC         OFF         [  0]    ***   
       CURVILINEAR          ICURVY         ON          [  1]    ***   
       DBOC                 IDBOC          ON          [  1]    ***   
       DCT                  IDCT           OFF         [  0]    ***   
       DERIV_LEV            IDRLVL         SECOND      [  2]    ***   
       DEVMEM_SIZE          IDVMEM          50000000           MByte  
       DIAG_MRCC            IEOMST          10D-  0             ***   
       DIFF_TYPE            IDIFTY         RELAXED     [  0]    ***   
       DIRECT               IDIRCT         OFF         [  0]    ***   
       DROPMO               IDRPMO      NONE         
       ECP                  IECP           OFF         [  0]    ***   
       EIGENVECTOR          IVEC                1               ***   
       EL_ANHARM            IELANH         OFF         [  0]    ***   
       EOMFOLLOW            IEOMSR         ENERGY      [  0]    ***   
       EOMIP                IEOMIP         OFF         [  0]    ***   
       EOMLEVEL             HBARFM         SAME        [  0]    ***   
       EOM_MRCC             IMRCCE         NEW         [  1]    ***   
       EOM_NONIT            EOMNON         OFF         [  0]    ***   
       EOM_NSING            IEOMSI          10D-  0             ***   
       EOM_NSTATES          IMRCCD         DAVIDSON    [  0]    ***   
       EOM_NTRIP            IEOMTR          10D-  0             ***   
       EOM_ORDER            IEXORD         ENERGY      [  0]    ***   
       EOM_PROPSTA          IEOMST              0               ***   
       ESTATE_CONV          IEXTOL          10D-  5             ***   
       ESTATE_DIAG          IEXDIG         ITERATIVE   [  0]    ***   
       ESTATE_LOCK          IESLOC         ON          [  1]    ***   
       ESTATE_MAXC          IEXMXC             40               ***   
       ESTATE_PROP          IEXPRP         OFF         [  0]    ***   
       EVAL_HESS            IRECAL              0            # of cyc.
       EXCITATION           IEXCIT              0               ***   
       EXCITE               IEXCIT         NONE        [  0]    ***   
       EXTERN_POT           IEXPOT         OFF         [  0]    ***   
       FCGRADNEW            IFCGNW         OFF         [  0]    ***   
       FC_FIELD             IFINFC              0             x 10-6  
       FD_CALTYPE           IFDCAL         GRADONLY    [  0]    ***   
       FD_PROJECT           IFDPRJ         OFF         [  1]    ***   
       FD_STEPSIZE          IDISFD              0            10-4 bohr
       FD_USEGROUP          IFDGRP         FULL        [  0]    ***   
       FILE_RECSIZ          IFLREC              4096           words  
       FINITE_PERT          IFIPER              0             x 10-6  
       FIXGEOM              IFIXGM         OFF         [  0]    ***   
       FOCK                 IFOCK          AO          [  1]    ***   
       FREQ_ALGORI          IVIALG         STANDARD    [  0]    ***   
       FROZEN_CORE          IFROCO         OFF         [  0]    ***   
       GAMMA_ABCD           IGABCD         STORE       [  0]    ***   
       GAMMA_ABCI           IGABCI         STORE       [  0]    ***   
       GENBAS_1             IGNBS1              0               ***   
       GENBAS_2             IGNBS2              0               ***   
       GENBAS_3             IGNBS3              0               ***   
       GENBAS_4             IGNBS4              0               ***   
       GEO_CONV             ICONTL              5              H/bohr 
       GEO_MAXCYC           IOPTCY             50               ***   
       GEO_MAXSTEP          IMXSTP            300            millibohr
       GEO_METHOD           INR            SINGLE_POINT[  5]    ***   
       GIAO                 IGIAO          OFF         [  1]    ***   
       GIMIC                IGIMIC         OFF         [  0]    ***   
       GRID                 IGRID          OFF         [  0]    ***   
       GRID_ALGO            IGALGO         SERIAL      [  0]    ***   
       GUESS                IGUESS         MOREAD      [  0]    ***   
       HBAR                 IHBAR          OFF         [  0]    ***   
       HESS_TYPE            IHESTP         SCF         [  0]    ***   
       HF2_FILE             IHF2Fl         USE         [  1]    ***   
       HFSTABILITY          ISTABL         OFF         [  0]    ***   
       INCORE               INCORE         OFF         [  0]    ***   
       INPUT_MRCC           IMRCC          ON          [  1]    ***   
       INTEGRALS            INTTYP         VMOL        [  1]    ***   
       JODA_PRINT           IJPRNT              0               ***   
       KEYWORD_OUT          IDMPKW         NO          [  0]    ***   
       LINDEP_TOL           ILINDP              8               ***   
       LINEQ_CONV           IZTACN          10D-  7           cycles  
       LINEQ_EXPOR          ILMAXD              5               ***   
       LINEQ_MAXCY          ILMAXC            100               ***   
       LINEQ_TYPE           ILTYPE         DIIS        [  1]    ***   
       LOCK_ORBOCC          ILOCOC         OFF         [  0]    ***   
       MEMORY_SIZE          IMEMSZ         500000000           words  
       MEM_UNIT             IMEMU          INTEGERWORDS[  0]    ***   
       MRCC                 IMRCCC         OFF         [  0]    ***   
       MULTIPLICTY          IMULTP              1               ***   
       NACOUPLING           IVCOUP         OFF         [  0]    ***   
       NEGEVAL              IDIE           ABORT       [  0]    ***   
       NEWNORM              INEWNO         OFF         [  0]    ***   
       NON-HF               INONHF         OFF         [  0]    ***   
       NTOP_TAMP            ITOPT2             15               ***   
       NUC_MODEL            INUCMO         POINT       [  0]    ***   
       OCCUPATION           IOCCU   ESTIMATED BY SCF 
       OPEN-SHELL           IOPEN          SPIN-ORBITAL[  0]    ***   
       OPTVIB               IOPTVB         OFF         [  0]    ***   
       ORBITALS             IORBTP         STANDARD    [  0]    ***   
       PARALLEL             IPARAL         ON          [  1]    ***   
       PARA_INT             IPINTS         ON          [  1]    ***   
       PARA_PRINT           IPPRIN              0               ***   
       PERT_ORB             IPTORB         STANDARD    [  0]    ***   
       POINTS               IGRDFD              0               ***   
       PRINT                IPRNT               0               ***   
       PROPS                IPROPS         OFF         [  0]    ***   
       PROP_INTEGR          IINTYP         INTERNAL    [  0]    ***   
       PSI                  IPSI           OFF         [  0]    ***   
       QC_ALG               IQCALG         FLM         [  0]    ***   
       QC_LINALG            IQCLIN         TRIDIAG     [  2]    ***   
       QC_MAXCYC            IQCMAX          10D-100           cycles  
       QC_MAXSCFCY          IQCMSC          10D- 15           cycles  
       QC_RTRUST            IQCRTR          10D-  0           x 10-3  
       QC_SKIPSCF           IQCSKI         OFF         [  0]    ***   
       QC_START             IQCSTA          10D-  1             ***   
       QRHFGUESS            IQGUES         OFF         [  0]    ***   
       QUARTIC              IQUART         OFF         [  0]    ***   
       RAMAN_INT            IRAMIN         OFF         [  0]    ***   
       RAMAN_ORB            IRAMRE         UNRELAXED   [  0]    ***   
       RDO                  IRDOFM         ON          [  1]    ***   
       REDUCE_REPR          REDREP         Ir          [  0]    ***   
       REFERENCE            IREFNC         RHF         [  0]    ***   
       RELATIVIST           IRELAT         OFF         [  0]    ***   
       RELAX_DENS           IRDENS         ON          [  1]    ***   
       RESET_FLAGS          IRESET         OFF         [  0]    ***   
       RESTART_CC           ICCRES         OFF         [  0]    ***   
       ROT_EVEC             ROTVEC              0               ***   
       SAVE_INTS            ISVINT         OFF         [  0]    ***   
       SCALE_ON             ISTCRT              0               ***   
       SCF_CONV             ISCFCV          10D- 10             ***   
       SCF_DAMPING          IDAMP               0             x 10-3  
       SCF_EXPORDE          IRPPOR              6               ***   
       SCF_EXPSTAR          IRPPLS              8               ***   
       SCF_EXTRAPO          IRPP           ON          [  1]    ***   
       SCF_MAXCYC           ISCFCY            150              cycles 
       SCF_NOSTOP           ISCFST         OFF         [  0]    ***   
       SCF_PRINT            ISCFPR              0               ***   
       SCF_PROG             ISCFPR         SCF         [  0]    ***   
       SD_FIELD             IFINSD              0             x 10-6  
       SOPERT               IPERSO         OFF         [  0]    ***   
       SPHERICAL            IDFGHI         ON          [  1]    ***   
       SPINORBIT            ISOCAL         OFF         [  0]    ***   
       SPINROTATIO          ISRCON         OFF         [  0]    ***   
       SPIN_FLIP            ISPFLP         OFF         [  0]    ***   
       SPIN_ORBIT           ISPORB         OFF         [  0]    ***   
       SPIN_SCAL            ISCSMP         OFF         [  0]    ***   
       STEEPSCALE           ISTPSC              1000          x 10-3  
       SUBGROUP             ISUBGP         DEFAULT     [  0]    ***   
       SUBGRPAXIS           ISBXYZ         X           [  0]    ***   
       SYMMETRY             ISYM           ON          [  0]    ***   
       SYM_CHECK            ISYMCK         OVERRIDE    [  1]    ***   
       T3_EXTRAPOL          IT3EXT         OFF         [  0]    ***   
       T4_EXTRAPOL          IT4EXP         OFF         [  0]    ***   
       TAMP_SUM             IEVERY              5               ***   
       TESTSUITE            ITESTS         OFF         [  0]    ***   
       THERMOCH             ITHERM         OFF         [  0]    ***   
       TOL_CHOLESK          ITOLCH          10D-  4             ***   
       TRANGRAD             IRESRM         OFF         [  0]    ***   
       TRANS_INV            ITRAIN         IGNORE      [  1]    ***   
       TREAT_PERT           ITREAT         SIMULTANEOUS[  0]    ***   
       TRIP_ALGORI          ITRALG         NORMAL      [  0]    ***   
       UIJ_THRESHO          IUIJTH              1               ***   
       UNITS                IUNITS         ANGSTROM    [  0]    ***   
       UNOS                 IUNOS          OFF         [  0]    ***   
       UPDATE_HESS          IHUPDT         ON          [  1]    ***   
       VIBPHASE             ISETPH         STANDARD    [  0]    ***   
       VIBRATION            IVIB           ANALYTIC    [  1]    ***   
       VIB_ALGORIT          IGEALG         STANDARD    [  0]    ***   
       VNATORB              IVNORB         OFF         [  0]    ***   
       VTRAN                IVTRAN         FULL/PARTIAL[  0]    ***   
       XFIELD               IXEFLD              0             x 10-6  
       XFORM_TOL            IXFTOL          10D- 11             ***   
       YFIELD               IYEFLD              0             x 10-6  
       ZFIELD               IZEFLD            ***             x 10-6  
       ZSCALE_EXP           IZEXPS         OFF         [  0]    ***   
    -------------------------------------------------------------------
   2 entries found in Z-matrix 
   Job Title : Carbon Monoxide DBOC calculation                                                
   There are  1 unique internal coordinates.
   Of these,  0 will be optimized.
   User supplied Z-matrix: 
--------------------------------------------------------------------------------
       SYMBOL    BOND      LENGTH    ANGLE     ANGLE     DIHED     ANGLE
                  TO      (ANGST)    WRT      (DEG)      WRT      (DEG)
--------------------------------------------------------------------------------
        C    
        O          1         r    
                  *Initial values for internal coordinates* 
                      Name             Value
                        r               1.3034482759
--------------------------------------------------------------------------------
  read isotopes from ZMAT file 
   Rotational constants (in cm-1): 
          1.3833870073             1.3833870073
   Rotational constants (in MHz): 
      41472.9049374359         41472.9049374359
********************************************************************************
   The full molecular point group is CXv .
   The largest Abelian subgroup of the full molecular point group is C2v .
   The computational point group is C2v .
********************************************************************************
--------------------------------------------------------------------------------
   Analysis of internal coordinates specified by Z-matrix 
--------------------------------------------------------------------------------
   *The nuclear repulsion energy is   19.487156698412697 a.u.
   *There is   1 degree of freedom within the tot. symm. molecular subspace.
   *Z-matrix requests optimization of   0 coordinates.
   *The optimization is constrained.
   *The following   1 parameters can have non-zero 
    derivatives within the totally symmetric subspace:
             r    [ 1]
   *The following   0 parameters are to be optimized:

   *The following coordinates must be varied in an  unconstrained optimization.
             r    [ 1]
--------------------------------------------------------------------------------


 ----------------------------------------------------------------
         Coordinates used in calculation (QCOMP) 
 ----------------------------------------------------------------
 Z-matrix   Atomic            Coordinates (in bohr)
  Symbol    Number           X              Y              Z
 ----------------------------------------------------------------
     C         6        -0.00000000     0.00000000     1.35863440
     O         8         0.00000000     0.00000000    -1.10452638
 ----------------------------------------------------------------
 
   Interatomic distance matrix (Angstroms) 
 
                 C             O    
                [ 1]        [ 2]
  C    [ 1]     0.00000
  O    [ 2]     1.30345     0.00000
 rotcon2
   Rotational constants (in cm-1): 
          1.3833870073             0.0000000000
   Rotational constants (in MHz): 
      41472.9049374359             0.0000000000
  ECPDATA file not present.   Using default ECPDATA. 
  @GTFLGS-I, Hessian will be transformed to curvilinear coordinates.
  There are  218 basis functions.
 @CHECKOUT-I, Total execution time (CPU/WALL):        0.14/       0.26 seconds.
--executable xjoda finished with status     0 in        0.29 seconds (walltime).
 --invoking executable--
/nfs/workspaces/public/cfour_mpi/bin/xvmol
 SERIAL VERSION OF MOLECULE STARTED
********************************************************************************
                    INPUT FROM MOL FILE
********************************************************************************
INTGRL        1    0    1    0    0    0    0    0    0                         
         *** CFOUR Program System (Release V0.1) ***                            
Carbon Monoxide DBOC calculation                                                
    2    2 X  Y       0.10E-08              0    0                              
   9999.00      3.00                                                            
          6.00000000    1    5    1    1    1    1    1                         
C #1  -0.000000000000000   0.000000000000000   1.358634396418372                
   16    9                                                                      
   33980.0000000000       9.100000000000000E-005 -1.900000000000000E-005        
  0.000000000000000E+000  0.000000000000000E+000  0.000000000000000E+000        
  0.000000000000000E+000  0.000000000000000E+000  0.000000000000000E+000        
  0.000000000000000E+000                                                        
   5089.00000000000       7.040000000000000E-004 -1.510000000000000E-004        
  0.000000000000000E+000  0.000000000000000E+000  0.000000000000000E+000        
  0.000000000000000E+000  0.000000000000000E+000  0.000000000000000E+000        
  0.000000000000000E+000                                                        
   1157.00000000000       3.693000000000000E-003 -7.850000000000000E-004        
  0.000000000000000E+000  0.000000000000000E+000  0.000000000000000E+000        
  0.000000000000000E+000  0.000000000000000E+000  0.000000000000000E+000        
  0.000000000000000E+000                                                        
   326.600000000000       1.536000000000000E-002 -3.324000000000000E-003        
  0.000000000000000E+000  0.000000000000000E+000  0.000000000000000E+000        
  0.000000000000000E+000  0.000000000000000E+000  0.000000000000000E+000        
  0.000000000000000E+000                                                        
   106.100000000000       5.292900000000000E-002 -1.151200000000000E-002        
  0.000000000000000E+000  0.000000000000000E+000  0.000000000000000E+000        
  0.000000000000000E+000  0.000000000000000E+000  0.000000000000000E+000        
  0.000000000000000E+000                                                        
   38.1100000000000       0.147043000000000      -3.416000000000000E-002        
  0.000000000000000E+000  0.000000000000000E+000  0.000000000000000E+000        
  0.000000000000000E+000  0.000000000000000E+000  0.000000000000000E+000        
  0.000000000000000E+000                                                        
   14.7500000000000       0.305631000000000      -7.717300000000001E-002        
  0.000000000000000E+000  0.000000000000000E+000  0.000000000000000E+000        
  0.000000000000000E+000  0.000000000000000E+000  0.000000000000000E+000        
  0.000000000000000E+000                                                        
   6.03500000000000       0.399345000000000      -0.141493000000000             
  0.000000000000000E+000  0.000000000000000E+000  0.000000000000000E+000        
  0.000000000000000E+000  0.000000000000000E+000  0.000000000000000E+000        
  0.000000000000000E+000                                                        
   2.53000000000000       0.217051000000000      -0.118019000000000             
  0.000000000000000E+000  0.000000000000000E+000  0.000000000000000E+000        
  0.000000000000000E+000  0.000000000000000E+000  0.000000000000000E+000        
  0.000000000000000E+000                                                        
  0.735500000000000       1.589400000000000E-002  0.273806000000000             
   1.00000000000000       0.000000000000000E+000  0.000000000000000E+000        
  0.000000000000000E+000  0.000000000000000E+000  0.000000000000000E+000        
  0.000000000000000E+000                                                        
  0.290500000000000      -3.084000000000000E-003  0.586510000000000             
  0.000000000000000E+000   1.00000000000000       0.000000000000000E+000        
  0.000000000000000E+000  0.000000000000000E+000  0.000000000000000E+000        
  0.000000000000000E+000                                                        
  0.111100000000000       9.779999999999999E-004  0.285430000000000             
  0.000000000000000E+000  0.000000000000000E+000   1.00000000000000             
  0.000000000000000E+000  0.000000000000000E+000  0.000000000000000E+000        
  0.000000000000000E+000                                                        
   7.21600000000000       0.000000000000000E+000  0.000000000000000E+000        
  0.000000000000000E+000  0.000000000000000E+000  0.000000000000000E+000        
   1.00000000000000       0.000000000000000E+000  0.000000000000000E+000        
  0.000000000000000E+000                                                        
   19.5700000000000       0.000000000000000E+000  0.000000000000000E+000        
  0.000000000000000E+000  0.000000000000000E+000  0.000000000000000E+000        
  0.000000000000000E+000   1.00000000000000       0.000000000000000E+000        
  0.000000000000000E+000                                                        
   53.0730000000000       0.000000000000000E+000  0.000000000000000E+000        
  0.000000000000000E+000  0.000000000000000E+000  0.000000000000000E+000        
  0.000000000000000E+000  0.000000000000000E+000   1.00000000000000             
  0.000000000000000E+000                                                        
  4.145000000000000E-002  0.000000000000000E+000  0.000000000000000E+000        
  0.000000000000000E+000  0.000000000000000E+000  0.000000000000000E+000        
  0.000000000000000E+000  0.000000000000000E+000  0.000000000000000E+000        
   1.00000000000000                                                             
   10    8                                                                      
   34.5100000000000       5.378000000000000E-003  0.000000000000000E+000        
  0.000000000000000E+000  0.000000000000000E+000  0.000000000000000E+000        
  0.000000000000000E+000  0.000000000000000E+000  0.000000000000000E+000        
   7.91500000000000       3.613200000000000E-002  0.000000000000000E+000        
  0.000000000000000E+000  0.000000000000000E+000  0.000000000000000E+000        
  0.000000000000000E+000  0.000000000000000E+000  0.000000000000000E+000        
   2.36800000000000       0.142493000000000       0.000000000000000E+000        
  0.000000000000000E+000  0.000000000000000E+000  0.000000000000000E+000        
  0.000000000000000E+000  0.000000000000000E+000  0.000000000000000E+000        
  0.813200000000000       0.342150000000000        1.00000000000000             
  0.000000000000000E+000  0.000000000000000E+000  0.000000000000000E+000        
  0.000000000000000E+000  0.000000000000000E+000  0.000000000000000E+000        
  0.289000000000000       0.463864000000000       0.000000000000000E+000        
   1.00000000000000       0.000000000000000E+000  0.000000000000000E+000        
  0.000000000000000E+000  0.000000000000000E+000  0.000000000000000E+000        
  0.100700000000000       0.250028000000000       0.000000000000000E+000        
  0.000000000000000E+000   1.00000000000000       0.000000000000000E+000        
  0.000000000000000E+000  0.000000000000000E+000  0.000000000000000E+000        
   8.18200000000000       0.000000000000000E+000  0.000000000000000E+000        
  0.000000000000000E+000  0.000000000000000E+000   1.00000000000000             
  0.000000000000000E+000  0.000000000000000E+000  0.000000000000000E+000        
   24.1860000000000       0.000000000000000E+000  0.000000000000000E+000        
  0.000000000000000E+000  0.000000000000000E+000  0.000000000000000E+000        
   1.00000000000000       0.000000000000000E+000  0.000000000000000E+000        
   71.4940000000000       0.000000000000000E+000  0.000000000000000E+000        
  0.000000000000000E+000  0.000000000000000E+000  0.000000000000000E+000        
  0.000000000000000E+000   1.00000000000000       0.000000000000000E+000        
  3.218000000000000E-002  0.000000000000000E+000  0.000000000000000E+000        
  0.000000000000000E+000  0.000000000000000E+000  0.000000000000000E+000        
  0.000000000000000E+000  0.000000000000000E+000   1.00000000000000             
    6    6                                                                      
   1.84800000000000        1.00000000000000       0.000000000000000E+000        
  0.000000000000000E+000  0.000000000000000E+000  0.000000000000000E+000        
  0.000000000000000E+000                                                        
  0.649000000000000       0.000000000000000E+000   1.00000000000000             
  0.000000000000000E+000  0.000000000000000E+000  0.000000000000000E+000        
  0.000000000000000E+000                                                        
  0.228000000000000       0.000000000000000E+000  0.000000000000000E+000        
   1.00000000000000       0.000000000000000E+000  0.000000000000000E+000        
  0.000000000000000E+000                                                        
   8.65600000000000       0.000000000000000E+000  0.000000000000000E+000        
  0.000000000000000E+000   1.00000000000000       0.000000000000000E+000        
  0.000000000000000E+000                                                        
   33.2130000000000       0.000000000000000E+000  0.000000000000000E+000        
  0.000000000000000E+000  0.000000000000000E+000   1.00000000000000             
  0.000000000000000E+000                                                        
  7.660000000000000E-002  0.000000000000000E+000  0.000000000000000E+000        
  0.000000000000000E+000  0.000000000000000E+000  0.000000000000000E+000        
   1.00000000000000                                                             
    4    4                                                                      
   1.41900000000000        1.00000000000000       0.000000000000000E+000        
  0.000000000000000E+000  0.000000000000000E+000                                
  0.485000000000000       0.000000000000000E+000   1.00000000000000             
  0.000000000000000E+000  0.000000000000000E+000                                
   24.6940000000000       0.000000000000000E+000  0.000000000000000E+000        
   1.00000000000000       0.000000000000000E+000                                
  0.187000000000000       0.000000000000000E+000  0.000000000000000E+000        
  0.000000000000000E+000   1.00000000000000                                     
    2    2                                                                      
   1.01100000000000        1.00000000000000       0.000000000000000E+000        
  0.424000000000000       0.000000000000000E+000   1.00000000000000             
          8.00000000    1    5    1    1    1    1    1                         
O #2   0.000000000000000   0.000000000000000  -1.104526378796711                
   16    9                                                                      
   61420.0000000000       9.000000000000001E-005 -2.000000000000000E-005        
  0.000000000000000E+000  0.000000000000000E+000  0.000000000000000E+000        
  0.000000000000000E+000  0.000000000000000E+000  0.000000000000000E+000        
  0.000000000000000E+000                                                        
   9199.00000000000       6.980000000000001E-004 -1.590000000000000E-004        
  0.000000000000000E+000  0.000000000000000E+000  0.000000000000000E+000        
  0.000000000000000E+000  0.000000000000000E+000  0.000000000000000E+000        
  0.000000000000000E+000                                                        
   2091.00000000000       3.664000000000000E-003 -8.290000000000000E-004        
  0.000000000000000E+000  0.000000000000000E+000  0.000000000000000E+000        
  0.000000000000000E+000  0.000000000000000E+000  0.000000000000000E+000        
  0.000000000000000E+000                                                        
   590.900000000000       1.521800000000000E-002 -3.508000000000000E-003        
  0.000000000000000E+000  0.000000000000000E+000  0.000000000000000E+000        
  0.000000000000000E+000  0.000000000000000E+000  0.000000000000000E+000        
  0.000000000000000E+000                                                        
   192.300000000000       5.242300000000000E-002 -1.215600000000000E-002        
  0.000000000000000E+000  0.000000000000000E+000  0.000000000000000E+000        
  0.000000000000000E+000  0.000000000000000E+000  0.000000000000000E+000        
  0.000000000000000E+000                                                        
   69.3200000000000       0.145921000000000      -3.626100000000000E-002        
  0.000000000000000E+000  0.000000000000000E+000  0.000000000000000E+000        
  0.000000000000000E+000  0.000000000000000E+000  0.000000000000000E+000        
  0.000000000000000E+000                                                        
   26.9700000000000       0.305258000000000      -8.299200000000000E-002        
  0.000000000000000E+000  0.000000000000000E+000  0.000000000000000E+000        
  0.000000000000000E+000  0.000000000000000E+000  0.000000000000000E+000        
  0.000000000000000E+000                                                        
   11.1000000000000       0.398508000000000      -0.152090000000000             
  0.000000000000000E+000  0.000000000000000E+000  0.000000000000000E+000        
  0.000000000000000E+000  0.000000000000000E+000  0.000000000000000E+000        
  0.000000000000000E+000                                                        
   4.68200000000000       0.216980000000000      -0.115331000000000             
  0.000000000000000E+000  0.000000000000000E+000  0.000000000000000E+000        
  0.000000000000000E+000  0.000000000000000E+000  0.000000000000000E+000        
  0.000000000000000E+000                                                        
   1.42800000000000       1.759400000000000E-002  0.288979000000000             
   1.00000000000000       0.000000000000000E+000  0.000000000000000E+000        
  0.000000000000000E+000  0.000000000000000E+000  0.000000000000000E+000        
  0.000000000000000E+000                                                        
  0.554700000000000      -2.502000000000000E-003  0.586128000000000             
  0.000000000000000E+000   1.00000000000000       0.000000000000000E+000        
  0.000000000000000E+000  0.000000000000000E+000  0.000000000000000E+000        
  0.000000000000000E+000                                                        
  0.206700000000000       9.540000000000000E-004  0.277624000000000             
  0.000000000000000E+000  0.000000000000000E+000   1.00000000000000             
  0.000000000000000E+000  0.000000000000000E+000  0.000000000000000E+000        
  0.000000000000000E+000                                                        
   12.9740000000000       0.000000000000000E+000  0.000000000000000E+000        
  0.000000000000000E+000  0.000000000000000E+000  0.000000000000000E+000        
   1.00000000000000       0.000000000000000E+000  0.000000000000000E+000        
  0.000000000000000E+000                                                        
   34.9000000000000       0.000000000000000E+000  0.000000000000000E+000        
  0.000000000000000E+000  0.000000000000000E+000  0.000000000000000E+000        
  0.000000000000000E+000   1.00000000000000       0.000000000000000E+000        
  0.000000000000000E+000                                                        
   93.8810000000000       0.000000000000000E+000  0.000000000000000E+000        
  0.000000000000000E+000  0.000000000000000E+000  0.000000000000000E+000        
  0.000000000000000E+000  0.000000000000000E+000   1.00000000000000             
  0.000000000000000E+000                                                        
  6.959000000000000E-002  0.000000000000000E+000  0.000000000000000E+000        
  0.000000000000000E+000  0.000000000000000E+000  0.000000000000000E+000        
  0.000000000000000E+000  0.000000000000000E+000  0.000000000000000E+000        
   1.00000000000000                                                             
   10    8                                                                      
   63.4200000000000       6.044000000000000E-003  0.000000000000000E+000        
  0.000000000000000E+000  0.000000000000000E+000  0.000000000000000E+000        
  0.000000000000000E+000  0.000000000000000E+000  0.000000000000000E+000        
   14.6600000000000       4.179900000000000E-002  0.000000000000000E+000        
  0.000000000000000E+000  0.000000000000000E+000  0.000000000000000E+000        
  0.000000000000000E+000  0.000000000000000E+000  0.000000000000000E+000        
   4.45900000000000       0.161143000000000       0.000000000000000E+000        
  0.000000000000000E+000  0.000000000000000E+000  0.000000000000000E+000        
  0.000000000000000E+000  0.000000000000000E+000  0.000000000000000E+000        
   1.53100000000000       0.356731000000000        1.00000000000000             
  0.000000000000000E+000  0.000000000000000E+000  0.000000000000000E+000        
  0.000000000000000E+000  0.000000000000000E+000  0.000000000000000E+000        
  0.530200000000000       0.448309000000000       0.000000000000000E+000        
   1.00000000000000       0.000000000000000E+000  0.000000000000000E+000        
  0.000000000000000E+000  0.000000000000000E+000  0.000000000000000E+000        
  0.175000000000000       0.244940000000000       0.000000000000000E+000        
  0.000000000000000E+000   1.00000000000000       0.000000000000000E+000        
  0.000000000000000E+000  0.000000000000000E+000  0.000000000000000E+000        
   14.4750000000000       0.000000000000000E+000  0.000000000000000E+000        
  0.000000000000000E+000  0.000000000000000E+000   1.00000000000000             
  0.000000000000000E+000  0.000000000000000E+000  0.000000000000000E+000        
   42.7300000000000       0.000000000000000E+000  0.000000000000000E+000        
  0.000000000000000E+000  0.000000000000000E+000  0.000000000000000E+000        
   1.00000000000000       0.000000000000000E+000  0.000000000000000E+000        
   126.140000000000       0.000000000000000E+000  0.000000000000000E+000        
  0.000000000000000E+000  0.000000000000000E+000  0.000000000000000E+000        
  0.000000000000000E+000   1.00000000000000       0.000000000000000E+000        
  5.348000000000000E-002  0.000000000000000E+000  0.000000000000000E+000        
  0.000000000000000E+000  0.000000000000000E+000  0.000000000000000E+000        
  0.000000000000000E+000  0.000000000000000E+000   1.00000000000000             
    6    6                                                                      
   3.77500000000000        1.00000000000000       0.000000000000000E+000        
  0.000000000000000E+000  0.000000000000000E+000  0.000000000000000E+000        
  0.000000000000000E+000                                                        
   1.30000000000000       0.000000000000000E+000   1.00000000000000             
  0.000000000000000E+000  0.000000000000000E+000  0.000000000000000E+000        
  0.000000000000000E+000                                                        
  0.444000000000000       0.000000000000000E+000  0.000000000000000E+000        
   1.00000000000000       0.000000000000000E+000  0.000000000000000E+000        
  0.000000000000000E+000                                                        
   14.9270000000000       0.000000000000000E+000  0.000000000000000E+000        
  0.000000000000000E+000   1.00000000000000       0.000000000000000E+000        
  0.000000000000000E+000                                                        
   57.5440000000000       0.000000000000000E+000  0.000000000000000E+000        
  0.000000000000000E+000  0.000000000000000E+000   1.00000000000000             
  0.000000000000000E+000                                                        
  0.154000000000000       0.000000000000000E+000  0.000000000000000E+000        
  0.000000000000000E+000  0.000000000000000E+000  0.000000000000000E+000        
   1.00000000000000                                                             
    4    4                                                                      
   2.66600000000000        1.00000000000000       0.000000000000000E+000        
  0.000000000000000E+000  0.000000000000000E+000                                
  0.859000000000000       0.000000000000000E+000   1.00000000000000             
  0.000000000000000E+000  0.000000000000000E+000                                
   26.4830000000000       0.000000000000000E+000  0.000000000000000E+000        
   1.00000000000000       0.000000000000000E+000                                
  0.324000000000000       0.000000000000000E+000  0.000000000000000E+000        
  0.000000000000000E+000   1.00000000000000                                     
    2    2                                                                      
   1.84600000000000        1.00000000000000       0.000000000000000E+000        
  0.714000000000000       0.000000000000000E+000   1.00000000000000             
FINISH                                                                          
 
********************************************************************************
 ONE- AND TWO-ELECTRON INTEGRALS OVER SYMMETRY-ADAPTED AOS ARE CALCULATED.

  SPHERICAL HARMONICS ARE USED.
  
  INTEGRALS LESS THAN  0.10E-13 ARE NEGLECTED.

  NUCLEAR REPULSION ENERGY :   19.4871566984 A.U.
  @MOLECU-I, ONE ELECTRON INTEGRALS (CPU/WALL):        0.09/       0.17 SECONDS.
  @TWOEL-I,    4525926 INTEGRALS OF SYMMETRY TYPE  I I I I
  @TWOEL-I,   19472644 INTEGRALS OF SYMMETRY TYPE  I J I J
  @TWOEL-I,   10258575 INTEGRALS OF SYMMETRY TYPE  I I J J
  @TWOEL-I,   14415430 INTEGRALS OF SYMMETRY TYPE  I J K L
  @TWOEL-I, TOTAL NUMBER OF 2-E INTEGRALS   48672575.
  @MOLECU-I, TWO ELECTRON INTEGRALS (CPU/WALL):      200.77/      39.81 SECONDS.
 @CHECKOUT-I, Total execution time (CPU/WALL):      200.87/      39.99 seconds.

Running with 14 threads/proc

--executable xvmol finished with status     0 in       40.06 seconds (walltime).
 --invoking executable--
/nfs/workspaces/public/cfour_mpi/bin/xvmol2ja
 @GETMEM-I,  Allocated    3814 MB of main memory.
 @CHECKOUT-I, Total execution time (CPU/WALL):        0.09/       0.03 seconds.
--executable xvmol2ja finished with status     0 in        0.10 seconds (walltime).
 --invoking executable--
/nfs/workspaces/public/cfour_mpi/bin/xvprop
 @GETMEM-I,  Allocated    3814 MB of main memory.
   Property integrals will be calculated.
    --------------------------------------------------------------
                                   Property evaluated at 
    Property type                X             Y             Z
    --------------------------------------------------------------
    Dipole moment               ----          ----          ----  
    Quadrupole moment           ----          ----          ----  
    Octopole moment             ----          ----          ----  
    Relativisitic corr.         ----          ----          ----  
    Second moment            0.0000000     0.0000000     0.0000000
    Electron density         0.0000000     0.0000000     1.3586344
    Electron density         0.0000000     0.0000000    -1.1045264
    Field gradient           0.0000000     0.0000000     1.3586344
    Field gradient           0.0000000     0.0000000    -1.1045264
    Potential                0.0000000     0.0000000     1.3586344
    Potential                0.0000000     0.0000000    -1.1045264
    --------------------------------------------------------------
 @CHECKOUT-I, Total execution time (CPU/WALL):        1.63/       1.85 seconds.
--executable xvprop finished with status     0 in        1.95 seconds (walltime).
 --invoking executable--
/nfs/workspaces/public/cfour_mpi/bin/xvscf
  There are  218 functions in the AO basis.

  There are 4 irreducible representations.

       Irrep        # of functions
         1                 86
         2                 52
         3                 52
         4                 28


  Parameters for SCF calculation: 
        SCF reference function:  RHF  
  Maximum number of iterations:  150
     Full symmetry point group: CXv 
     Computational point group: C2v 
        Initial density matrix: MOREAD                 
     SCF convergence tolerance: 10**(-10)
  DIIS convergence acceleration:  ON
          Latest start for DIIS:   8
                     DIIS order:   6

  Memory information:    2523578 words required.
  Fock matrices are constructed from AO integral file.
 @GETMEM-I,  Allocated      19 MB of main memory.
  Initialization and symmetry analysis required      0.001 seconds.

  Adding electric field perturbation to one-electron Hamiltonian.
  Field direction     : Z
  Field strength      : -0.0002000 a.u.

  @INITGES-I, Occupancies from core Hamiltonian:

          Alpha population by irrep:   5    1    1    0
           Beta population by irrep:   5    1    1    0


 total no. of electrons in initial guess :  0.000000000000000E+000
  --------------------------------------------------------------------
  Iteration         Total Energy            Largest Density Difference
  --------------------------------------------------------------------
       0            19.487019817482661              0.0000000000D+00
   current occupation vector 
     5  1  1  0
     5  1  1  0
       1           -92.817527369722427              0.1790289302D+02
   current occupation vector 
     5  1  1  0
     5  1  1  0
       2           -98.300939045086267              0.1789914517D+02
   current occupation vector 
     5  1  1  0
     5  1  1  0
       3          -103.502179241222834              0.7382332285D+01
   current occupation vector 
     5  1  1  0
     5  1  1  0
       4           -99.342845651529473              0.7058432184D+01
   current occupation vector 
     5  1  1  0
     5  1  1  0
       5          -101.888355225052109              0.6103265627D+01
   current occupation vector 
     5  1  1  0
     5  1  1  0
       6           -98.153265108629839              0.6077321100D+01
   current occupation vector 
     5  1  1  0
     5  1  1  0
       7          -101.899293468503785              0.6260580395D+01
   current occupation vector 
     5  1  1  0
     5  1  1  0
       8           -98.058462423654973              0.6259045815D+01
   current occupation vector 
     5  1  1  0
     5  1  1  0
       9          -109.092223521428394              0.4694240749D+01
   current occupation vector 
     5  1  1  0
     5  1  1  0
      10          -111.168472602943467              0.1133054770D+01
   current occupation vector 
     5  1  1  0
     5  1  1  0
      11          -112.588010503250416              0.9073539495D+00
   current occupation vector 
     5  1  1  0
     5  1  1  0
      12          -112.716633146386641              0.3582672352D+00
   current occupation vector 
     5  1  1  0
     5  1  1  0
      13          -112.718391748223155              0.4468037752D-01
   current occupation vector 
     5  1  1  0
     5  1  1  0
      14          -112.718612448059076              0.1541044984D-01
   current occupation vector 
     5  1  1  0
     5  1  1  0
      15          -112.718646122039871              0.9830517649D-02
   current occupation vector 
     5  1  1  0
     5  1  1  0
      16          -112.718646733415198              0.1222723542D-02
   current occupation vector 
     5  1  1  0
     5  1  1  0
      17          -112.718646780881954              0.3975660629D-03
   current occupation vector 
     5  1  1  0
     5  1  1  0
      18          -112.718646785190401              0.1338163602D-03
   current occupation vector 
     5  1  1  0
     5  1  1  0
      19          -112.718646785278111              0.2107952782D-04
   current occupation vector 
     5  1  1  0
     5  1  1  0
      20          -112.718646785281095              0.3575338382D-05
   current occupation vector 
     5  1  1  0
     5  1  1  0
      21          -112.718646785281976              0.5382636907D-06
   current occupation vector 
     5  1  1  0
     5  1  1  0
      22          -112.718646785281464              0.9957818992D-07
   current occupation vector 
     5  1  1  0
     5  1  1  0
      23          -112.718646785280583              0.2520420961D-07
   current occupation vector 
     5  1  1  0
     5  1  1  0
      24          -112.718646785280754              0.8868616952D-09
   current occupation vector 
     5  1  1  0
     5  1  1  0
      25          -112.718646785280498              0.5386460167D-09
   current occupation vector 
     5  1  1  0
     5  1  1  0

  SCF has converged.

 Density matrix saved to file den.dat
 total electron number:   14.0000000000000     
     E(SCF)=      -112.718646785280868              0.7292544346D-10

  Eigenvector printing suppressed.

 @PUTMOS-I, Writing converged MOs to NEWMOS. 
 @PUTMOS-I, Symmetry   1 Full Blocks 21 Partial Blocksize   2
 @PUTMOS-I, Symmetry   2 Full Blocks 13 Partial Blocksize   0
 @PUTMOS-I, Symmetry   3 Full Blocks 13 Partial Blocksize   0
 @PUTMOS-I, Symmetry   4 Full Blocks  7 Partial Blocksize   0
 @PUTFOCK-I, Writing converged Fock matrix to NEWFOCK. 
 @PUTFOCK-I, Symmetry   1 Full Blocks 21 Partial Blocksize   2
 @PUTFOCK-I, Symmetry   2 Full Blocks 13 Partial Blocksize   0
 @PUTFOCK-I, Symmetry   3 Full Blocks 13 Partial Blocksize   0
 @PUTFOCK-I, Symmetry   4 Full Blocks  7 Partial Blocksize   0


 
  ORBITAL EIGENVALUES (ALPHA)  (1H = 27.2113834 eV)

       MO #        E(hartree)               E(eV)           FULLSYM    COMPSYM
       ----   --------------------   --------------------   -------   ---------
    1     1         -20.6656026089        -562.3396357828     SG+        A1 (1)
    2     2         -11.4344337465        -311.1467606387     SG+        A1 (1)
    3     3          -1.4106699283         -38.3862802712     SG+        A1 (1)
    4     4          -0.7936797562         -21.5971241421     SG+        A1 (1)
    5    87          -0.5735019703         -15.6057819952      PI        B1 (2)
    6   139          -0.5735019703         -15.6057819952      PI        B2 (3)
    7     5          -0.5659553722         -15.4004286195     SG+        A1 (1)
  +++++++++++++++++++++++++++++++++++++++++++++++++++++++++++++++++++++++++++++
    8    88           0.0489648840           1.3324022313      PI        B1 (2)
    9   140           0.0489648840           1.3324022313      PI        B2 (3)
   10     6           0.0631353144           1.7179992473     SG+        A1 (1)
   11     7           0.0700879775           1.9071908288     SG+        A1 (1)
   12   141           0.1010985180           2.7510305339      PI        B2 (3)
   13    89           0.1010985180           2.7510305339      PI        B1 (2)
   14     8           0.1571358699           4.2758844019     SG+        A1 (1)
   15    90           0.1695087202           4.6125667748      PI        B1 (2)
   16   142           0.1695087202           4.6125667748      PI        B2 (3)
   17   191           0.2263799559           6.1601117747      DE        A2 (4)
   18     9           0.2263799559           6.1601117747      DE        A1 (1)
   19    10           0.2278085576           6.1989860036     SG+        A1 (1)
   20    11           0.2995364738           8.1508018297     SG+        A1 (1)
   21    91           0.3040275120           8.2730091924      PI        B1 (2)
   22   143           0.3040275120           8.2730091924      PI        B2 (3)
   23    12           0.3809205176          10.3653742497     SG+        A1 (1)
   24    92           0.3963979889          10.7865376538      PI        B1 (2)
   25   144           0.3963979889          10.7865376538      PI        B2 (3)
   26    13           0.5097556295          13.8711558751     SG+        A1 (1)
   27    14           0.5437439032          14.7960238216      DE        A1 (1)
   28   192           0.5437439032          14.7960238216      DE        A2 (4)
   29    15           0.5579886702          15.1836436382     SG+        A1 (1)
   30    93           0.6260825041          17.0365710600      PI        B1 (2)
   31   145           0.6260825041          17.0365710600      PI        B2 (3)
   32   146           0.7437039878          20.2372143476      PH        B2 (3)
   33    94           0.7437039878          20.2372143476      PH        B1 (2)
   34   193           0.7588144481          20.6483908755      DE        A2 (4)
   35    16           0.7588144481          20.6483908755      DE        A1 (1)
   36    17           0.7606257032          20.6976776330     SG+        A1 (1)
   37    95           0.8025398552          21.8382196941      PI        B1 (2)
   38   147           0.8025398552          21.8382196941      PI        B2 (3)
   39    18           0.8289010435          22.5555440949     SG+        A1 (1)
   40    19           0.8690232020          23.6473235331     SG+        A1 (1)
   41    20           0.8804457417          23.9581466412      DE        A1 (1)
   42   194           0.8804457417          23.9581466412      DE        A2 (4)
   43    96           0.8943185970          24.3356462240      PI        B1 (2)
   44   148           0.8943185970          24.3356462240      PI        B2 (3)
   45    97           1.0434589878          28.3939625796      PI        B1 (2)
   46   149           1.0434589878          28.3939625796      PI        B2 (3)
   47    21           1.1270701975          30.6691392641     SG+        A1 (1)
   48    22           1.4215647512          38.6827434715     SG+        A1 (1)
   49   150           1.4350767317          39.0504231540      PH        B2 (3)
   50    98           1.4350767317          39.0504231540      PH        B1 (2)
   51   195           1.5472487553          42.1027790946      DE        A2 (4)
   52    23           1.5472487553          42.1027790946      DE        A1 (1)
   53    99           1.5697384732          42.7147554307      PI        B1 (2)
   54   151           1.5697384732          42.7147554307      PI        B2 (3)
   55    24           1.6531021621          44.9831967332     SG+        A1 (1)
   56   100           1.6847685952          45.8448841834      PI        B1 (2)
   57   152           1.6847685952          45.8448841835      PI        B2 (3)
   58   196           1.7388259133          47.3158585934      DE        A2 (4)
   59    25           1.7388259133          47.3158585934      DE        A1 (1)
   60    26           1.8399233007          50.0668583609     SG+        A1 (1)
   61    27           2.0434295647          55.6045453365     SG+        A1 (1)
   62   101           2.0518396959          55.8333966400      PI        B1 (2)
   63   153           2.0518396959          55.8333966401      PI        B2 (3)
   64   197           2.0924118770          56.9374218146      PI        A2 (4)
   65    28           2.0924118770          56.9374218146      PI        A1 (1)
   66   198           2.1643077884          58.8938090268      DE        A2 (4)
   67    29           2.1643077884          58.8938090268      DE        A1 (1)
   68   154           2.2355257074          60.8317471234      PH        B2 (3)
   69   102           2.2355257074          60.8317471234      PH        B1 (2)
   70   103           2.2865350708          62.2197824686      PI        B1 (2)
   71   155           2.2865350708          62.2197824686      PI        B2 (3)
   72    30           2.2946109854          62.4395392780     SG+        A1 (1)
   73   156           2.3004735004          62.5990664223      PH        B2 (3)
   74   104           2.3004735004          62.5990664223      PH        B1 (2)
   75    31           2.3340072423          63.5115659290      DE        A1 (1)
   76   199           2.3340072423          63.5115659290      DE        A2 (4)
   77    32           2.4930724314          67.8399497748     SG+        A1 (1)
   78   105           2.5481614799          69.3389989957      PI        B1 (2)
   79   157           2.5481614799          69.3389989957      PI        B2 (3)
   80   106           2.7001807556          73.4756537889      PI        B1 (2)
   81   158           2.7001807556          73.4756537889      PI        B2 (3)
   82    33           2.7059934201          73.6338244317     SG+        A1 (1)
   83   200           2.8597227146          77.8170112035      DE        A2 (4)
   84    34           2.8597227146          77.8170112035      DE        A1 (1)
   85    35           3.3977670931          92.4579430754     SG+        A1 (1)
   86   107           3.6519297126          99.3740595592      PI        B1 (2)
   87   159           3.6519297126          99.3740595592      PI        B2 (3)
   88   201           3.7036329342         100.7809757448      PI        A2 (4)
   89    36           3.7036329342         100.7809757448      PI        A1 (1)
   90    37           3.8993864537         106.1076998163     SG+        A1 (1)
   91   160           4.0752990242         110.8945242167      PH        B2 (3)
   92   108           4.0752990242         110.8945242167      PH        B1 (2)
   93   161           4.1377621626         112.5942326257      PH        B2 (3)
   94   109           4.1377621626         112.5942326257      PH        B1 (2)
   95   110           4.1837896972         113.8467055152      PI        B1 (2)
   96   162           4.1837896972         113.8467055153      PI        B2 (3)
   97   202           4.2046340379         114.4139088615      DE        A2 (4)
   98    38           4.2046340379         114.4139088616      DE        A1 (1)
   99    39           4.2213825752         114.8696597307     SG+        A1 (1)
  100   203           4.3086187934         117.2434779112      DE        A2 (4)
  101    40           4.3086187934         117.2434779112      DE        A1 (1)
  102    41           4.3822282690         119.2464935739     SG+        A1 (1)
  103   111           4.8529633057         132.0558451367      PI        B1 (2)
  104   163           4.8529633057         132.0558451367      PI        B2 (3)
  105   112           4.9395404007         134.4117276640      PI        B1 (2)
  106   164           4.9395404007         134.4117276640      PI        B2 (3)
  107   204           4.9945698343         135.9091546787      DE        A2 (4)
  108    42           4.9945698343         135.9091546787      DE        A1 (1)
  109    43           5.1562018221         140.3073846700     SG+        A1 (1)
  110    44           5.3463064230         145.4803938514     SG+        A1 (1)
  111   113           5.6032821826         152.4730597681      PI        B1 (2)
  112   165           5.6032821826         152.4730597681      PI        B2 (3)
  113   205           5.8736187641         159.8292921341      PI        A2 (4)
  114    45           5.8736187641         159.8292921341      PI        A1 (1)
  115   166           6.0001567457         163.2725656687      PH        B2 (3)
  116   114           6.0001567457         163.2725656687      PH        B1 (2)
  117    46           6.2180220437         169.2009818208     SG+        A1 (1)
  118   206           6.2339090433         169.6332890589      DE        A2 (4)
  119    47           6.2339090433         169.6332890590      DE        A1 (1)
  120   115           6.2656697982         170.4975431371      PI        B1 (2)
  121   167           6.2656697982         170.4975431371      PI        B2 (3)
  122   168           6.4108751572         174.4487818324      PH        B2 (3)
  123   116           6.4108751572         174.4487818324      PH        B1 (2)
  124   207           6.5402899598         177.9703376426      DE        A2 (4)
  125    48           6.5402899598         177.9703376427      DE        A1 (1)
  126    49           6.5426913675         178.0356832697     SG+        A1 (1)
  127   208           6.7847094959         184.6213313503      DE        A2 (4)
  128    50           6.7847094959         184.6213313504      DE        A1 (1)
  129   117           7.1316684515         194.0625645143      PI        B1 (2)
  130   169           7.1316684515         194.0625645143      PI        B2 (3)
  131    51           7.4643129011         203.1142801701     SG+        A1 (1)
  132   118           7.9555235885         216.4808025136      PI        B1 (2)
  133   170           7.9555235885         216.4808025137      PI        B2 (3)
  134    52           8.2434158202         224.3147484094     SG+        A1 (1)
  135   171          10.0657839655         273.9039067080      PI        B2 (3)
  136   119          10.0657839656         273.9039067082      PI        B1 (2)
  137    53          10.0866860443         274.4726811859     SG+        A1 (1)
  138   209          10.6156286066         288.8659400475      PI        A2 (4)
  139    54          10.6156286066         288.8659400475      PI        A1 (1)
  140   120          10.7953160839         293.7554848832      PH        B1 (2)
  141   172          10.7953160839         293.7554848832      PH        B2 (3)
  142    55          10.8675263430         295.7204259297     SG+        A1 (1)
  143   210          11.0289169628         300.1120879604      DE        A2 (4)
  144    56          11.0289169628         300.1120879604      DE        A1 (1)
  145   173          11.1931668905         304.5815557182      PI        B2 (3)
  146   121          11.1931668905         304.5815557182      PI        B1 (2)
  147    57          11.5049659141         313.0660384916     SG+        A1 (1)
  148   174          11.8608941288         322.7513376062      PH        B2 (3)
  149   122          11.8608941288         322.7513376062      PH        B1 (2)
  150   211          12.1294939496         330.0603103102      DE        A2 (4)
  151    58          12.1294939496         330.0603103107      DE        A1 (1)
  152   123          12.5887496333         342.5572927984      PI        B1 (2)
  153   175          12.5887496333         342.5572927984      PI        B2 (3)
  154   212          12.7903432265         348.0429333536      DE        A2 (4)
  155    59          12.7903432265         348.0429333536      DE        A1 (1)
  156    60          12.9800252127         353.2044426049     SG+        A1 (1)
  157   124          13.3595246964         363.5311485559      PI        B1 (2)
  158   176          13.3595246964         363.5311485560      PI        B2 (3)
  159    61          14.4308510284         392.6834201210     SG+        A1 (1)
  160    62          17.7065159410         481.8187939497     SG+        A1 (1)
  161   177          19.0538229313         518.4808810181      PI        B2 (3)
  162   125          19.0538229313         518.4808810181      PI        B1 (2)
  163    63          20.4924834098         557.6288228829     SG+        A1 (1)
  164   213          26.3898340783         718.1038929672      DE        A2 (4)
  165    64          26.3898340783         718.1038929672      DE        A1 (1)
  166   126          26.8196526256         729.7998502496      PI        B1 (2)
  167   178          26.8196526256         729.7998502496      PI        B2 (3)
  168    65          27.4886989368         748.0055259356     SG+        A1 (1)
  169   179          33.7118162910         917.3451582052      PI        B2 (3)
  170   127          33.7118162911         917.3451582061      PI        B1 (2)
  171    66          34.5527237055         940.2274122640     SG+        A1 (1)
  172    67          36.2541874798         986.5265953681     SG+        A1 (1)
  173    68          47.0889640826        1281.3558555592      DE        A1 (1)
  174   214          47.0889640826        1281.3558555592      DE        A2 (4)
  175   128          47.3503443387        1288.4683739233      PI        B1 (2)
  176   180          47.3503443387        1288.4683739233      PI        B2 (3)
  177    69          48.0397159436        1307.2271289673     SG+        A1 (1)
  178    70          64.0020309910        1741.5838036735     SG+        A1 (1)
  179   181          66.5670223800        1811.3807677776      PI        B2 (3)
  180   129          66.5670223800        1811.3807677777      PI        B1 (2)
  181    71          67.6243498272        1840.1521103235     SG+        A1 (1)
  182   182          98.5981745326        2682.9927297466      PH        B2 (3)
  183   130          98.5981745326        2682.9927297466      PH        B1 (2)
  184   215          98.6128753632        2683.3927596832      DE        A2 (4)
  185    72          98.6128753632        2683.3927596832      DE        A1 (1)
  186   183          98.6457949948        2684.2885484000      PI        B2 (3)
  187   131          98.6457949948        2684.2885484000      PI        B1 (2)
  188    73          98.6679551283        2684.8915562907     SG+        A1 (1)
  189   184         103.2846987264        2810.5195363981      PH        B2 (3)
  190   132         103.2846987264        2810.5195363981      PH        B1 (2)
  191   216         103.3117170937        2811.2547435493      DE        A2 (4)
  192    74         103.3117170937        2811.2547435501      DE        A1 (1)
  193   133         103.3531717192        2812.3827812584      PI        B1 (2)
  194   185         103.3531717192        2812.3827812584      PI        B2 (3)
  195    75         103.3676957803        2812.7780010515     SG+        A1 (1)
  196   217         115.0726666005        3131.2864497252      DE        A2 (4)
  197    76         115.0726666005        3131.2864497253      DE        A1 (1)
  198   186         115.2806142737        3136.9449935904      PI        B2 (3)
  199   134         115.2806142737        3136.9449935904      PI        B1 (2)
  200    77         115.6159484097        3146.0698993307     SG+        A1 (1)
  201   187         116.9738017798        3183.0189679868      PI        B2 (3)
  202   135         116.9738017799        3183.0189679878      PI        B1 (2)
  203    78         117.6470153053        3201.3380393394     SG+        A1 (1)
  204    79         122.4527034923        3332.1074630946     SG+        A1 (1)
  205    80         198.5569422245        5403.0090816025      DE        A1 (1)
  206   218         198.5569422245        5403.0090816025      DE        A2 (4)
  207   136         198.6964230950        5406.8045490454      PI        B1 (2)
  208   188         198.6964230950        5406.8045490455      PI        B2 (3)
  209    81         199.0536262580        5416.5245412667     SG+        A1 (1)
  210    82         216.5149797984        5891.6721271367     SG+        A1 (1)
  211   189         225.0126670730        6122.9059535809      PI        B2 (3)
  212   137         225.0126670730        6122.9059535810      PI        B1 (2)
  213    83         225.8518525232        6145.7413506081     SG+        A1 (1)
  214   190         395.4370913941       10760.3903045049      PI        B2 (3)
  215   138         395.4370913941       10760.3903045057      PI        B1 (2)
  216    84         395.9932466488       10775.5240583701     SG+        A1 (1)
  217    85         509.0523249079       13852.0179837293     SG+        A1 (1)
  218    86         895.3477938960       24363.6520960480     SG+        A1 (1)


  VSCF finished.

 @CHECKOUT-I, Total execution time (CPU/WALL):       33.75/      14.72 seconds.
--executable xvscf finished with status     0 in       14.80 seconds (walltime).
 --invoking executable--
/nfs/workspaces/public/cfour_mpi/bin/xvtran
 @GETMEM-I,  Allocated    3814 MB of main memory.
  Full RHF integral transformation
  Transformation of IIII integrals :
  1 pass through the AO integral file was required.
     4525926 AO integrals were read.
     8788370 MO integrals were written to HF2.
  Transformation of IIJJ integrals :
  1 pass through the AO integral file was required.
    10258575 AO integrals were read.
    14569889 MO integrals were written to HF2.
  Transformation of IJIJ integrals :
  1 pass through the AO integral file was required.
    19472644 AO integrals were read.
    27346696 MO integrals were written to HF2.
  Transformation of IJKL integrals :
  1 pass through the AO integral file was required.
    14415430 AO integrals were read.
    18450699 MO integrals were written to HF2.
  Summary of active molecular orbitals: 
------------------------------------------------------------------------
 
  Index      Eigenvalue    Symmetry    Index      Eigenvalue    Symmetry
------------------------------------------------------------------------
     1       -20.6656026        1       110         4.1377622        2
     2       -11.4344337        1       111         4.1837897        2
     3        -1.4106699        1       112         4.8529633        2
     4        -0.7936798        1       113         4.9395404        2
     5        -0.5659554        1       114         5.6032822        2
     6        -0.5735020        2       115         6.0001567        2
     7        -0.5735020        3       116         6.2656698        2
     8         0.0631353        1       117         6.4108752        2
     9         0.0700880        1       118         7.1316685        2
    10         0.1571359        1       119         7.9555236        2
    11         0.2263800        1       120        10.0657840        2
    12         0.2278086        1       121        10.7953161        2
    13         0.2995365        1       122        11.1931669        2
    14         0.3809205        1       123        11.8608941        2
    15         0.5097556        1       124        12.5887496        2
    16         0.5437439        1       125        13.3595247        2
    17         0.5579887        1       126        19.0538229        2
    18         0.7588144        1       127        26.8196526        2
    19         0.7606257        1       128        33.7118163        2
    20         0.8289010        1       129        47.3503443        2
    21         0.8690232        1       130        66.5670224        2
    22         0.8804457        1       131        98.5981745        2
    23         1.1270702        1       132        98.6457950        2
    24         1.4215648        1       133       103.2846987        2
    25         1.5472488        1       134       103.3531717        2
    26         1.6531022        1       135       115.2806143        2
    27         1.7388259        1       136       116.9738018        2
    28         1.8399233        1       137       198.6964231        2
    29         2.0434296        1       138       225.0126671        2
    30         2.0924119        1       139       395.4370914        2
    31         2.1643078        1       140         0.0489649        3
    32         2.2946110        1       141         0.1010985        3
    33         2.3340072        1       142         0.1695087        3
    34         2.4930724        1       143         0.3040275        3
    35         2.7059934        1       144         0.3963980        3
    36         2.8597227        1       145         0.6260825        3
    37         3.3977671        1       146         0.7437040        3
    38         3.7036329        1       147         0.8025399        3
    39         3.8993865        1       148         0.8943186        3
    40         4.2046340        1       149         1.0434590        3
    41         4.2213826        1       150         1.4350767        3
    42         4.3086188        1       151         1.5697385        3
    43         4.3822283        1       152         1.6847686        3
    44         4.9945698        1       153         2.0518397        3
    45         5.1562018        1       154         2.2355257        3
    46         5.3463064        1       155         2.2865351        3
    47         5.8736188        1       156         2.3004735        3
    48         6.2180220        1       157         2.5481615        3
    49         6.2339090        1       158         2.7001808        3
    50         6.5402900        1       159         3.6519297        3
    51         6.5426914        1       160         4.0752990        3
    52         6.7847095        1       161         4.1377622        3
    53         7.4643129        1       162         4.1837897        3
    54         8.2434158        1       163         4.8529633        3
    55        10.0866860        1       164         4.9395404        3
    56        10.6156286        1       165         5.6032822        3
    57        10.8675263        1       166         6.0001567        3
    58        11.0289170        1       167         6.2656698        3
    59        11.5049659        1       168         6.4108752        3
    60        12.1294939        1       169         7.1316685        3
    61        12.7903432        1       170         7.9555236        3
    62        12.9800252        1       171        10.0657840        3
    63        14.4308510        1       172        10.7953161        3
    64        17.7065159        1       173        11.1931669        3
    65        20.4924834        1       174        11.8608941        3
    66        26.3898341        1       175        12.5887496        3
    67        27.4886989        1       176        13.3595247        3
    68        34.5527237        1       177        19.0538229        3
    69        36.2541875        1       178        26.8196526        3
    70        47.0889641        1       179        33.7118163        3
    71        48.0397159        1       180        47.3503443        3
    72        64.0020310        1       181        66.5670224        3
    73        67.6243498        1       182        98.5981745        3
    74        98.6128754        1       183        98.6457950        3
    75        98.6679551        1       184       103.2846987        3
    76       103.3117171        1       185       103.3531717        3
    77       103.3676958        1       186       115.2806143        3
    78       115.0726666        1       187       116.9738018        3
    79       115.6159484        1       188       198.6964231        3
    80       117.6470153        1       189       225.0126671        3
    81       122.4527035        1       190       395.4370914        3
    82       198.5569422        1       191         0.2263800        4
    83       199.0536263        1       192         0.5437439        4
    84       216.5149798        1       193         0.7588144        4
    85       225.8518525        1       194         0.8804457        4
    86       395.9932466        1       195         1.5472488        4
    87       509.0523249        1       196         1.7388259        4
    88       895.3477939        1       197         2.0924119        4
    89         0.0489649        2       198         2.1643078        4
    90         0.1010985        2       199         2.3340072        4
    91         0.1695087        2       200         2.8597227        4
    92         0.3040275        2       201         3.7036329        4
    93         0.3963980        2       202         4.2046340        4
    94         0.6260825        2       203         4.3086188        4
    95         0.7437040        2       204         4.9945698        4
    96         0.8025399        2       205         5.8736188        4
    97         0.8943186        2       206         6.2339090        4
    98         1.0434590        2       207         6.5402900        4
    99         1.4350767        2       208         6.7847095        4
   100         1.5697385        2       209        10.6156286        4
   101         1.6847686        2       210        11.0289170        4
   102         2.0518397        2       211        12.1294939        4
   103         2.2355257        2       212        12.7903432        4
   104         2.2865351        2       213        26.3898341        4
   105         2.3004735        2       214        47.0889641        4
   106         2.5481615        2       215        98.6128754        4
   107         2.7001808        2       216       103.3117171        4
   108         3.6519297        2       217       115.0726666        4
   109         4.0752990        2       218       198.5569422        4
------------------------------------------------------------------------
  -20.6656026089009       -11.4344337465276       -1.41066992834918     
 -0.793679756173854      -0.565955372173778      -0.573501970325191     
 -0.573501970325186       6.313531444148668E-002  7.008797754859342E-002
  0.157135869906614       0.226379955923449       0.227808557635771     
  0.299536473757819       0.380920517614629       0.509755629518398     
  0.543743903206098       0.557988670220797       0.758814448056171     
  0.760625703176043       0.828901043483329       0.869023202000818     
  0.880445741732089        1.12707019754409        1.42156475115208     
   1.54724875526277        1.65310216213352        1.73882591332625     
   1.83992330066258        2.04342956472070        2.09241187695616     
   2.16430778843845        2.29461098541430        2.33400724231617     
   2.49307243139849        2.70599342008240        2.85972271455645     
   3.39776709314358        3.70363293417828        3.89938645369727     
   4.20463403788495        4.22138257515955        4.30861879338285     
   4.38222826899219        4.99456983428226        5.15620182214032     
   5.34630642304563        5.87361876405219        6.21802204370041     
   6.23390904333640        6.54028995977666        6.54269136753026     
   6.78470949589324        7.46431290112540        8.24341582021002     
   10.0866860442626        10.6156286066493        10.8675263430281     
   11.0289169627601        11.5049659140652        12.1294939496071     
   12.7903432264904        12.9800252127170        14.4308510283602     
   17.7065159410358        20.4924834098260        26.3898340783073     
   27.4886989367703        34.5527237054783        36.2541874797932     
   47.0889640825520        48.0397159435606        64.0020309909523     
   67.6243498271930        98.6128753631558        98.6679551283188     
[...]
 Convergence information after    11 iterations: 
 Largest element of residual vector : -0.37408408E-05.
 Largest element of DIIS residual   : -0.16324778E-05.
 Convergence information after    12 iterations: 
 Largest element of residual vector : -0.20681587E-05.
 Largest element of DIIS residual   : -0.96168553E-06.
 Convergence information after    13 iterations: 
 Largest element of residual vector : -0.81748110E-06.
 Largest element of DIIS residual   : -0.26972298E-06.
 Convergence information after    14 iterations: 
 Largest element of residual vector : -0.35534788E-06.
 Largest element of DIIS residual   : -0.15100992E-06.
 Convergence information after    15 iterations: 
 Largest element of residual vector : -0.99553075E-07.
 Largest element of DIIS residual   : -0.60217673E-07.
 Perturbed amplitude equations converged in    15 iterations.
  Dominant contributions to perturbed wavefunction:
    7    7  140   28  -0.2155680679 ABAB
    7    7   28  140  -0.2155680679 ABAB
    7    7  141   28  -0.2012042045 ABAB
    7    7   28  141  -0.2012042045 ABAB
    7    7  140   39   0.1771797205 ABAB
    7    7   39  140   0.1771797205 ABAB
    7    7  141   39   0.1712320861 ABAB
    7    7   39  141   0.1712320861 ABAB
    7    7  140   54  -0.1397080039 ABAB
    7    7   54  140  -0.1397080039 ABAB
    7    6   28   89  -0.1396203285 ABAB
    6    7   89   28  -0.1396203285 ABAB
    7    7  141   54  -0.1355671821 ABAB
    7    7   54  141  -0.1355671821 ABAB
    7    7  141   45   0.1288708317 ABAB
    7    7   45  141   0.1288708317 ABAB
    7    6   28   90  -0.1283192617 ABAB
    6    7   90   28  -0.1283192617 ABAB
    7    7  140   20  -0.1269240503 ABAB
    7    7   20  140  -0.1269240503 ABAB
  norm of converged amps    2.05938482036004     
 Starting iterative solution of the perturbed Lambda equations.
 The DIIS procedure is used to accelerate convergence.
 Convergence criterion is 10**(-7).
 Maximum number of iterations is 100.
 Convergence information after     1 iterations: 
 Largest element of residual vector :  0.61208162E-01.
 Largest element of DIIS residual   :  0.61208162E-01.
 Convergence information after     2 iterations: 
 Largest element of residual vector : -0.11337705E-01.
 Largest element of DIIS residual   :  0.72690292E-02.
 Convergence information after     3 iterations: 
 Largest element of residual vector :  0.46772084E-02.
 Largest element of DIIS residual   :  0.41775625E-02.
 Convergence information after     4 iterations: 
 Largest element of residual vector :  0.28621987E-02.
 Largest element of DIIS residual   :  0.24031719E-02.
 Convergence information after     5 iterations: 
 Largest element of residual vector :  0.19463385E-02.
 Largest element of DIIS residual   :  0.10777304E-02.
 Convergence information after     6 iterations: 
 Largest element of residual vector :  0.71664410E-03.
 Largest element of DIIS residual   :  0.26686946E-03.
 Convergence information after     7 iterations: 
 Largest element of residual vector :  0.23929810E-03.
 Largest element of DIIS residual   :  0.12328562E-03.
 Convergence information after     8 iterations: 
 Largest element of residual vector :  0.77013500E-04.
 Largest element of DIIS residual   :  0.45163635E-04.
 Convergence information after     9 iterations: 
 Largest element of residual vector :  0.27444113E-04.
 Largest element of DIIS residual   : -0.78879109E-05.
 Convergence information after    10 iterations: 
 Largest element of residual vector : -0.53346028E-05.
 Largest element of DIIS residual   : -0.48442343E-05.
 Convergence information after    11 iterations: 
 Largest element of residual vector : -0.27556030E-05.
 Largest element of DIIS residual   : -0.14959774E-05.
 Convergence information after    12 iterations: 
 Largest element of residual vector : -0.16141026E-05.
 Largest element of DIIS residual   : -0.12429302E-05.
 Convergence information after    13 iterations: 
 Largest element of residual vector : -0.92415585E-06.
 Largest element of DIIS residual   : -0.54936711E-06.
 Convergence information after    14 iterations: 
 Largest element of residual vector : -0.56089421E-06.
 Largest element of DIIS residual   : -0.32483648E-06.
 Convergence information after    15 iterations: 
 Largest element of residual vector : -0.21992665E-06.
 Largest element of DIIS residual   : -0.12911538E-06.
 Convergence information after    16 iterations: 
 Largest element of residual vector : -0.11167854E-06.
 Largest element of DIIS residual   : -0.42013513E-07.
 Perturbed Lambda equations converged in    16 iterations.
  Dominant contributions to perturbed wavefunction:
    7    7  140   28  -0.1988393772 ABAB
    7    7   28  140  -0.1988393772 ABAB
    7    7  141   28  -0.1843008493 ABAB
    7    7   28  141  -0.1843008493 ABAB
    7    7  140   39   0.1617533390 ABAB
    7    7   39  140   0.1617533390 ABAB
    7    7  141   39   0.1552627033 ABAB
    7    7   39  141   0.1552627033 ABAB
    7    7  140   54  -0.1303162548 ABAB
    7    7   54  140  -0.1303162548 ABAB
    7    6   28   89  -0.1265453938 ABAB
    6    7   89   28  -0.1265453938 ABAB
    7    7  141   54  -0.1257317232 ABAB
    7    7   54  141  -0.1257317232 ABAB
    7    6   28   90  -0.1156728328 ABAB
    6    7   90   28  -0.1156728328 ABAB
    7    7  141   45   0.1153643804 ABAB
    7    7   45  141   0.1153643804 ABAB
    7    7  140   20  -0.1147541721 ABAB
    7    7   20  140  -0.1147541721 ABAB
        The DBOC first-order density matrix is being calculated 
             (Symmetry block 3, perturbation   2)
 term   4.81948722840277     
 final tnorm  0.862748384008413     
  norm contr. I: |<0|L dT/dx|0>|^2   0.000000000000000E+000
  norm contr. II: <0|[nabla(1+L)e-T][nabla e^T]|0>   4.81948722840277     
  total norm contribution   4.81948722840277     
 oo  8.833663423155464E-003
 vv  -36.1478070395848     
 vo  6.140131651646183E-002
  Correlated perturbed 1-el contribution to DBOC  -36.0775720596452       cm**-1
  SUM_I |dc_I/dx|^2 contribution to DBOC   18.1439698715769       cm**-1
 
 
  The total diagonal Born-Oppenheimer correction (DBOC) is:      0.0040074616 a.u.
  The total diagonal Born-Oppenheimer correction (DBOC) is:        879.536149 cm-1
 
 Total CC energy including DBOC  -113.230315059366     
 First-order density matrix is being calculated  (Symmetry block 3, perturbation   2)
 Calculation of the contributions of <pq||rs> to dI(i,j)/dx required   4.0 seconds.
 Calculation of the contributions of <pq||rs> to dI(a,b)/dx required  15.0 seconds.
 Calculation of the contributions of <pq||rs> to dI(i,a)/dx required   9.0 seconds.
 First-order Z-vector equations are solved for 1 perturbation.
 Convergence reached after  18 iterations.
        U*G(pq,rs) contribution is being calculated
             (Symmetry block 3, perturbation   2)

 CCSD contribution to force constants 

        0.0000000000        0.0000000000        0.0000000000
        0.0000000000        0.0000000000        0.0000000000
        0.0000000000        0.0000000000        0.0000000000
        0.0000000000        0.0000000000        0.0000000000
        0.0000000000        0.0000000000        0.0000000000
        0.0000000000        0.0000000000        0.0000000000
        0.0000000000        0.0000000000        0.0000000000
        0.0000000000        0.0000000000        0.0000000000
        0.0000000000        0.0000000000        0.0000000000
        0.0000000000        0.0000000000        0.0000000000
        0.0000000000        0.0000000000        0.0000000000
        0.0000000000        1.5557046204       -1.5557046204

 CCSD contribution to dipole derivatives 

        0.0000000000        0.0000000000        0.0000000000
        0.0000000000        0.0000000000        0.0000000000
        0.0000000000        0.0000000000        0.0000000000
        0.0000000000        0.0000000000       -0.0514338806
        0.0000000000        0.0000000000        0.0000000000
        0.0000000000        0.0000000000        0.0000000000
 @CHECKOUT-I, Total execution time (CPU/WALL):     1166.85/     585.83 seconds.
--executable xsdcc finished with status     0 in      586.16 seconds (walltime).
 --invoking executable--
/nfs/workspaces/public/cfour_mpi/bin/xanti
 @GETMEM-I,  Allocated    3814 MB of main memory.
 CCSD MO derivative gammas will be sorted to Mulliken order.
 @CHECKOUT-I, Total execution time (CPU/WALL):       11.58/      18.65 seconds.
--executable xanti finished with status     0 in       18.78 seconds (walltime).
 --invoking executable--
/nfs/workspaces/public/cfour_mpi/bin/xbcktrn
 @GETMEM-I,  Allocated    3814 MB of main memory.
 CCSD MO derivative gammas will be transformed to the AO basis.
 @CHECKOUT-I, Total execution time (CPU/WALL):       37.03/      17.46 seconds.
--executable xbcktrn finished with status     0 in       17.57 seconds (walltime).
 --invoking executable--
/nfs/workspaces/public/cfour_mpi/bin/xvdint
 @GETMEM-I,  Allocated    3814 MB of main memory.
 One- and two-electron integral derivatives are calculated
 for RHF-CC/MBPT hessians and dipole derivatives.
 Spherical gaussians are used.
  magnet F F
                    8722  records have been written to the Sort file.
  Total length of Sort file :             178609116  words.
 Evaluation of 2el integral derivatives

                      Two-electron integral gradient
                      ------------------------------

                         C #1 z     0.0000000000
                         O #2 z     0.0000000000


 C #1       0.0000000000           -0.1929830336            0.0000000000
 O #2       0.0000000000            0.1929830336            0.0000000000


 Evaluation of 2e integral derivatives required  430.91 seconds.
  contribution to Hessian
        0.0000000000        0.0000000000        0.0000000000
        0.0000000000       -0.1929830336        0.1929830336
 @CHECKOUT-I, Total execution time (CPU/WALL):      430.90/     140.99 seconds.
--executable xvdint finished with status     0 in      141.16 seconds (walltime).
 --invoking executable--
/nfs/workspaces/public/cfour_mpi/bin/xanti
 @GETMEM-I,  Allocated    3814 MB of main memory.
 CCSD MO gammas will be sorted to Mulliken order.
 @CHECKOUT-I, Total execution time (CPU/WALL):       15.22/      56.73 seconds.
--executable xanti finished with status     0 in       56.85 seconds (walltime).
 --invoking executable--
/nfs/workspaces/public/cfour_mpi/bin/xbcktrn
 @GETMEM-I,  Allocated    3814 MB of main memory.
 CCSD MO gammas will be transformed to the AO basis.
 @CHECKOUT-I, Total execution time (CPU/WALL):       46.28/      11.20 seconds.
--executable xbcktrn finished with status     0 in       11.23 seconds (walltime).
 --invoking executable--
/nfs/workspaces/public/cfour_mpi/bin/xvdint
 @GETMEM-I,  Allocated    3814 MB of main memory.
 One- and two-electron integral derivatives are calculated
 for RHF-CC/MBPT hessians and dipole derivatives.
 Spherical gaussians are used.
  magnet F F

                     Kinetic energy integral gradient
                     --------------------------------

                         C #1 z    -1.0235064456
                         O #2 z     1.0235064456


 C #1       0.0000000000            0.0000000000           -1.0235064456
 O #2       0.0000000000            0.0000000000            1.0235064456



                   Nuclear attraction integral gradient
                   ------------------------------------

                         C #1 z    19.2196859163
                         O #2 z   -19.2196859163


 C #1       0.0000000000            0.0000000000           19.2196859163
 O #2       0.0000000000            0.0000000000          -19.2196859163



                      Reorthonormalization gradient
                      -----------------------------

                         C #1 z     0.0000000000
                         O #2 z     0.0000000000


 C #1       0.0000000000            0.0000000000            0.0000000000
 O #2       0.0000000000            0.0000000000            0.0000000000



                     Kinetic energy integral Hessian
                     -------------------------------


           Symmetry 1

           C #1 z      O #2 z

 C #1 z    0.961720
 O #2 z   -0.961720    0.961720


           Symmetry 2

           C #1 x      O #2 x

 C #1 x   -1.071096
 O #2 x    1.071096   -1.071096


           Symmetry 3

           C #1 y      O #2 y

 C #1 y   -1.071096
 O #2 y    1.071096   -1.071096




           C #1 x      C #1 y      C #1 z      O #2 x      O #2 y      O #2 z

 C #1 x   -1.071096
 C #1 y    0.000000   -1.071096
 C #1 z    0.000000    0.000000    0.961720

 O #2 x    1.071096    0.000000    0.000000   -1.071096
 O #2 y    0.000000    1.071096    0.000000    0.000000   -1.071096
 O #2 z    0.000000    0.000000   -0.961720    0.000000    0.000000    0.961720




                   Nuclear attraction integral Hessian
                   -----------------------------------


           Symmetry 1

           C #1 z      O #2 z

 C #1 z  -11.778175
 O #2 z   11.778175  -11.778175


           Symmetry 2

           C #1 x      O #2 x

 C #1 x   13.840757
 O #2 x  -13.840757   13.840757


           Symmetry 3

           C #1 y      O #2 y

 C #1 y   13.840757
 O #2 y  -13.840757   13.840757




           C #1 x      C #1 y      C #1 z      O #2 x      O #2 y      O #2 z

 C #1 x   13.840757
 C #1 y    0.000000   13.840757
 C #1 z    0.000000    0.000000  -11.778175

 O #2 x  -13.840757    0.000000    0.000000   13.840757
 O #2 y    0.000000  -13.840757    0.000000    0.000000   13.840757
 O #2 z    0.000000    0.000000   11.778175    0.000000    0.000000  -11.778175




                Highest order reorthonormalization Hessian
                ------------------------------------------


           Symmetry 1

           C #1 z      O #2 z

 C #1 z    0.000000
 O #2 z    0.000000    0.000000


           Symmetry 2

           C #1 x      O #2 x

 C #1 x    0.000000
 O #2 x    0.000000    0.000000


           Symmetry 3

           C #1 y      O #2 y

 C #1 y    0.000000
 O #2 y    0.000000    0.000000




           C #1 x      C #1 y      C #1 z      O #2 x      O #2 y      O #2 z




                Electronic contributions to dipole moment
                -----------------------------------------

                               au             Debye

                    z      0.84979349      2.15995998

  Conversion factor used: 1 a.u. =   2.54174691 Debye 



   Electronic contributions to static part of dipole moment derivatives
   --------------------------------------------------------------------


                     Total dipole moment derivatives
                     -------------------------------


           Symmetry 1
                              Ez

               C #1 z    -5.68682109
               O #2 z    -8.31317891

           Symmetry 2
                              Ex

               C #1 x    -5.70695508
               O #2 x    -8.29304492

           Symmetry 3
                              Ey

               C #1 y    -5.70695508
               O #2 y    -8.29304492



                       Ex          Ey          Ez

      C #1    x   -5.706955    0.000000    0.000000
      C #1    y    0.000000   -5.706955    0.000000
      C #1    z    0.000000    0.000000   -5.686821

      O #2    x   -8.293045    0.000000    0.000000
      O #2    y    0.000000   -8.293045    0.000000
      O #2    z    0.000000    0.000000   -8.313179

 Evaluation of 1e integral derivatives required    1.23 seconds.
                    8815  records have been written to the Sort file.
  Total length of Sort file :             180513570  words.
 Evaluation of 2el integral derivatives

                      Two-electron integral gradient
                      ------------------------------

                         C #1 z    -9.6141756069
                         O #2 z     9.6141756069


 C #1       0.0000000000            0.0000000000           -9.6141756069
 O #2       0.0000000000            0.0000000000            9.6141756069


 Evaluation of 2e integral derivatives required  721.81 seconds.

                            Molecular gradient
                            ------------------

                         C #1 z     0.6705606098
                         O #2 z    -0.6705606098


 C #1       0.0000000000            0.0000000000            0.6705606098
 O #2       0.0000000000            0.0000000000           -0.6705606098


  Molecular gradient norm 0.948E+00

                            Molecular hessian
                            -----------------


           Symmetry 1

           C #1 z      O #2 z

 C #1 z   40.842297
 O #2 z  -40.842297   40.842297


           Symmetry 2

           C #1 x      O #2 x

 C #1 x   -1.077028
 O #2 x    1.077028   -1.077028


           Symmetry 3

           C #1 y      O #2 y

 C #1 y   -1.077028
 O #2 y    1.077028   -1.077028




           C #1 x      C #1 y      C #1 z      O #2 x      O #2 y      O #2 z

 C #1 x   -1.077028
 C #1 y    0.000000   -1.077028
 C #1 z    0.000000    0.000000   40.842297

 O #2 x    1.077028    0.000000    0.000000   -1.077028
 O #2 y    0.000000    1.077028    0.000000    0.000000   -1.077028
 O #2 z    0.000000    0.000000  -40.842297    0.000000    0.000000   40.842297




                           Total dipole moment
                           -------------------

                               au             Debye

                    z      0.16538884      0.42037657

  Conversion factor used: 1 a.u. =   2.54174691 Debye 



                     Total dipole moment derivatives
                     -------------------------------


           Symmetry 1
                              Ez

               C #1 z     0.69891456
               O #2 z    -0.69891456

           Symmetry 2
                              Ex

               C #1 x     0.06848507
               O #2 x    -0.06848507

           Symmetry 3
                              Ey

               C #1 y     0.06848507
               O #2 y    -0.06848507



                       Ex          Ey          Ez

      C #1    x    0.068485    0.000000    0.000000
      C #1    y    0.000000    0.068485    0.000000
      C #1    z    0.000000    0.000000    0.698915

      O #2    x   -0.068485    0.000000    0.000000
      O #2    y    0.000000   -0.068485    0.000000
      O #2    z    0.000000    0.000000   -0.698915

 @CHECKOUT-I, Total execution time (CPU/WALL):      723.03/     181.55 seconds.
--executable xvdint finished with status     0 in      181.73 seconds (walltime).
 --invoking executable--
/nfs/workspaces/public/cfour_mpi/bin/xjoda
  @GTFLGS-I, Hessian will be transformed to curvilinear coordinates.
  @GTFLGS-I, Hessian will be transformed to curvilinear coordinates.
  igrd and ihes are                      0                     1
  gradient from JOBARC 
   0.000000000000000   0.000000000000000   0.670560609816033
   0.000000000000000   0.000000000000000  -0.670560609816033
 
  @PROJFCM-I, Projecting force constant matrix onto totally symmetric subspace.
  Largest difference between matrix elements of symmetrized
  and unsymmetrized FCM :    -0.3559375017E-12.
  read isotopes from ZMAT file 
 
  Summary of diagonal Born-Oppenheimer correction at the correlated level
  The total diagonal Born-Oppenheimer correction (DBOC) is:      0.0040074616 a.u.
  The total diagonal Born-Oppenheimer correction (DBOC) is:        879.536149 cm-1
  The total diagonal Born-Oppenheimer correction (DBOC) is:            10.522 kJ/mole
  hellooooooo 
  readis is  F
 
 @CHECKOUT-I, Total execution time (CPU/WALL):        0.01/       0.05 seconds.
--executable xjoda finished with status     0 in        0.10 seconds (walltime).
  The final electronic energy is      -113.230315059366447 a.u. 
  This computation required                         5063.85 seconds (walltime).
