 --invoking executable--
/nfs/workspaces/public/cfour_mpi/bin/xjoda


   *************************************************************************
         <<<     CCCCCC     CCCCCC   |||     CCCCCC     CCCCCC   >>>
       <<<      CCC        CCC       |||    CCC        CCC         >>>
      <<<      CCC        CCC        |||   CCC        CCC            >>>
    <<<        CCC        CCC        |||   CCC        CCC              >>>
      <<<      CCC        CCC        |||   CCC        CCC            >>>
       <<<      CCC        CCC       |||    CCC        CCC         >>>
         <<<     CCCCCC     CCCCCC   |||     CCCCCC     CCCCCC   >>>
   *************************************************************************

     ****************************************************************
     * CFOUR Coupled-Cluster techniques for Computational Chemistry *
     ****************************************************************
 

   Department of Chemistry                Institut fuer Physikalische Chemie
   University of Florida                  Universitaet Mainz
   Gainesville, FL 32611, USA             D-55099 Mainz, Germany

   Department of Chemistry                Fakultaet fuer Chemie und Biowiss.
   Johns Hopkins University               Karlsruher Institut fuer Technologie
   Baltimore, MD 21218, USA               D-76131 Karlsruhe, Germany

   Department of Chemistry                Department of Physical Chemistry
   Southern Methodist University          Eotvos Lorand University
   Dallas, TX 75275, USA                  H-1053 Budapest, Hungary

 
                       Version 2.1
 
                     vincent.theory.phys.ucl.ac.uk                     
                     Thu 27 Feb 21:56:24 GMT 2025                      
                     integer*8 version is running
 
********************************************************************************
*                          Input from ZMAT file                                *
********************************************************************************
Carbon Monoxide DBOC calculation                                                
C                                                                               
O 1 r                                                                           
                                                                                
r=1.4586206896551723                                                            
                                                                                
                                                                                
*CFOUR(CALC=CCSD,BASIS=AUG-PCVQZ,SCF_CONV=10                                    
CC_CONV=14,DBOC=ON,MEMORY=500000000                                             
ZFIELD=200)                                                                     
                                                                                
%isotopes                                                                       
13                                                                              
16                                                                              
********************************************************************************
  @GTFLGS-I, Hessian will be transformed to curvilinear coordinates.
    -------------------------------------------------------------------
                    CFOUR Control Parameters 
    -------------------------------------------------------------------
        External           Internal           Value            Units
          Name               Name
    -------------------------------------------------------------------
       ABCDTYPE             IABCDT         STANDARD    [  0]    ***   
       ANHARMONIC           IANHAR         OFF         [  0]    ***   
       ANH_ALGORIT          IANALG         STANDARD    [  0]    ***   
       ANH_DERIVAT          IANDER         SECOND      [  1]    ***   
       ANH_MODE             ANHMOD         VIBRATION   [  0]    ***   
       ANH_STEPSIZ          ICUBST             50000          x 10-6  
       ANH_SYMMETR          IANHSM         ABELIAN     [  0]    ***   
       AO_LADDERS           IAOLAD         SINGLEPASS  [  1]    ***   
       AV_SCF               IAVSCF         OFF         [  0]    ***   
       BASIS                IBASIS         AUG-PCVQZ   [ 52]    ***   
       BOTHVECTORS          BOTHVC         OFF         [  0]    ***   
       BOX_POTENT           IPIAB          OFF         [  0]    ***   
       BREIT                IBREIT         OFF         [  0]    ***   
       BRUCK_CONV           IBRTOL          10D-  4             ***   
       BRUECKNER            IBRKNR         OFF         [  0]    ***   
       BUFFERSIZE           IBUFFS              4096            ***   
       CACHE_RECS           ICHREC             10               ***   
       CALCLEVEL            ICLLVL         CCSD        [ 10]    ***   
       CCORBOPT             ICCORB         OFF         [  0]  x 0.01  
       CC_CONV              ICCCNV          10D- 14             ***   
       CC_EXPORDER          ICCEOR              5               ***   
       CC_EXTRAPOL          ICCEXT         DIIS        [  1]    ***   
       CC_GUESS             ICCGES         MP2         [  0]    ***   
       CC_MAXCYC            ICCCYC            100              cycles 
       CC_PROGRAM           ICCPRO         VCC         [  0]    ***   
       CHARGE               ICHRGE              0               ***   
       CHOLESKY             ICHOLE         OFF         [  0]    ***   
       CIS_CONV             ICISTL              5               ***   
       COMM_SIZE            IPSIZE            ***               ***   
       CONSTANT             ICONST         OLD         [  1]    ***   
       CONTINUUM            ICONTU         NONE        [  0]    ***   
       CONTRACTION          ICNTYP         GENERAL     [  1]    ***   
       COORDINATES          ICOORD         INTERNAL    [  0]    ***   
       CPHF_CONVER          ICPHFT          10D- 16             ***   
       CPHF_MAXCYC          ICPHFC             64              cycles 
       CUBIC                ICUBIC         OFF         [  0]    ***   
       CURVILINEAR          ICURVY         ON          [  1]    ***   
       DBOC                 IDBOC          ON          [  1]    ***   
       DCT                  IDCT           OFF         [  0]    ***   
       DERIV_LEV            IDRLVL         SECOND      [  2]    ***   
       DEVMEM_SIZE          IDVMEM          50000000           MByte  
       DIAG_MRCC            IEOMST          10D-  0             ***   
       DIFF_TYPE            IDIFTY         RELAXED     [  0]    ***   
       DIRECT               IDIRCT         OFF         [  0]    ***   
       DROPMO               IDRPMO      NONE         
       ECP                  IECP           OFF         [  0]    ***   
       EIGENVECTOR          IVEC                1               ***   
       EL_ANHARM            IELANH         OFF         [  0]    ***   
       EOMFOLLOW            IEOMSR         ENERGY      [  0]    ***   
       EOMIP                IEOMIP         OFF         [  0]    ***   
       EOMLEVEL             HBARFM         SAME        [  0]    ***   
       EOM_MRCC             IMRCCE         NEW         [  1]    ***   
       EOM_NONIT            EOMNON         OFF         [  0]    ***   
       EOM_NSING            IEOMSI          10D-  0             ***   
       EOM_NSTATES          IMRCCD         DAVIDSON    [  0]    ***   
       EOM_NTRIP            IEOMTR          10D-  0             ***   
       EOM_ORDER            IEXORD         ENERGY      [  0]    ***   
       EOM_PROPSTA          IEOMST              0               ***   
       ESTATE_CONV          IEXTOL          10D-  5             ***   
       ESTATE_DIAG          IEXDIG         ITERATIVE   [  0]    ***   
       ESTATE_LOCK          IESLOC         ON          [  1]    ***   
       ESTATE_MAXC          IEXMXC             40               ***   
       ESTATE_PROP          IEXPRP         OFF         [  0]    ***   
       EVAL_HESS            IRECAL              0            # of cyc.
       EXCITATION           IEXCIT              0               ***   
       EXCITE               IEXCIT         NONE        [  0]    ***   
       EXTERN_POT           IEXPOT         OFF         [  0]    ***   
       FCGRADNEW            IFCGNW         OFF         [  0]    ***   
       FC_FIELD             IFINFC              0             x 10-6  
       FD_CALTYPE           IFDCAL         GRADONLY    [  0]    ***   
       FD_PROJECT           IFDPRJ         OFF         [  1]    ***   
       FD_STEPSIZE          IDISFD              0            10-4 bohr
       FD_USEGROUP          IFDGRP         FULL        [  0]    ***   
       FILE_RECSIZ          IFLREC              4096           words  
       FINITE_PERT          IFIPER              0             x 10-6  
       FIXGEOM              IFIXGM         OFF         [  0]    ***   
       FOCK                 IFOCK          AO          [  1]    ***   
       FREQ_ALGORI          IVIALG         STANDARD    [  0]    ***   
       FROZEN_CORE          IFROCO         OFF         [  0]    ***   
       GAMMA_ABCD           IGABCD         STORE       [  0]    ***   
       GAMMA_ABCI           IGABCI         STORE       [  0]    ***   
       GENBAS_1             IGNBS1              0               ***   
       GENBAS_2             IGNBS2              0               ***   
       GENBAS_3             IGNBS3              0               ***   
       GENBAS_4             IGNBS4              0               ***   
       GEO_CONV             ICONTL              5              H/bohr 
       GEO_MAXCYC           IOPTCY             50               ***   
       GEO_MAXSTEP          IMXSTP            300            millibohr
       GEO_METHOD           INR            SINGLE_POINT[  5]    ***   
       GIAO                 IGIAO          OFF         [  1]    ***   
       GIMIC                IGIMIC         OFF         [  0]    ***   
       GRID                 IGRID          OFF         [  0]    ***   
       GRID_ALGO            IGALGO         SERIAL      [  0]    ***   
       GUESS                IGUESS         MOREAD      [  0]    ***   
       HBAR                 IHBAR          OFF         [  0]    ***   
       HESS_TYPE            IHESTP         SCF         [  0]    ***   
       HF2_FILE             IHF2Fl         USE         [  1]    ***   
       HFSTABILITY          ISTABL         OFF         [  0]    ***   
       INCORE               INCORE         OFF         [  0]    ***   
       INPUT_MRCC           IMRCC          ON          [  1]    ***   
       INTEGRALS            INTTYP         VMOL        [  1]    ***   
       JODA_PRINT           IJPRNT              0               ***   
       KEYWORD_OUT          IDMPKW         NO          [  0]    ***   
       LINDEP_TOL           ILINDP              8               ***   
       LINEQ_CONV           IZTACN          10D-  7           cycles  
       LINEQ_EXPOR          ILMAXD              5               ***   
       LINEQ_MAXCY          ILMAXC            100               ***   
       LINEQ_TYPE           ILTYPE         DIIS        [  1]    ***   
       LOCK_ORBOCC          ILOCOC         OFF         [  0]    ***   
       MEMORY_SIZE          IMEMSZ         500000000           words  
       MEM_UNIT             IMEMU          INTEGERWORDS[  0]    ***   
       MRCC                 IMRCCC         OFF         [  0]    ***   
       MULTIPLICTY          IMULTP              1               ***   
       NACOUPLING           IVCOUP         OFF         [  0]    ***   
       NEGEVAL              IDIE           ABORT       [  0]    ***   
       NEWNORM              INEWNO         OFF         [  0]    ***   
       NON-HF               INONHF         OFF         [  0]    ***   
       NTOP_TAMP            ITOPT2             15               ***   
       NUC_MODEL            INUCMO         POINT       [  0]    ***   
       OCCUPATION           IOCCU   ESTIMATED BY SCF 
       OPEN-SHELL           IOPEN          SPIN-ORBITAL[  0]    ***   
       OPTVIB               IOPTVB         OFF         [  0]    ***   
       ORBITALS             IORBTP         STANDARD    [  0]    ***   
       PARALLEL             IPARAL         ON          [  1]    ***   
       PARA_INT             IPINTS         ON          [  1]    ***   
       PARA_PRINT           IPPRIN              0               ***   
       PERT_ORB             IPTORB         STANDARD    [  0]    ***   
       POINTS               IGRDFD              0               ***   
       PRINT                IPRNT               0               ***   
       PROPS                IPROPS         OFF         [  0]    ***   
       PROP_INTEGR          IINTYP         INTERNAL    [  0]    ***   
       PSI                  IPSI           OFF         [  0]    ***   
       QC_ALG               IQCALG         FLM         [  0]    ***   
       QC_LINALG            IQCLIN         TRIDIAG     [  2]    ***   
       QC_MAXCYC            IQCMAX          10D-100           cycles  
       QC_MAXSCFCY          IQCMSC          10D- 15           cycles  
       QC_RTRUST            IQCRTR          10D-  0           x 10-3  
       QC_SKIPSCF           IQCSKI         OFF         [  0]    ***   
       QC_START             IQCSTA          10D-  1             ***   
       QRHFGUESS            IQGUES         OFF         [  0]    ***   
       QUARTIC              IQUART         OFF         [  0]    ***   
       RAMAN_INT            IRAMIN         OFF         [  0]    ***   
       RAMAN_ORB            IRAMRE         UNRELAXED   [  0]    ***   
       RDO                  IRDOFM         ON          [  1]    ***   
       REDUCE_REPR          REDREP         Ir          [  0]    ***   
       REFERENCE            IREFNC         RHF         [  0]    ***   
       RELATIVIST           IRELAT         OFF         [  0]    ***   
       RELAX_DENS           IRDENS         ON          [  1]    ***   
       RESET_FLAGS          IRESET         OFF         [  0]    ***   
       RESTART_CC           ICCRES         OFF         [  0]    ***   
       ROT_EVEC             ROTVEC              0               ***   
       SAVE_INTS            ISVINT         OFF         [  0]    ***   
       SCALE_ON             ISTCRT              0               ***   
       SCF_CONV             ISCFCV          10D- 10             ***   
       SCF_DAMPING          IDAMP               0             x 10-3  
       SCF_EXPORDE          IRPPOR              6               ***   
       SCF_EXPSTAR          IRPPLS              8               ***   
       SCF_EXTRAPO          IRPP           ON          [  1]    ***   
       SCF_MAXCYC           ISCFCY            150              cycles 
       SCF_NOSTOP           ISCFST         OFF         [  0]    ***   
       SCF_PRINT            ISCFPR              0               ***   
       SCF_PROG             ISCFPR         SCF         [  0]    ***   
       SD_FIELD             IFINSD              0             x 10-6  
       SOPERT               IPERSO         OFF         [  0]    ***   
       SPHERICAL            IDFGHI         ON          [  1]    ***   
       SPINORBIT            ISOCAL         OFF         [  0]    ***   
       SPINROTATIO          ISRCON         OFF         [  0]    ***   
       SPIN_FLIP            ISPFLP         OFF         [  0]    ***   
       SPIN_ORBIT           ISPORB         OFF         [  0]    ***   
       SPIN_SCAL            ISCSMP         OFF         [  0]    ***   
       STEEPSCALE           ISTPSC              1000          x 10-3  
       SUBGROUP             ISUBGP         DEFAULT     [  0]    ***   
       SUBGRPAXIS           ISBXYZ         X           [  0]    ***   
       SYMMETRY             ISYM           ON          [  0]    ***   
       SYM_CHECK            ISYMCK         OVERRIDE    [  1]    ***   
       T3_EXTRAPOL          IT3EXT         OFF         [  0]    ***   
       T4_EXTRAPOL          IT4EXP         OFF         [  0]    ***   
       TAMP_SUM             IEVERY              5               ***   
       TESTSUITE            ITESTS         OFF         [  0]    ***   
       THERMOCH             ITHERM         OFF         [  0]    ***   
       TOL_CHOLESK          ITOLCH          10D-  4             ***   
       TRANGRAD             IRESRM         OFF         [  0]    ***   
       TRANS_INV            ITRAIN         IGNORE      [  1]    ***   
       TREAT_PERT           ITREAT         SIMULTANEOUS[  0]    ***   
       TRIP_ALGORI          ITRALG         NORMAL      [  0]    ***   
       UIJ_THRESHO          IUIJTH              1               ***   
       UNITS                IUNITS         ANGSTROM    [  0]    ***   
       UNOS                 IUNOS          OFF         [  0]    ***   
       UPDATE_HESS          IHUPDT         ON          [  1]    ***   
       VIBPHASE             ISETPH         STANDARD    [  0]    ***   
       VIBRATION            IVIB           ANALYTIC    [  1]    ***   
       VIB_ALGORIT          IGEALG         STANDARD    [  0]    ***   
       VNATORB              IVNORB         OFF         [  0]    ***   
       VTRAN                IVTRAN         FULL/PARTIAL[  0]    ***   
       XFIELD               IXEFLD              0             x 10-6  
       XFORM_TOL            IXFTOL          10D- 11             ***   
       YFIELD               IYEFLD              0             x 10-6  
       ZFIELD               IZEFLD            200             x 10-6  
       ZSCALE_EXP           IZEXPS         OFF         [  0]    ***   
    -------------------------------------------------------------------
   2 entries found in Z-matrix 
   Job Title : Carbon Monoxide DBOC calculation                                                
   There are  1 unique internal coordinates.
   Of these,  0 will be optimized.
   User supplied Z-matrix: 
--------------------------------------------------------------------------------
       SYMBOL    BOND      LENGTH    ANGLE     ANGLE     DIHED     ANGLE
                  TO      (ANGST)    WRT      (DEG)      WRT      (DEG)
--------------------------------------------------------------------------------
        C    
        O          1         r    
                  *Initial values for internal coordinates* 
                      Name             Value
                        r               1.4586206897
--------------------------------------------------------------------------------
  read isotopes from ZMAT file 
   Rotational constants (in cm-1): 
          1.1047056047             1.1047056047
   Rotational constants (in MHz): 
      33118.2455000620         33118.2455000620
********************************************************************************
   The full molecular point group is CXv .
   The largest Abelian subgroup of the full molecular point group is C2v .
   The computational point group is C2v .
********************************************************************************
--------------------------------------------------------------------------------
   Analysis of internal coordinates specified by Z-matrix 
--------------------------------------------------------------------------------
   *The nuclear repulsion energy is   17.414054921985816 a.u.
   *There is   1 degree of freedom within the tot. symm. molecular subspace.
   *Z-matrix requests optimization of   0 coordinates.
   *The optimization is constrained.
   *The following   1 parameters can have non-zero 
    derivatives within the totally symmetric subspace:
             r    [ 1]
   *The following   0 parameters are to be optimized:

   *The following coordinates must be varied in an  unconstrained optimization.
             r    [ 1]
--------------------------------------------------------------------------------


 ----------------------------------------------------------------
         Coordinates used in calculation (QCOMP) 
 ----------------------------------------------------------------
 Z-matrix   Atomic            Coordinates (in bohr)
  Symbol    Number           X              Y              Z
 ----------------------------------------------------------------
     C         6        -0.00000000     0.00000000     1.52037659
     O         8         0.00000000     0.00000000    -1.23601761
 ----------------------------------------------------------------
 
   Interatomic distance matrix (Angstroms) 
 
                 C             O    
                [ 1]        [ 2]
  C    [ 1]     0.00000
  O    [ 2]     1.45862     0.00000
 rotcon2
   Rotational constants (in cm-1): 
          1.1047056047             0.0000000000
   Rotational constants (in MHz): 
      33118.2455000620             0.0000000000
  ECPDATA file not present.   Using default ECPDATA. 
  @GTFLGS-I, Hessian will be transformed to curvilinear coordinates.
  There are  218 basis functions.
 @CHECKOUT-I, Total execution time (CPU/WALL):        0.17/       0.26 seconds.
--executable xjoda finished with status     0 in        0.29 seconds (walltime).
 --invoking executable--
/nfs/workspaces/public/cfour_mpi/bin/xvmol
 SERIAL VERSION OF MOLECULE STARTED
********************************************************************************
                    INPUT FROM MOL FILE
********************************************************************************
INTGRL        1    0    1    0    0    0    0    0    0                         
         *** CFOUR Program System (Release V0.1) ***                            
Carbon Monoxide DBOC calculation                                                
    2    2 X  Y       0.10E-08              0    0                              
   9999.00      3.00                                                            
          6.00000000    1    5    1    1    1    1    1                         
C #1  -0.000000000000000   0.000000000000000   1.520376586468177                
   16    9                                                                      
   33980.0000000000       9.100000000000000E-005 -1.900000000000000E-005        
  0.000000000000000E+000  0.000000000000000E+000  0.000000000000000E+000        
  0.000000000000000E+000  0.000000000000000E+000  0.000000000000000E+000        
  0.000000000000000E+000                                                        
   5089.00000000000       7.040000000000000E-004 -1.510000000000000E-004        
  0.000000000000000E+000  0.000000000000000E+000  0.000000000000000E+000        
  0.000000000000000E+000  0.000000000000000E+000  0.000000000000000E+000        
  0.000000000000000E+000                                                        
   1157.00000000000       3.693000000000000E-003 -7.850000000000000E-004        
  0.000000000000000E+000  0.000000000000000E+000  0.000000000000000E+000        
  0.000000000000000E+000  0.000000000000000E+000  0.000000000000000E+000        
  0.000000000000000E+000                                                        
   326.600000000000       1.536000000000000E-002 -3.324000000000000E-003        
  0.000000000000000E+000  0.000000000000000E+000  0.000000000000000E+000        
  0.000000000000000E+000  0.000000000000000E+000  0.000000000000000E+000        
  0.000000000000000E+000                                                        
   106.100000000000       5.292900000000000E-002 -1.151200000000000E-002        
  0.000000000000000E+000  0.000000000000000E+000  0.000000000000000E+000        
  0.000000000000000E+000  0.000000000000000E+000  0.000000000000000E+000        
  0.000000000000000E+000                                                        
   38.1100000000000       0.147043000000000      -3.416000000000000E-002        
  0.000000000000000E+000  0.000000000000000E+000  0.000000000000000E+000        
  0.000000000000000E+000  0.000000000000000E+000  0.000000000000000E+000        
  0.000000000000000E+000                                                        
   14.7500000000000       0.305631000000000      -7.717300000000001E-002        
  0.000000000000000E+000  0.000000000000000E+000  0.000000000000000E+000        
  0.000000000000000E+000  0.000000000000000E+000  0.000000000000000E+000        
  0.000000000000000E+000                                                        
   6.03500000000000       0.399345000000000      -0.141493000000000             
  0.000000000000000E+000  0.000000000000000E+000  0.000000000000000E+000        
  0.000000000000000E+000  0.000000000000000E+000  0.000000000000000E+000        
  0.000000000000000E+000                                                        
   2.53000000000000       0.217051000000000      -0.118019000000000             
  0.000000000000000E+000  0.000000000000000E+000  0.000000000000000E+000        
  0.000000000000000E+000  0.000000000000000E+000  0.000000000000000E+000        
  0.000000000000000E+000                                                        
  0.735500000000000       1.589400000000000E-002  0.273806000000000             
   1.00000000000000       0.000000000000000E+000  0.000000000000000E+000        
  0.000000000000000E+000  0.000000000000000E+000  0.000000000000000E+000        
  0.000000000000000E+000                                                        
  0.290500000000000      -3.084000000000000E-003  0.586510000000000             
  0.000000000000000E+000   1.00000000000000       0.000000000000000E+000        
  0.000000000000000E+000  0.000000000000000E+000  0.000000000000000E+000        
  0.000000000000000E+000                                                        
  0.111100000000000       9.779999999999999E-004  0.285430000000000             
  0.000000000000000E+000  0.000000000000000E+000   1.00000000000000             
  0.000000000000000E+000  0.000000000000000E+000  0.000000000000000E+000        
  0.000000000000000E+000                                                        
   7.21600000000000       0.000000000000000E+000  0.000000000000000E+000        
  0.000000000000000E+000  0.000000000000000E+000  0.000000000000000E+000        
   1.00000000000000       0.000000000000000E+000  0.000000000000000E+000        
  0.000000000000000E+000                                                        
   19.5700000000000       0.000000000000000E+000  0.000000000000000E+000        
  0.000000000000000E+000  0.000000000000000E+000  0.000000000000000E+000        
  0.000000000000000E+000   1.00000000000000       0.000000000000000E+000        
  0.000000000000000E+000                                                        
   53.0730000000000       0.000000000000000E+000  0.000000000000000E+000        
  0.000000000000000E+000  0.000000000000000E+000  0.000000000000000E+000        
  0.000000000000000E+000  0.000000000000000E+000   1.00000000000000             
  0.000000000000000E+000                                                        
  4.145000000000000E-002  0.000000000000000E+000  0.000000000000000E+000        
  0.000000000000000E+000  0.000000000000000E+000  0.000000000000000E+000        
  0.000000000000000E+000  0.000000000000000E+000  0.000000000000000E+000        
   1.00000000000000                                                             
   10    8                                                                      
   34.5100000000000       5.378000000000000E-003  0.000000000000000E+000        
  0.000000000000000E+000  0.000000000000000E+000  0.000000000000000E+000        
  0.000000000000000E+000  0.000000000000000E+000  0.000000000000000E+000        
   7.91500000000000       3.613200000000000E-002  0.000000000000000E+000        
  0.000000000000000E+000  0.000000000000000E+000  0.000000000000000E+000        
  0.000000000000000E+000  0.000000000000000E+000  0.000000000000000E+000        
   2.36800000000000       0.142493000000000       0.000000000000000E+000        
  0.000000000000000E+000  0.000000000000000E+000  0.000000000000000E+000        
  0.000000000000000E+000  0.000000000000000E+000  0.000000000000000E+000        
  0.813200000000000       0.342150000000000        1.00000000000000             
  0.000000000000000E+000  0.000000000000000E+000  0.000000000000000E+000        
  0.000000000000000E+000  0.000000000000000E+000  0.000000000000000E+000        
  0.289000000000000       0.463864000000000       0.000000000000000E+000        
   1.00000000000000       0.000000000000000E+000  0.000000000000000E+000        
  0.000000000000000E+000  0.000000000000000E+000  0.000000000000000E+000        
  0.100700000000000       0.250028000000000       0.000000000000000E+000        
  0.000000000000000E+000   1.00000000000000       0.000000000000000E+000        
  0.000000000000000E+000  0.000000000000000E+000  0.000000000000000E+000        
   8.18200000000000       0.000000000000000E+000  0.000000000000000E+000        
  0.000000000000000E+000  0.000000000000000E+000   1.00000000000000             
  0.000000000000000E+000  0.000000000000000E+000  0.000000000000000E+000        
   24.1860000000000       0.000000000000000E+000  0.000000000000000E+000        
  0.000000000000000E+000  0.000000000000000E+000  0.000000000000000E+000        
   1.00000000000000       0.000000000000000E+000  0.000000000000000E+000        
   71.4940000000000       0.000000000000000E+000  0.000000000000000E+000        
  0.000000000000000E+000  0.000000000000000E+000  0.000000000000000E+000        
  0.000000000000000E+000   1.00000000000000       0.000000000000000E+000        
  3.218000000000000E-002  0.000000000000000E+000  0.000000000000000E+000        
  0.000000000000000E+000  0.000000000000000E+000  0.000000000000000E+000        
  0.000000000000000E+000  0.000000000000000E+000   1.00000000000000             
    6    6                                                                      
   1.84800000000000        1.00000000000000       0.000000000000000E+000        
  0.000000000000000E+000  0.000000000000000E+000  0.000000000000000E+000        
  0.000000000000000E+000                                                        
  0.649000000000000       0.000000000000000E+000   1.00000000000000             
  0.000000000000000E+000  0.000000000000000E+000  0.000000000000000E+000        
  0.000000000000000E+000                                                        
  0.228000000000000       0.000000000000000E+000  0.000000000000000E+000        
   1.00000000000000       0.000000000000000E+000  0.000000000000000E+000        
  0.000000000000000E+000                                                        
   8.65600000000000       0.000000000000000E+000  0.000000000000000E+000        
  0.000000000000000E+000   1.00000000000000       0.000000000000000E+000        
  0.000000000000000E+000                                                        
   33.2130000000000       0.000000000000000E+000  0.000000000000000E+000        
  0.000000000000000E+000  0.000000000000000E+000   1.00000000000000             
  0.000000000000000E+000                                                        
  7.660000000000000E-002  0.000000000000000E+000  0.000000000000000E+000        
  0.000000000000000E+000  0.000000000000000E+000  0.000000000000000E+000        
   1.00000000000000                                                             
    4    4                                                                      
   1.41900000000000        1.00000000000000       0.000000000000000E+000        
  0.000000000000000E+000  0.000000000000000E+000                                
  0.485000000000000       0.000000000000000E+000   1.00000000000000             
  0.000000000000000E+000  0.000000000000000E+000                                
   24.6940000000000       0.000000000000000E+000  0.000000000000000E+000        
   1.00000000000000       0.000000000000000E+000                                
  0.187000000000000       0.000000000000000E+000  0.000000000000000E+000        
  0.000000000000000E+000   1.00000000000000                                     
    2    2                                                                      
   1.01100000000000        1.00000000000000       0.000000000000000E+000        
  0.424000000000000       0.000000000000000E+000   1.00000000000000             
          8.00000000    1    5    1    1    1    1    1                         
O #2   0.000000000000000   0.000000000000000  -1.236017614367748                
   16    9                                                                      
   61420.0000000000       9.000000000000001E-005 -2.000000000000000E-005        
  0.000000000000000E+000  0.000000000000000E+000  0.000000000000000E+000        
  0.000000000000000E+000  0.000000000000000E+000  0.000000000000000E+000        
  0.000000000000000E+000                                                        
   9199.00000000000       6.980000000000001E-004 -1.590000000000000E-004        
  0.000000000000000E+000  0.000000000000000E+000  0.000000000000000E+000        
  0.000000000000000E+000  0.000000000000000E+000  0.000000000000000E+000        
  0.000000000000000E+000                                                        
   2091.00000000000       3.664000000000000E-003 -8.290000000000000E-004        
  0.000000000000000E+000  0.000000000000000E+000  0.000000000000000E+000        
  0.000000000000000E+000  0.000000000000000E+000  0.000000000000000E+000        
  0.000000000000000E+000                                                        
   590.900000000000       1.521800000000000E-002 -3.508000000000000E-003        
  0.000000000000000E+000  0.000000000000000E+000  0.000000000000000E+000        
  0.000000000000000E+000  0.000000000000000E+000  0.000000000000000E+000        
  0.000000000000000E+000                                                        
   192.300000000000       5.242300000000000E-002 -1.215600000000000E-002        
  0.000000000000000E+000  0.000000000000000E+000  0.000000000000000E+000        
  0.000000000000000E+000  0.000000000000000E+000  0.000000000000000E+000        
  0.000000000000000E+000                                                        
   69.3200000000000       0.145921000000000      -3.626100000000000E-002        
  0.000000000000000E+000  0.000000000000000E+000  0.000000000000000E+000        
  0.000000000000000E+000  0.000000000000000E+000  0.000000000000000E+000        
  0.000000000000000E+000                                                        
   26.9700000000000       0.305258000000000      -8.299200000000000E-002        
  0.000000000000000E+000  0.000000000000000E+000  0.000000000000000E+000        
  0.000000000000000E+000  0.000000000000000E+000  0.000000000000000E+000        
  0.000000000000000E+000                                                        
   11.1000000000000       0.398508000000000      -0.152090000000000             
  0.000000000000000E+000  0.000000000000000E+000  0.000000000000000E+000        
  0.000000000000000E+000  0.000000000000000E+000  0.000000000000000E+000        
  0.000000000000000E+000                                                        
   4.68200000000000       0.216980000000000      -0.115331000000000             
  0.000000000000000E+000  0.000000000000000E+000  0.000000000000000E+000        
  0.000000000000000E+000  0.000000000000000E+000  0.000000000000000E+000        
  0.000000000000000E+000                                                        
   1.42800000000000       1.759400000000000E-002  0.288979000000000             
   1.00000000000000       0.000000000000000E+000  0.000000000000000E+000        
  0.000000000000000E+000  0.000000000000000E+000  0.000000000000000E+000        
  0.000000000000000E+000                                                        
  0.554700000000000      -2.502000000000000E-003  0.586128000000000             
  0.000000000000000E+000   1.00000000000000       0.000000000000000E+000        
  0.000000000000000E+000  0.000000000000000E+000  0.000000000000000E+000        
  0.000000000000000E+000                                                        
  0.206700000000000       9.540000000000000E-004  0.277624000000000             
  0.000000000000000E+000  0.000000000000000E+000   1.00000000000000             
  0.000000000000000E+000  0.000000000000000E+000  0.000000000000000E+000        
  0.000000000000000E+000                                                        
   12.9740000000000       0.000000000000000E+000  0.000000000000000E+000        
  0.000000000000000E+000  0.000000000000000E+000  0.000000000000000E+000        
   1.00000000000000       0.000000000000000E+000  0.000000000000000E+000        
  0.000000000000000E+000                                                        
   34.9000000000000       0.000000000000000E+000  0.000000000000000E+000        
  0.000000000000000E+000  0.000000000000000E+000  0.000000000000000E+000        
  0.000000000000000E+000   1.00000000000000       0.000000000000000E+000        
  0.000000000000000E+000                                                        
   93.8810000000000       0.000000000000000E+000  0.000000000000000E+000        
  0.000000000000000E+000  0.000000000000000E+000  0.000000000000000E+000        
  0.000000000000000E+000  0.000000000000000E+000   1.00000000000000             
  0.000000000000000E+000                                                        
  6.959000000000000E-002  0.000000000000000E+000  0.000000000000000E+000        
  0.000000000000000E+000  0.000000000000000E+000  0.000000000000000E+000        
  0.000000000000000E+000  0.000000000000000E+000  0.000000000000000E+000        
   1.00000000000000                                                             
   10    8                                                                      
   63.4200000000000       6.044000000000000E-003  0.000000000000000E+000        
  0.000000000000000E+000  0.000000000000000E+000  0.000000000000000E+000        
  0.000000000000000E+000  0.000000000000000E+000  0.000000000000000E+000        
   14.6600000000000       4.179900000000000E-002  0.000000000000000E+000        
  0.000000000000000E+000  0.000000000000000E+000  0.000000000000000E+000        
  0.000000000000000E+000  0.000000000000000E+000  0.000000000000000E+000        
   4.45900000000000       0.161143000000000       0.000000000000000E+000        
  0.000000000000000E+000  0.000000000000000E+000  0.000000000000000E+000        
  0.000000000000000E+000  0.000000000000000E+000  0.000000000000000E+000        
   1.53100000000000       0.356731000000000        1.00000000000000             
  0.000000000000000E+000  0.000000000000000E+000  0.000000000000000E+000        
  0.000000000000000E+000  0.000000000000000E+000  0.000000000000000E+000        
  0.530200000000000       0.448309000000000       0.000000000000000E+000        
   1.00000000000000       0.000000000000000E+000  0.000000000000000E+000        
  0.000000000000000E+000  0.000000000000000E+000  0.000000000000000E+000        
  0.175000000000000       0.244940000000000       0.000000000000000E+000        
  0.000000000000000E+000   1.00000000000000       0.000000000000000E+000        
  0.000000000000000E+000  0.000000000000000E+000  0.000000000000000E+000        
   14.4750000000000       0.000000000000000E+000  0.000000000000000E+000        
  0.000000000000000E+000  0.000000000000000E+000   1.00000000000000             
  0.000000000000000E+000  0.000000000000000E+000  0.000000000000000E+000        
   42.7300000000000       0.000000000000000E+000  0.000000000000000E+000        
  0.000000000000000E+000  0.000000000000000E+000  0.000000000000000E+000        
   1.00000000000000       0.000000000000000E+000  0.000000000000000E+000        
   126.140000000000       0.000000000000000E+000  0.000000000000000E+000        
  0.000000000000000E+000  0.000000000000000E+000  0.000000000000000E+000        
  0.000000000000000E+000   1.00000000000000       0.000000000000000E+000        
  5.348000000000000E-002  0.000000000000000E+000  0.000000000000000E+000        
  0.000000000000000E+000  0.000000000000000E+000  0.000000000000000E+000        
  0.000000000000000E+000  0.000000000000000E+000   1.00000000000000             
    6    6                                                                      
   3.77500000000000        1.00000000000000       0.000000000000000E+000        
  0.000000000000000E+000  0.000000000000000E+000  0.000000000000000E+000        
  0.000000000000000E+000                                                        
   1.30000000000000       0.000000000000000E+000   1.00000000000000             
  0.000000000000000E+000  0.000000000000000E+000  0.000000000000000E+000        
  0.000000000000000E+000                                                        
  0.444000000000000       0.000000000000000E+000  0.000000000000000E+000        
   1.00000000000000       0.000000000000000E+000  0.000000000000000E+000        
  0.000000000000000E+000                                                        
   14.9270000000000       0.000000000000000E+000  0.000000000000000E+000        
  0.000000000000000E+000   1.00000000000000       0.000000000000000E+000        
  0.000000000000000E+000                                                        
   57.5440000000000       0.000000000000000E+000  0.000000000000000E+000        
  0.000000000000000E+000  0.000000000000000E+000   1.00000000000000             
  0.000000000000000E+000                                                        
  0.154000000000000       0.000000000000000E+000  0.000000000000000E+000        
  0.000000000000000E+000  0.000000000000000E+000  0.000000000000000E+000        
   1.00000000000000                                                             
    4    4                                                                      
   2.66600000000000        1.00000000000000       0.000000000000000E+000        
  0.000000000000000E+000  0.000000000000000E+000                                
  0.859000000000000       0.000000000000000E+000   1.00000000000000             
  0.000000000000000E+000  0.000000000000000E+000                                
   26.4830000000000       0.000000000000000E+000  0.000000000000000E+000        
   1.00000000000000       0.000000000000000E+000                                
  0.324000000000000       0.000000000000000E+000  0.000000000000000E+000        
  0.000000000000000E+000   1.00000000000000                                     
    2    2                                                                      
   1.84600000000000        1.00000000000000       0.000000000000000E+000        
  0.714000000000000       0.000000000000000E+000   1.00000000000000             
FINISH                                                                          
 
********************************************************************************
 ONE- AND TWO-ELECTRON INTEGRALS OVER SYMMETRY-ADAPTED AOS ARE CALCULATED.

  SPHERICAL HARMONICS ARE USED.
  
  INTEGRALS LESS THAN  0.10E-13 ARE NEGLECTED.

  NUCLEAR REPULSION ENERGY :   17.4140549220 A.U.
  @MOLECU-I, ONE ELECTRON INTEGRALS (CPU/WALL):        0.06/       0.08 SECONDS.
  @TWOEL-I,    4481914 INTEGRALS OF SYMMETRY TYPE  I I I I
  @TWOEL-I,   19326702 INTEGRALS OF SYMMETRY TYPE  I J I J
  @TWOEL-I,   10176715 INTEGRALS OF SYMMETRY TYPE  I I J J
  @TWOEL-I,   14299509 INTEGRALS OF SYMMETRY TYPE  I J K L
  @TWOEL-I, TOTAL NUMBER OF 2-E INTEGRALS   48284840.
  @MOLECU-I, TWO ELECTRON INTEGRALS (CPU/WALL):      234.43/      32.47 SECONDS.
 @CHECKOUT-I, Total execution time (CPU/WALL):      234.51/      32.60 seconds.

Running with 14 threads/proc

--executable xvmol finished with status     0 in       32.65 seconds (walltime).
 --invoking executable--
/nfs/workspaces/public/cfour_mpi/bin/xvmol2ja
 @GETMEM-I,  Allocated    3814 MB of main memory.
 @CHECKOUT-I, Total execution time (CPU/WALL):        0.17/       0.10 seconds.
--executable xvmol2ja finished with status     0 in        0.16 seconds (walltime).
 --invoking executable--
/nfs/workspaces/public/cfour_mpi/bin/xvprop
 @GETMEM-I,  Allocated    3814 MB of main memory.
   Property integrals will be calculated.
    --------------------------------------------------------------
                                   Property evaluated at 
    Property type                X             Y             Z
    --------------------------------------------------------------
    Dipole moment               ----          ----          ----  
    Quadrupole moment           ----          ----          ----  
    Octopole moment             ----          ----          ----  
    Relativisitic corr.         ----          ----          ----  
    Second moment            0.0000000     0.0000000     0.0000000
    Electron density         0.0000000     0.0000000     1.5203766
    Electron density         0.0000000     0.0000000    -1.2360176
    Field gradient           0.0000000     0.0000000     1.5203766
    Field gradient           0.0000000     0.0000000    -1.2360176
    Potential                0.0000000     0.0000000     1.5203766
    Potential                0.0000000     0.0000000    -1.2360176
    --------------------------------------------------------------
 @CHECKOUT-I, Total execution time (CPU/WALL):        1.37/       1.40 seconds.
--executable xvprop finished with status     0 in        1.43 seconds (walltime).
 --invoking executable--
/nfs/workspaces/public/cfour_mpi/bin/xvscf
  There are  218 functions in the AO basis.

  There are 4 irreducible representations.

       Irrep        # of functions
         1                 86
         2                 52
         3                 52
         4                 28


  Parameters for SCF calculation: 
        SCF reference function:  RHF  
  Maximum number of iterations:  150
     Full symmetry point group: CXv 
     Computational point group: C2v 
        Initial density matrix: MOREAD                 
     SCF convergence tolerance: 10**(-10)
  DIIS convergence acceleration:  ON
          Latest start for DIIS:   8
                     DIIS order:   6

  Memory information:    2523578 words required.
  Fock matrices are constructed from AO integral file.
 @GETMEM-I,  Allocated      19 MB of main memory.
  Initialization and symmetry analysis required      0.002 seconds.

  Adding electric field perturbation to one-electron Hamiltonian.
  Field direction     : Z
  Field strength      :  0.0002000 a.u.

  @INITGES-I, Occupancies from core Hamiltonian:

          Alpha population by irrep:   5    1    1    0
           Beta population by irrep:   5    1    1    0


 total no. of electrons in initial guess :  0.000000000000000E+000
  --------------------------------------------------------------------
  Iteration         Total Energy            Largest Density Difference
  --------------------------------------------------------------------
       0            17.414208098264655              0.0000000000D+00
   current occupation vector 
     5  1  1  0
     5  1  1  0
       1           -93.329904830772378              0.1752074422D+02
   current occupation vector 
     5  1  1  0
     5  1  1  0
       2           -98.299817634196515              0.1752070620D+02
   current occupation vector 
     5  1  1  0
     5  1  1  0
       3          -102.714913080139354              0.6212959529D+01
   current occupation vector 
     5  1  1  0
     5  1  1  0
       4           -97.744408763515978              0.6205615921D+01
   current occupation vector 
     5  1  1  0
     5  1  1  0
       5          -100.950530957106167              0.6644006544D+01
   current occupation vector 
     5  1  1  0
     5  1  1  0
       6           -96.328676465259676              0.6638961555D+01
   current occupation vector 
     5  1  1  0
     5  1  1  0
       7          -100.909194963265463              0.6743525343D+01
   current occupation vector 
     5  1  1  0
     5  1  1  0
       8           -96.267757052170580              0.6743758334D+01
   current occupation vector 
     5  1  1  0
     5  1  1  0
       9          -107.641512589708753              0.5298546331D+01
   current occupation vector 
     5  1  1  0
     5  1  1  0
      10          -109.459649961632678              0.9043585698D+00
   current occupation vector 
     5  1  1  0
     5  1  1  0
      11          -112.309107711599353              0.1598622451D+01
   current occupation vector 
     5  1  1  0
     5  1  1  0
      12          -112.617261342559857              0.5275784869D+00
   current occupation vector 
     5  1  1  0
     5  1  1  0
      13          -112.621264785890048              0.1130166756D+00
   current occupation vector 
     5  1  1  0
     5  1  1  0
      14          -112.622291349347677              0.4792572457D-01
   current occupation vector 
     5  1  1  0
     5  1  1  0
      15          -112.622364340674892              0.1436947228D-01
   current occupation vector 
     5  1  1  0
     5  1  1  0
      16          -112.622382234537554              0.7510851402D-02
   current occupation vector 
     5  1  1  0
     5  1  1  0
      17          -112.622386753429623              0.5085730321D-02
   current occupation vector 
     5  1  1  0
     5  1  1  0
      18          -112.622386897631770              0.9181289449D-03
   current occupation vector 
     5  1  1  0
     5  1  1  0
      19          -112.622386899053112              0.1070484566D-03
   current occupation vector 
     5  1  1  0
     5  1  1  0
      20          -112.622386899191667              0.1933580955D-04
   current occupation vector 
     5  1  1  0
     5  1  1  0
      21          -112.622386899196272              0.1782057149D-05
   current occupation vector 
     5  1  1  0
     5  1  1  0
      22          -112.622386899196329              0.2443555571D-06
   current occupation vector 
     5  1  1  0
     5  1  1  0
      23          -112.622386899196215              0.3851003960D-07
   current occupation vector 
     5  1  1  0
     5  1  1  0
      24          -112.622386899196698              0.8616939828D-08
   current occupation vector 
     5  1  1  0
     5  1  1  0
      25          -112.622386899194510              0.1925464232D-08
   current occupation vector 
     5  1  1  0
     5  1  1  0
      26          -112.622386899196073              0.4020446198D-09
   current occupation vector 
     5  1  1  0
     5  1  1  0
      27          -112.622386899196528              0.2901503482D-09
   current occupation vector 
     5  1  1  0
     5  1  1  0
      28          -112.622386899196471              0.1383315684D-09
   current occupation vector 
     5  1  1  0
     5  1  1  0
      29          -112.622386899196528              0.2683812617D-09
   current occupation vector 
     5  1  1  0
     5  1  1  0
      30          -112.622386899195135              0.2860607751D-08
   current occupation vector 
     5  1  1  0
     5  1  1  0
      31          -112.622386899196812              0.2531515289D-08
   current occupation vector 
     5  1  1  0
     5  1  1  0

  SCF has converged.

 Density matrix saved to file den.dat
 total electron number:   14.0000000000002     
     E(SCF)=      -112.622386899196641              0.3018119088D-10

  Eigenvector printing suppressed.

 @PUTMOS-I, Writing converged MOs to NEWMOS. 
 @PUTMOS-I, Symmetry   1 Full Blocks 21 Partial Blocksize   2
 @PUTMOS-I, Symmetry   2 Full Blocks 13 Partial Blocksize   0
 @PUTMOS-I, Symmetry   3 Full Blocks 13 Partial Blocksize   0
 @PUTMOS-I, Symmetry   4 Full Blocks  7 Partial Blocksize   0
 @PUTFOCK-I, Writing converged Fock matrix to NEWFOCK. 
 @PUTFOCK-I, Symmetry   1 Full Blocks 21 Partial Blocksize   2
 @PUTFOCK-I, Symmetry   2 Full Blocks 13 Partial Blocksize   0
 @PUTFOCK-I, Symmetry   3 Full Blocks 13 Partial Blocksize   0
 @PUTFOCK-I, Symmetry   4 Full Blocks  7 Partial Blocksize   0


 
  ORBITAL EIGENVALUES (ALPHA)  (1H = 27.2113834 eV)

       MO #        E(hartree)               E(eV)           FULLSYM    COMPSYM
       ----   --------------------   --------------------   -------   ---------
    1     1         -20.6572913335        -562.1134744802     SG+        A1 (1)
    2     2         -11.4872861760        -312.5849483617     SG+        A1 (1)
    3     3          -1.3325460724         -36.2604220733     SG+        A1 (1)
    4     4          -0.7955019087         -21.6467074318     SG+        A1 (1)
    5     5          -0.5552457249         -15.1090043001     SG+        A1 (1)
    6   139          -0.5282236827         -14.3736971519      PI        B2 (3)
    7    87          -0.5282236827         -14.3736971519      PI        B1 (2)
  +++++++++++++++++++++++++++++++++++++++++++++++++++++++++++++++++++++++++++++
    8    88           0.0211040133           0.5742693968      PI        B1 (2)
    9   140           0.0211040133           0.5742693968      PI        B2 (3)
   10     6           0.0636755650           1.7327002116     SG+        A1 (1)
   11     7           0.0685304522           1.8648084088     SG+        A1 (1)
   12   141           0.0866221106           2.3571074615      PI        B2 (3)
   13    89           0.0866221106           2.3571074615      PI        B1 (2)
   14     8           0.1566216249           4.2618910828     SG+        A1 (1)
   15    90           0.1742594568           4.7418408893      PI        B1 (2)
   16   142           0.1742594568           4.7418408893      PI        B2 (3)
   17     9           0.2207491501           6.0068897588     SG+        A1 (1)
   18   191           0.2247719491           6.1163556844      DE        A2 (4)
   19    10           0.2247719491           6.1163556844      DE        A1 (1)
   20    91           0.2937938992           7.9945384314      PI        B1 (2)
   21   143           0.2937938992           7.9945384314      PI        B2 (3)
   22    11           0.2996628863           8.1542416887     SG+        A1 (1)
   23    12           0.3546478450           9.6504584831     SG+        A1 (1)
   24    92           0.4008079136          10.9065378056      PI        B1 (2)
   25   144           0.4008079136          10.9065378056      PI        B2 (3)
   26    13           0.4595698024          12.5055300920     SG+        A1 (1)
   27    14           0.5116938827          13.9238984256     SG+        A1 (1)
   28    15           0.5478500441          14.9077575946      DE        A1 (1)
   29   192           0.5478500441          14.9077575946      DE        A2 (4)
   30   145           0.6239546251          16.9786685289      PI        B2 (3)
   31    93           0.6239546251          16.9786685289      PI        B1 (2)
   32    16           0.7223682815          19.6566402643     SG+        A1 (1)
   33    94           0.7380770192          20.0840967478      PH        B1 (2)
   34   146           0.7380770192          20.0840967478      PH        B2 (3)
   35   193           0.7484216592          20.3655887122      DE        A2 (4)
   36    17           0.7484216592          20.3655887122      DE        A1 (1)
   37    95           0.7877693019          21.4362925047      PI        B1 (2)
   38   147           0.7877693019          21.4362925047      PI        B2 (3)
   39    18           0.8256447037          22.4669345851     SG+        A1 (1)
   40    19           0.8697934536          23.6682831451     SG+        A1 (1)
   41    20           0.8703611490          23.6837309224      DE        A1 (1)
   42   194           0.8703611490          23.6837309224      DE        A2 (4)
   43   148           0.8966157939          24.3981561302      PI        B2 (3)
   44    96           0.8966157939          24.3981561302      PI        B1 (2)
   45   149           1.0328725687          28.1058914710      PI        B2 (3)
   46    97           1.0328725687          28.1058914710      PI        B1 (2)
   47    21           1.1243932267          30.5962951847     SG+        A1 (1)
   48    22           1.3892986329          37.8047377567     SG+        A1 (1)
   49   150           1.4258966759          38.8006211356      PH        B2 (3)
   50    98           1.4258966759          38.8006211356      PH        B1 (2)
   51   151           1.5370741247          41.8259133220      PI        B2 (3)
   52    99           1.5370741247          41.8259133220      PI        B1 (2)
   53    23           1.5708682617          42.7454985410      DE        A1 (1)
   54   195           1.5708682617          42.7454985410      DE        A2 (4)
   55    24           1.6191422983          44.0591018576     SG+        A1 (1)
   56   152           1.6404816439          44.6397749735      PI        B2 (3)
   57   100           1.6404816439          44.6397749735      PI        B1 (2)
   58    25           1.7045730507          46.3837908169      DE        A1 (1)
   59   196           1.7045730507          46.3837908170      DE        A2 (4)
   60    26           1.8976967131          51.6389528373     SG+        A1 (1)
   61    27           1.9939512590          54.2581721900     SG+        A1 (1)
   62   197           2.0798333448          56.5951425530      PI        A2 (4)
   63    28           2.0798333448          56.5951425530      PI        A1 (1)
   64   153           2.0905726323          56.8873734226      PI        B2 (3)
   65   101           2.0905726323          56.8873734226      PI        B1 (2)
   66   198           2.1425264154          58.3011077348      DE        A2 (4)
   67    29           2.1425264154          58.3011077348      DE        A1 (1)
   68   154           2.2201580521          60.4135719652      PH        B2 (3)
   69   102           2.2201580521          60.4135719652      PH        B1 (2)
   70   103           2.2490292879          61.1991982318      PH        B1 (2)
   71   155           2.2490292879          61.1991982318      PH        B2 (3)
   72   104           2.2518289085          61.2753797808      PI        B1 (2)
   73   156           2.2518289085          61.2753797808      PI        B2 (3)
   74    30           2.2551297607          61.3652005351     SG+        A1 (1)
   75    31           2.3061330351          62.7530701886      DE        A1 (1)
   76   199           2.3061330351          62.7530701886      DE        A2 (4)
   77    32           2.4738433020          67.3166985634     SG+        A1 (1)
   78   105           2.5211542625          68.6040952461      PI        B1 (2)
   79   157           2.5211542625          68.6040952461      PI        B2 (3)
   80    33           2.6004416148          70.7616137893     SG+        A1 (1)
   81   158           2.6197350723          71.2866154588      PI        B2 (3)
   82   106           2.6197350723          71.2866154588      PI        B1 (2)
   83   200           2.7352241557          74.4292331857      DE        A2 (4)
   84    34           2.7352241557          74.4292331858      DE        A1 (1)
   85    35           3.1429507092          85.5240367552     SG+        A1 (1)
   86   107           3.5168810786          95.6991994020      PI        B1 (2)
   87   159           3.5168810786          95.6991994020      PI        B2 (3)
   88    36           3.7019496325         100.7351707765      PI        A1 (1)
   89   201           3.7019496325         100.7351707765      PI        A2 (4)
   90    37           3.9048304822         106.2558393623     SG+        A1 (1)
   91   108           3.9844611653         108.4227004120      PH        B1 (2)
   92   160           3.9844611653         108.4227004120      PH        B2 (3)
   93   109           4.1289169661         112.3535425914      PH        B1 (2)
   94   161           4.1289169661         112.3535425914      PH        B2 (3)
   95   162           4.1635085220         113.2948266814      PI        B2 (3)
   96   110           4.1635085220         113.2948266814      PI        B1 (2)
   97    38           4.1932020555         114.1028288065     SG+        A1 (1)
   98   202           4.2192811770         114.8124777809      DE        A2 (4)
   99    39           4.2192811770         114.8124777809      DE        A1 (1)
  100    40           4.2738929575         116.2985398764      DE        A1 (1)
  101   203           4.2738929575         116.2985398764      DE        A2 (4)
  102    41           4.4301867413         120.5515099522     SG+        A1 (1)
  103   163           4.6488659693         126.5020742666      PI        B2 (3)
  104   111           4.6488659693         126.5020742666      PI        B1 (2)
  105    42           4.8089451194         130.8580493923     SG+        A1 (1)
  106   204           4.8132632356         130.9755513095      DE        A2 (4)
  107    43           4.8132632356         130.9755513095      DE        A1 (1)
  108   112           5.1506549264         140.1564459635      PI        B1 (2)
  109   164           5.1506549264         140.1564459635      PI        B2 (3)
  110    44           5.3678699798         146.0671680610     SG+        A1 (1)
  111   113           5.4084408791         147.1711583570      PI        B1 (2)
  112   165           5.4084408791         147.1711583570      PI        B2 (3)
  113   205           5.8485509321         159.1471617477      PI        A2 (4)
  114    45           5.8485509321         159.1471617477      PI        A1 (1)
  115   114           5.9322188274         161.4238809254      PH        B1 (2)
  116   166           5.9322188274         161.4238809254      PH        B2 (3)
  117    46           6.1246751851         166.6608846632     SG+        A1 (1)
  118   206           6.1656539442         167.7759733867      DE        A2 (4)
  119    47           6.1656539442         167.7759733867      DE        A1 (1)
  120   167           6.1853909435         168.3130444414      PI        B2 (3)
  121   115           6.1853909435         168.3130444414      PI        B1 (2)
  122    48           6.2532065661         170.1584013494     SG+        A1 (1)
  123   116           6.3798126806         173.6035288723      PH        B1 (2)
  124   168           6.3798126806         173.6035288723      PH        B2 (3)
  125   207           6.4630250553         175.8678527040      DE        A2 (4)
  126    49           6.4630250553         175.8678527040      DE        A1 (1)
  127    50           6.5140428071         177.2561163070      DE        A1 (1)
  128   208           6.5140428071         177.2561163070      DE        A2 (4)
  129   117           6.9130226614         188.1129100932      PI        B1 (2)
  130   169           6.9130226614         188.1129100932      PI        B2 (3)
  131    51           7.1983582836         195.8772871058     SG+        A1 (1)
  132   170           7.5480688979         205.3933967106      PI        B2 (3)
  133   118           7.5480688979         205.3933967106      PI        B1 (2)
  134    52           8.1947843962         222.9914200859     SG+        A1 (1)
  135    53           9.6838169634         263.5100561658     SG+        A1 (1)
  136   171           9.8981776907         269.3431081028      PI        B2 (3)
  137   119           9.8981776907         269.3431081030      PI        B1 (2)
  138    54          10.6352013202         289.3985406589      PI        A1 (1)
  139   209          10.6352013202         289.3985406589      PI        A2 (4)
  140    55          10.7310279291         292.0061152559     SG+        A1 (1)
  141   120          10.7561654387         292.6901416668      PH        B1 (2)
  142   172          10.7561654387         292.6901416668      PH        B2 (3)
  143   210          10.9909078503         299.0778074284      DE        A2 (4)
  144    56          10.9909078503         299.0778074284      DE        A1 (1)
  145   173          11.0143651806         299.7161138360      PI        B2 (3)
  146   121          11.0143651806         299.7161138360      PI        B1 (2)
  147    57          11.2618125066         306.4494978950     SG+        A1 (1)
  148   174          11.8754128302         323.1464115552      PH        B2 (3)
  149   122          11.8754128302         323.1464115552      PH        B1 (2)
  150   211          12.0338046508         327.4564721126      DE        A2 (4)
  151    58          12.0338046508         327.4564721126      DE        A1 (1)
  152   175          12.5403581939         341.2404947870      PI        B2 (3)
  153   123          12.5403581939         341.2404947870      PI        B1 (2)
  154    59          12.7468828022         346.8603150868      DE        A1 (1)
  155   212          12.7468828022         346.8603150868      DE        A2 (4)
  156    60          12.7908846965         348.0576675004     SG+        A1 (1)
  157   124          13.0877395571         356.1354989271      PI        B1 (2)
  158   176          13.0877395571         356.1354989272      PI        B2 (3)
  159    61          13.8082421948         375.7413724431     SG+        A1 (1)
  160    62          17.4552027079         474.9802132107     SG+        A1 (1)
  161   125          18.8263990949         512.2923638133      PI        B1 (2)
  162   177          18.8263990949         512.2923638134      PI        B2 (3)
  163    63          20.1065333998         547.1265891882     SG+        A1 (1)
  164    64          26.3051017339         715.7982086562      DE        A1 (1)
  165   213          26.3051017339         715.7982086562      DE        A2 (4)
  166   178          26.6884799001         726.2304589238      PI        B2 (3)
  167   126          26.6884799001         726.2304589238      PI        B1 (2)
  168    65          27.1855487444         739.7563898242     SG+        A1 (1)
  169   179          33.5610535171         913.2426945617      PI        B2 (3)
  170   127          33.5610535171         913.2426945624      PI        B1 (2)
  171    66          34.3348695659         934.2992997457     SG+        A1 (1)
  172    67          35.8528811801         975.6064957854     SG+        A1 (1)
  173   214          47.0752431700        1280.9824905475      DE        A2 (4)
  174    68          47.0752431700        1280.9824905475      DE        A1 (1)
  175   128          47.2586013744        1285.9719209461      PI        B1 (2)
  176   180          47.2586013744        1285.9719209463      PI        B2 (3)
  177    69          47.6870260608        1297.6299493464     SG+        A1 (1)
  178    70          63.8687776630        1737.9577962759     SG+        A1 (1)
  179   129          66.3896051711        1806.5530000846      PI        B1 (2)
  180   181          66.3896051711        1806.5530000848      PI        B2 (3)
  181    71          67.3081129538        1831.5468675172     SG+        A1 (1)
  182   182          98.5433218127        2681.5001113539      PH        B2 (3)
  183   130          98.5433218127        2681.5001113539      PH        B1 (2)
  184   215          98.5567305820        2681.8649825179      DE        A2 (4)
  185    72          98.5567305820        2681.8649825179      DE        A1 (1)
  186   183          98.5731505075        2682.3117914054      PI        B2 (3)
  187   131          98.5731505075        2682.3117914054      PI        B1 (2)
  188    73          98.5897288057        2682.7629098340     SG+        A1 (1)
  189   184         103.2959162388        2810.8247804277      PH        B2 (3)
  190   132         103.2959162388        2810.8247804277      PH        B1 (2)
  191   216         103.3064152627        2811.1104733937      DE        A2 (4)
  192    74         103.3064152629        2811.1104733971      DE        A1 (1)
  193   133         103.3474035236        2812.2258206763      PI        B1 (2)
  194   185         103.3474035236        2812.2258206763      PI        B2 (3)
  195    75         103.3496994362        2812.2882956328     SG+        A1 (1)
  196    76         115.0011967626        3129.3416565648      DE        A1 (1)
  197   217         115.0011967626        3129.3416565648      DE        A2 (4)
  198   186         115.1853983916        3134.3540377143      PI        B2 (3)
  199   134         115.1853983916        3134.3540377143      PI        B1 (2)
  200    77         115.4548601388        3141.6864646307     SG+        A1 (1)
  201   187         116.8440662950        3179.4886859685      PI        B2 (3)
  202   135         116.8440662950        3179.4886859691      PI        B1 (2)
  203    78         117.4755305632        3196.6717022724     SG+        A1 (1)
  204    79         122.0643429171        3321.5396345853     SG+        A1 (1)
  205   218         198.5517045902        5402.8665583272      DE        A2 (4)
  206    80         198.5517045902        5402.8665583273      DE        A1 (1)
  207   136         198.6511421223        5405.5723911371      PI        B1 (2)
  208   188         198.6511421223        5405.5723911371      PI        B2 (3)
  209    81         198.8748773024        5411.6605349047     SG+        A1 (1)
  210    82         216.4002434658        5888.5499928016     SG+        A1 (1)
  211   137         224.8593885423        6118.7350327148      PI        B1 (2)
  212   189         224.8593885423        6118.7350327149      PI        B2 (3)
  213    83         225.5733817147        6138.1637746743     SG+        A1 (1)
  214   190         395.3396825423       10757.7396748926      PI        B2 (3)
  215   138         395.3396825423       10757.7396748928      PI        B1 (2)
  216    84         395.8761321377       10772.3372105078     SG+        A1 (1)
  217    85         508.7380417324       13843.4659037449     SG+        A1 (1)
  218    86         895.2277325615       24360.3850610428     SG+        A1 (1)


  VSCF finished.

 @CHECKOUT-I, Total execution time (CPU/WALL):       59.19/      13.41 seconds.
--executable xvscf finished with status     0 in       13.44 seconds (walltime).
 --invoking executable--
/nfs/workspaces/public/cfour_mpi/bin/xvtran
 @GETMEM-I,  Allocated    3814 MB of main memory.
  Full RHF integral transformation
  Transformation of IIII integrals :
  1 pass through the AO integral file was required.
     4481914 AO integrals were read.
     8712464 MO integrals were written to HF2.
  Transformation of IIJJ integrals :
  1 pass through the AO integral file was required.
    10176715 AO integrals were read.
    14477840 MO integrals were written to HF2.
  Transformation of IJIJ integrals :
  1 pass through the AO integral file was required.
    19326702 AO integrals were read.
    27059916 MO integrals were written to HF2.
  Transformation of IJKL integrals :
  1 pass through the AO integral file was required.
    14299509 AO integrals were read.
    18295608 MO integrals were written to HF2.
  Summary of active molecular orbitals: 
------------------------------------------------------------------------
 
  Index      Eigenvalue    Symmetry    Index      Eigenvalue    Symmetry
------------------------------------------------------------------------
     1       -20.6572913        1       110         4.1289170        2
     2       -11.4872862        1       111         4.1635085        2
     3        -1.3325461        1       112         4.6488660        2
     4        -0.7955019        1       113         5.1506549        2
     5        -0.5552457        1       114         5.4084409        2
     6        -0.5282237        2       115         5.9322188        2
     7        -0.5282237        3       116         6.1853909        2
     8         0.0636756        1       117         6.3798127        2
     9         0.0685305        1       118         6.9130227        2
    10         0.1566216        1       119         7.5480689        2
    11         0.2207492        1       120         9.8981777        2
    12         0.2247719        1       121        10.7561654        2
    13         0.2996629        1       122        11.0143652        2
    14         0.3546478        1       123        11.8754128        2
    15         0.4595698        1       124        12.5403582        2
    16         0.5116939        1       125        13.0877396        2
    17         0.5478500        1       126        18.8263991        2
    18         0.7223683        1       127        26.6884799        2
    19         0.7484217        1       128        33.5610535        2
    20         0.8256447        1       129        47.2586014        2
    21         0.8697935        1       130        66.3896052        2
    22         0.8703611        1       131        98.5433218        2
    23         1.1243932        1       132        98.5731505        2
    24         1.3892986        1       133       103.2959162        2
    25         1.5708683        1       134       103.3474035        2
    26         1.6191423        1       135       115.1853984        2
    27         1.7045731        1       136       116.8440663        2
    28         1.8976967        1       137       198.6511421        2
    29         1.9939513        1       138       224.8593885        2
    30         2.0798333        1       139       395.3396825        2
    31         2.1425264        1       140         0.0211040        3
    32         2.2551298        1       141         0.0866221        3
    33         2.3061330        1       142         0.1742595        3
    34         2.4738433        1       143         0.2937939        3
    35         2.6004416        1       144         0.4008079        3
    36         2.7352242        1       145         0.6239546        3
    37         3.1429507        1       146         0.7380770        3
    38         3.7019496        1       147         0.7877693        3
    39         3.9048305        1       148         0.8966158        3
    40         4.1932021        1       149         1.0328726        3
    41         4.2192812        1       150         1.4258967        3
    42         4.2738930        1       151         1.5370741        3
    43         4.4301867        1       152         1.6404816        3
    44         4.8089451        1       153         2.0905726        3
    45         4.8132632        1       154         2.2201581        3
    46         5.3678700        1       155         2.2490293        3
    47         5.8485509        1       156         2.2518289        3
    48         6.1246752        1       157         2.5211543        3
    49         6.1656539        1       158         2.6197351        3
    50         6.2532066        1       159         3.5168811        3
    51         6.4630251        1       160         3.9844612        3
    52         6.5140428        1       161         4.1289170        3
    53         7.1983583        1       162         4.1635085        3
    54         8.1947844        1       163         4.6488660        3
    55         9.6838170        1       164         5.1506549        3
    56        10.6352013        1       165         5.4084409        3
    57        10.7310279        1       166         5.9322188        3
    58        10.9909079        1       167         6.1853909        3
    59        11.2618125        1       168         6.3798127        3
    60        12.0338047        1       169         6.9130227        3
    61        12.7468828        1       170         7.5480689        3
    62        12.7908847        1       171         9.8981777        3
    63        13.8082422        1       172        10.7561654        3
    64        17.4552027        1       173        11.0143652        3
    65        20.1065334        1       174        11.8754128        3
    66        26.3051017        1       175        12.5403582        3
    67        27.1855487        1       176        13.0877396        3
    68        34.3348696        1       177        18.8263991        3
    69        35.8528812        1       178        26.6884799        3
    70        47.0752432        1       179        33.5610535        3
    71        47.6870261        1       180        47.2586014        3
    72        63.8687777        1       181        66.3896052        3
    73        67.3081130        1       182        98.5433218        3
    74        98.5567306        1       183        98.5731505        3
    75        98.5897288        1       184       103.2959162        3
    76       103.3064153        1       185       103.3474035        3
    77       103.3496994        1       186       115.1853984        3
    78       115.0011968        1       187       116.8440663        3
    79       115.4548601        1       188       198.6511421        3
    80       117.4755306        1       189       224.8593885        3
    81       122.0643429        1       190       395.3396825        3
    82       198.5517046        1       191         0.2247719        4
    83       198.8748773        1       192         0.5478500        4
    84       216.4002435        1       193         0.7484217        4
    85       225.5733817        1       194         0.8703611        4
    86       395.8761321        1       195         1.5708683        4
    87       508.7380417        1       196         1.7045731        4
    88       895.2277326        1       197         2.0798333        4
    89         0.0211040        2       198         2.1425264        4
    90         0.0866221        2       199         2.3061330        4
    91         0.1742595        2       200         2.7352242        4
    92         0.2937939        2       201         3.7019496        4
    93         0.4008079        2       202         4.2192812        4
    94         0.6239546        2       203         4.2738930        4
    95         0.7380770        2       204         4.8132632        4
    96         0.7877693        2       205         5.8485509        4
    97         0.8966158        2       206         6.1656539        4
    98         1.0328726        2       207         6.4630251        4
    99         1.4258967        2       208         6.5140428        4
   100         1.5370741        2       209        10.6352013        4
   101         1.6404816        2       210        10.9909079        4
   102         2.0905726        2       211        12.0338047        4
   103         2.2201581        2       212        12.7468828        4
   104         2.2490293        2       213        26.3051017        4
   105         2.2518289        2       214        47.0752432        4
   106         2.5211543        2       215        98.5567306        4
   107         2.6197351        2       216       103.3064153        4
   108         3.5168811        2       217       115.0011968        4
   109         3.9844612        2       218       198.5517046        4
------------------------------------------------------------------------
  -20.6572913334558       -11.4872861760376       -1.33254607236512     
 -0.795501908653338      -0.555245724851632      -0.528223682736012     
 -0.528223682736020       6.367556496869828E-002  6.853045217937852E-002
  0.156621624858704       0.220749150108509       0.224771949093859     
  0.299662886257028       0.354647845029591       0.459569802394093     
  0.511693882700430       0.547850044057512       0.722368281515755     
  0.748421659156996       0.825644703718629       0.869793453615547     
  0.870361149018327        1.12439322672241        1.38929863289061     
   1.57086826173642        1.61914229827893        1.70457305073810     
   1.89769671310758        1.99395125901610        2.07983334478347     
   2.14252641542528        2.25512976069805        2.30613303506498     
   2.47384330204383        2.60044161478631        2.73522415570217     
   3.14295070919328        3.70194963246699        3.90483048216943     
   4.19320205552351        4.21928117704114        4.27389295747337     
[...]
 Convergence information after    14 iterations: 
 Largest element of residual vector :  0.14251909E-05.
 Largest element of DIIS residual   :  0.97453472E-06.
 Convergence information after    15 iterations: 
 Largest element of residual vector :  0.89363438E-06.
 Largest element of DIIS residual   :  0.70691777E-06.
 Convergence information after    16 iterations: 
 Largest element of residual vector :  0.51188110E-06.
 Largest element of DIIS residual   :  0.21131457E-06.
 Convergence information after    17 iterations: 
 Largest element of residual vector :  0.22079416E-06.
 Largest element of DIIS residual   :  0.75006989E-07.
 Perturbed amplitude equations converged in    17 iterations.
  Dominant contributions to perturbed wavefunction:
    7    7  140   28   0.2414708117 ABAB
    7    7   28  140   0.2414708117 ABAB
    7    7  140   39  -0.2225837854 ABAB
    7    7   39  140  -0.2225837854 ABAB
    7    7  140   21  -0.1821863059 ABAB
    7    7   21  140  -0.1821863059 ABAB
    7    7  140   44   0.1750294657 ABAB
    7    7   44  140   0.1750294657 ABAB
    7    7  140   54  -0.1669571993 ABAB
    7    7   54  140  -0.1669571993 ABAB
    7    6   28   89   0.1521730579 ABAB
    6    7   89   28   0.1521730579 ABAB
    7    7  140   57   0.1436201815 ABAB
    7    7   57  140   0.1436201815 ABAB
    7    7  140   29  -0.1415295192 ABAB
    7    7   29  140  -0.1415295192 ABAB
    7    6   39   89  -0.1410849405 ABAB
    6    7   89   39  -0.1410849405 ABAB
    7    7  140   24   0.1330709448 ABAB
    7    7   24  140   0.1330709448 ABAB
  norm of converged amps    1.82276135398851     
 Starting iterative solution of the perturbed Lambda equations.
 The DIIS procedure is used to accelerate convergence.
 Convergence criterion is 10**(-7).
 Maximum number of iterations is 100.
 Convergence information after     1 iterations: 
 Largest element of residual vector :  0.68953996E-01.
 Largest element of DIIS residual   :  0.68953996E-01.
 Convergence information after     2 iterations: 
 Largest element of residual vector : -0.13741452E-01.
 Largest element of DIIS residual   :  0.87260155E-02.
 Convergence information after     3 iterations: 
 Largest element of residual vector : -0.61965292E-02.
 Largest element of DIIS residual   : -0.57414729E-02.
 Convergence information after     4 iterations: 
 Largest element of residual vector : -0.38382429E-02.
 Largest element of DIIS residual   : -0.33915645E-02.
 Convergence information after     5 iterations: 
 Largest element of residual vector : -0.29450978E-02.
 Largest element of DIIS residual   : -0.19838188E-02.
 Convergence information after     6 iterations: 
 Largest element of residual vector : -0.13075487E-02.
 Largest element of DIIS residual   : -0.57333750E-03.
 Convergence information after     7 iterations: 
 Largest element of residual vector : -0.57352926E-03.
 Largest element of DIIS residual   : -0.22934376E-03.
 Convergence information after     8 iterations: 
 Largest element of residual vector : -0.14875893E-03.
 Largest element of DIIS residual   : -0.10068174E-03.
 Convergence information after     9 iterations: 
 Largest element of residual vector : -0.59499969E-04.
 Largest element of DIIS residual   : -0.22607304E-04.
 Convergence information after    10 iterations: 
 Largest element of residual vector : -0.18690694E-04.
 Largest element of DIIS residual   : -0.84783399E-05.
 Convergence information after    11 iterations: 
 Largest element of residual vector : -0.39140434E-05.
 Largest element of DIIS residual   : -0.30153675E-05.
 Convergence information after    12 iterations: 
 Largest element of residual vector : -0.21526267E-05.
 Largest element of DIIS residual   : -0.15654974E-05.
 Convergence information after    13 iterations: 
 Largest element of residual vector :  0.12943781E-05.
 Largest element of DIIS residual   :  0.13565997E-05.
 Convergence information after    14 iterations: 
 Largest element of residual vector :  0.98581970E-06.
 Largest element of DIIS residual   :  0.78112394E-06.
 Convergence information after    15 iterations: 
 Largest element of residual vector :  0.68826266E-06.
 Largest element of DIIS residual   :  0.55490041E-06.
 Convergence information after    16 iterations: 
 Largest element of residual vector :  0.39651372E-06.
 Largest element of DIIS residual   :  0.20872533E-06.
 Convergence information after    17 iterations: 
 Largest element of residual vector :  0.19767205E-06.
 Largest element of DIIS residual   :  0.75197987E-07.
 Perturbed Lambda equations converged in    17 iterations.
  Dominant contributions to perturbed wavefunction:
    7    7  140   28   0.2134150830 ABAB
    7    7   28  140   0.2134150830 ABAB
    7    7  140   39  -0.1936757984 ABAB
    7    7   39  140  -0.1936757984 ABAB
    7    7  140   21  -0.1595970705 ABAB
    7    7   21  140  -0.1595970705 ABAB
    7    7  140   44   0.1527553654 ABAB
    7    7   44  140   0.1527553654 ABAB
    7    7  140   54  -0.1481356054 ABAB
    7    7   54  140  -0.1481356054 ABAB
    7    6   28   89   0.1322016452 ABAB
    6    7   89   28   0.1322016452 ABAB
    7    7  140   57   0.1243833489 ABAB
    7    7   57  140   0.1243833489 ABAB
    7    7  140   29  -0.1214175658 ABAB
    7    7   29  140  -0.1214175658 ABAB
    7    6   39   89  -0.1207814504 ABAB
    6    7   89   39  -0.1207814504 ABAB
    7    7  140   24   0.1127789763 ABAB
    7    7   24  140   0.1127789763 ABAB
        The DBOC first-order density matrix is being calculated 
             (Symmetry block 3, perturbation   2)
 term   3.62624337333428     
 final tnorm  0.833950990754332     
  norm contr. I: |<0|L dT/dx|0>|^2   0.000000000000000E+000
  norm contr. II: <0|[nabla(1+L)e-T][nabla e^T]|0>   3.62624337333428     
  total norm contribution   3.62624337333428     
 oo  8.049950497883828E-003
 vv  -27.1629751955079     
 vo  7.478619818074170E-002
  Correlated perturbed 1-el contribution to DBOC  -27.0801390468293       cm**-1
  SUM_I |dc_I/dx|^2 contribution to DBOC   13.6517532664129       cm**-1
 
 
  The total diagonal Born-Oppenheimer correction (DBOC) is:      0.0040084193 a.u.
  The total diagonal Born-Oppenheimer correction (DBOC) is:        879.746351 cm-1
 
 Total CC energy including DBOC  -113.151417043291     
 First-order density matrix is being calculated  (Symmetry block 3, perturbation   2)
 Calculation of the contributions of <pq||rs> to dI(i,j)/dx required   1.9 seconds.
 Calculation of the contributions of <pq||rs> to dI(a,b)/dx required  16.7 seconds.
 Calculation of the contributions of <pq||rs> to dI(i,a)/dx required   9.9 seconds.
 First-order Z-vector equations are solved for 1 perturbation.
 Convergence reached after  22 iterations.
        U*G(pq,rs) contribution is being calculated
             (Symmetry block 3, perturbation   2)

 CCSD contribution to force constants 

        0.0000000000        0.0000000000        0.0000000000
        0.0000000000        0.0000000000        0.0000000000
        0.0000000000        0.0000000000        0.0000000000
        0.0000000000        0.0000000000        0.0000000000
        0.0000000000        0.0000000000        0.0000000000
        0.0000000000        0.0000000000        0.0000000000
        0.0000000000        0.0000000000        0.0000000000
        0.0000000000        0.0000000000        0.0000000000
        0.0000000000        0.0000000000        0.0000000000
        0.0000000000        0.0000000000        0.0000000000
        0.0000000000        0.0000000000        0.0000000000
        0.0000000000       -1.0568856870        1.0568856870

 CCSD contribution to dipole derivatives 

        0.0000000000        0.0000000000        0.0000000000
        0.0000000000        0.0000000000        0.0000000000
        0.0000000000        0.0000000000        0.0000000000
        0.0000000000        0.0000000000       -0.0557129791
        0.0000000000        0.0000000000        0.0000000000
        0.0000000000        0.0000000000        0.0000000000
 @CHECKOUT-I, Total execution time (CPU/WALL):     1133.49/     408.41 seconds.
--executable xsdcc finished with status     0 in      408.62 seconds (walltime).
 --invoking executable--
/nfs/workspaces/public/cfour_mpi/bin/xanti
 @GETMEM-I,  Allocated    3814 MB of main memory.
 CCSD MO derivative gammas will be sorted to Mulliken order.
 @CHECKOUT-I, Total execution time (CPU/WALL):       13.34/      33.30 seconds.
--executable xanti finished with status     0 in       33.41 seconds (walltime).
 --invoking executable--
/nfs/workspaces/public/cfour_mpi/bin/xbcktrn
 @GETMEM-I,  Allocated    3814 MB of main memory.
 CCSD MO derivative gammas will be transformed to the AO basis.
 @CHECKOUT-I, Total execution time (CPU/WALL):       28.98/      15.58 seconds.
--executable xbcktrn finished with status     0 in       15.61 seconds (walltime).
 --invoking executable--
/nfs/workspaces/public/cfour_mpi/bin/xvdint
 @GETMEM-I,  Allocated    3814 MB of main memory.
 One- and two-electron integral derivatives are calculated
 for RHF-CC/MBPT hessians and dipole derivatives.
 Spherical gaussians are used.
  magnet F F
                    8722  records have been written to the Sort file.
  Total length of Sort file :             178609116  words.
 Evaluation of 2el integral derivatives

                      Two-electron integral gradient
                      ------------------------------

                         C #1 z     0.0000000000
                         O #2 z     0.0000000000


 C #1       0.0000000000           -0.0041085190            0.0000000000
 O #2       0.0000000000            0.0041085190            0.0000000000


 Evaluation of 2e integral derivatives required  348.02 seconds.
  contribution to Hessian
        0.0000000000        0.0000000000        0.0000000000
        0.0000000000       -0.0041085190        0.0041085190
 @CHECKOUT-I, Total execution time (CPU/WALL):      348.02/      73.52 seconds.
--executable xvdint finished with status     0 in       73.69 seconds (walltime).
 --invoking executable--
/nfs/workspaces/public/cfour_mpi/bin/xanti
 @GETMEM-I,  Allocated    3814 MB of main memory.
 CCSD MO gammas will be sorted to Mulliken order.
 @CHECKOUT-I, Total execution time (CPU/WALL):       15.29/      57.53 seconds.
--executable xanti finished with status     0 in       57.67 seconds (walltime).
 --invoking executable--
/nfs/workspaces/public/cfour_mpi/bin/xbcktrn
 @GETMEM-I,  Allocated    3814 MB of main memory.
 CCSD MO gammas will be transformed to the AO basis.
 @CHECKOUT-I, Total execution time (CPU/WALL):       39.34/      14.35 seconds.
--executable xbcktrn finished with status     0 in       14.41 seconds (walltime).
 --invoking executable--
/nfs/workspaces/public/cfour_mpi/bin/xvdint
 @GETMEM-I,  Allocated    3814 MB of main memory.
 One- and two-electron integral derivatives are calculated
 for RHF-CC/MBPT hessians and dipole derivatives.
 Spherical gaussians are used.
  magnet F F

                     Kinetic energy integral gradient
                     --------------------------------

                         C #1 z    -0.7190274185
                         O #2 z     0.7190274185


 C #1       0.0000000000            0.0000000000           -0.7190274185
 O #2       0.0000000000            0.0000000000            0.7190274185



                   Nuclear attraction integral gradient
                   ------------------------------------

                         C #1 z    15.9911660415
                         O #2 z   -15.9911660415


 C #1       0.0000000000            0.0000000000           15.9911660415
 O #2       0.0000000000            0.0000000000          -15.9911660415



                      Reorthonormalization gradient
                      -----------------------------

                         C #1 z     0.0000000000
                         O #2 z     0.0000000000


 C #1       0.0000000000            0.0000000000            0.0000000000
 O #2       0.0000000000            0.0000000000            0.0000000000



                     Kinetic energy integral Hessian
                     -------------------------------


           Symmetry 1

           C #1 z      O #2 z

 C #1 z    0.736670
 O #2 z   -0.736670    0.736670


           Symmetry 2

           C #1 x      O #2 x

 C #1 x   -0.630319
 O #2 x    0.630319   -0.630319


           Symmetry 3

           C #1 y      O #2 y

 C #1 y   -0.630319
 O #2 y    0.630319   -0.630319




           C #1 x      C #1 y      C #1 z      O #2 x      O #2 y      O #2 z

 C #1 x   -0.630319
 C #1 y    0.000000   -0.630319
 C #1 z    0.000000    0.000000    0.736670

 O #2 x    0.630319    0.000000    0.000000   -0.630319
 O #2 y    0.000000    0.630319    0.000000    0.000000   -0.630319
 O #2 z    0.000000    0.000000   -0.736670    0.000000    0.000000    0.736670




                   Nuclear attraction integral Hessian
                   -----------------------------------


           Symmetry 1

           C #1 z      O #2 z

 C #1 z   -9.893693
 O #2 z    9.893693   -9.893693


           Symmetry 2

           C #1 x      O #2 x

 C #1 x    9.750187
 O #2 x   -9.750187    9.750187


           Symmetry 3

           C #1 y      O #2 y

 C #1 y    9.750187
 O #2 y   -9.750187    9.750187




           C #1 x      C #1 y      C #1 z      O #2 x      O #2 y      O #2 z

 C #1 x    9.750187
 C #1 y    0.000000    9.750187
 C #1 z    0.000000    0.000000   -9.893693

 O #2 x   -9.750187    0.000000    0.000000    9.750187
 O #2 y    0.000000   -9.750187    0.000000    0.000000    9.750187
 O #2 z    0.000000    0.000000    9.893693    0.000000    0.000000   -9.893693




                Highest order reorthonormalization Hessian
                ------------------------------------------


           Symmetry 1

           C #1 z      O #2 z

 C #1 z    0.000000
 O #2 z    0.000000    0.000000


           Symmetry 2

           C #1 x      O #2 x

 C #1 x    0.000000
 O #2 x    0.000000    0.000000


           Symmetry 3

           C #1 y      O #2 y

 C #1 y    0.000000
 O #2 y    0.000000    0.000000




           C #1 x      C #1 y      C #1 z      O #2 x      O #2 y      O #2 z




                Electronic contributions to dipole moment
                -----------------------------------------

                               au             Debye

                    z      1.11612288      2.83690188

  Conversion factor used: 1 a.u. =   2.54174691 Debye 



   Electronic contributions to static part of dipole moment derivatives
   --------------------------------------------------------------------


                     Total dipole moment derivatives
                     -------------------------------


           Symmetry 1
                              Ez

               C #1 z    -5.66663843
               O #2 z    -8.33336157

           Symmetry 2
                              Ex

               C #1 x    -5.67179205
               O #2 x    -8.32820795

           Symmetry 3
                              Ey

               C #1 y    -5.67179205
               O #2 y    -8.32820795



                       Ex          Ey          Ez

      C #1    x   -5.671792    0.000000    0.000000
      C #1    y    0.000000   -5.671792    0.000000
      C #1    z    0.000000    0.000000   -5.666638

      O #2    x   -8.328208    0.000000    0.000000
      O #2    y    0.000000   -8.328208    0.000000
      O #2    z    0.000000    0.000000   -8.333362

 Evaluation of 1e integral derivatives required    1.62 seconds.
                    8815  records have been written to the Sort file.
  Total length of Sort file :             180513570  words.
 Evaluation of 2el integral derivatives

                      Two-electron integral gradient
                      ------------------------------

                         C #1 z    -8.3029433559
                         O #2 z     8.3029433559


 C #1       0.0000000000            0.0000000000           -8.3029433559
 O #2       0.0000000000            0.0000000000            8.3029433559


 Evaluation of 2e integral derivatives required  742.44 seconds.

                            Molecular gradient
                            ------------------

                         C #1 z     0.6515013332
                         O #2 z    -0.6515013332


 C #1       0.0000000000            0.0000000000            0.6515013332
 O #2       0.0000000000            0.0000000000           -0.6515013332


  Molecular gradient norm 0.921E+00

                            Molecular hessian
                            -----------------


           Symmetry 1

           C #1 z      O #2 z

 C #1 z   25.618352
 O #2 z  -25.618352   25.618352


           Symmetry 2

           C #1 x      O #2 x

 C #1 x    1.338361
 O #2 x   -1.338361    1.338361


           Symmetry 3

           C #1 y      O #2 y

 C #1 y    1.338361
 O #2 y   -1.338361    1.338361




           C #1 x      C #1 y      C #1 z      O #2 x      O #2 y      O #2 z

 C #1 x    1.338361
 C #1 y    0.000000    1.338361
 C #1 z    0.000000    0.000000   25.618352

 O #2 x   -1.338361    0.000000    0.000000    1.338361
 O #2 y    0.000000   -1.338361    0.000000    0.000000    1.338361
 O #2 z    0.000000    0.000000  -25.618352    0.000000    0.000000   25.618352




                           Total dipole moment
                           -------------------

                               au             Debye

                    z      0.35024148      0.89022521

  Conversion factor used: 1 a.u. =   2.54174691 Debye 



                     Total dipole moment derivatives
                     -------------------------------


           Symmetry 1
                              Ez

               C #1 z     0.64857221
               O #2 z    -0.64857221

           Symmetry 2
                              Ex

               C #1 x     0.13001049
               O #2 x    -0.13001049

           Symmetry 3
                              Ey

               C #1 y     0.13001049
               O #2 y    -0.13001049



                       Ex          Ey          Ez

      C #1    x    0.130010    0.000000    0.000000
      C #1    y    0.000000    0.130010    0.000000
      C #1    z    0.000000    0.000000    0.648572

      O #2    x   -0.130010    0.000000    0.000000
      O #2    y    0.000000   -0.130010    0.000000
      O #2    z    0.000000    0.000000   -0.648572

 @CHECKOUT-I, Total execution time (CPU/WALL):      744.05/     140.57 seconds.
--executable xvdint finished with status     0 in      140.78 seconds (walltime).
 --invoking executable--
/nfs/workspaces/public/cfour_mpi/bin/xjoda
  @GTFLGS-I, Hessian will be transformed to curvilinear coordinates.
  @GTFLGS-I, Hessian will be transformed to curvilinear coordinates.
  igrd and ihes are                      0                     1
  gradient from JOBARC 
   0.000000000000000   0.000000000000000   0.651501333196409
   0.000000000000000   0.000000000000000  -0.651501333196409
 
  @PROJFCM-I, Projecting force constant matrix onto totally symmetric subspace.
  Largest difference between matrix elements of symmetrized
  and unsymmetrized FCM :    -0.6388223284E-12.
  read isotopes from ZMAT file 
 
  Summary of diagonal Born-Oppenheimer correction at the correlated level
  The total diagonal Born-Oppenheimer correction (DBOC) is:      0.0040084193 a.u.
  The total diagonal Born-Oppenheimer correction (DBOC) is:        879.746351 cm-1
  The total diagonal Born-Oppenheimer correction (DBOC) is:            10.524 kJ/mole
  hellooooooo 
  readis is  F
 
 @CHECKOUT-I, Total execution time (CPU/WALL):        0.02/       0.12 seconds.
--executable xjoda finished with status     0 in        0.21 seconds (walltime).
  The final electronic energy is      -113.151417043290863 a.u. 
  This computation required                         4472.63 seconds (walltime).
