 --invoking executable--
/nfs/workspaces/public/cfour_mpi/bin/xjoda


   *************************************************************************
         <<<     CCCCCC     CCCCCC   |||     CCCCCC     CCCCCC   >>>
       <<<      CCC        CCC       |||    CCC        CCC         >>>
      <<<      CCC        CCC        |||   CCC        CCC            >>>
    <<<        CCC        CCC        |||   CCC        CCC              >>>
      <<<      CCC        CCC        |||   CCC        CCC            >>>
       <<<      CCC        CCC       |||    CCC        CCC         >>>
         <<<     CCCCCC     CCCCCC   |||     CCCCCC     CCCCCC   >>>
   *************************************************************************

     ****************************************************************
     * CFOUR Coupled-Cluster techniques for Computational Chemistry *
     ****************************************************************
 

   Department of Chemistry                Institut fuer Physikalische Chemie
   University of Florida                  Universitaet Mainz
   Gainesville, FL 32611, USA             D-55099 Mainz, Germany

   Department of Chemistry                Fakultaet fuer Chemie und Biowiss.
   Johns Hopkins University               Karlsruher Institut fuer Technologie
   Baltimore, MD 21218, USA               D-76131 Karlsruhe, Germany

   Department of Chemistry                Department of Physical Chemistry
   Southern Methodist University          Eotvos Lorand University
   Dallas, TX 75275, USA                  H-1053 Budapest, Hungary

 
                       Version 2.1
 
                     vincent.theory.phys.ucl.ac.uk                     
                     Thu 27 Feb 08:10:05 GMT 2025                      
                     integer*8 version is running
 
********************************************************************************
*                          Input from ZMAT file                                *
********************************************************************************
Carbon Monoxide DBOC calculation                                                
C                                                                               
O 1 r                                                                           
                                                                                
r=1.2724137931034483                                                            
                                                                                
                                                                                
*CFOUR(CALC=CCSD,BASIS=AUG-PCVQZ,SCF_CONV=10                                    
CC_CONV=14,DBOC=ON,MEMORY=500000000                                             
ZFIELD=200)                                                                     
                                                                                
%isotopes                                                                       
13                                                                              
16                                                                              
********************************************************************************
  @GTFLGS-I, Hessian will be transformed to curvilinear coordinates.
    -------------------------------------------------------------------
                    CFOUR Control Parameters 
    -------------------------------------------------------------------
        External           Internal           Value            Units
          Name               Name
    -------------------------------------------------------------------
       ABCDTYPE             IABCDT         STANDARD    [  0]    ***   
       ANHARMONIC           IANHAR         OFF         [  0]    ***   
       ANH_ALGORIT          IANALG         STANDARD    [  0]    ***   
       ANH_DERIVAT          IANDER         SECOND      [  1]    ***   
       ANH_MODE             ANHMOD         VIBRATION   [  0]    ***   
       ANH_STEPSIZ          ICUBST             50000          x 10-6  
       ANH_SYMMETR          IANHSM         ABELIAN     [  0]    ***   
       AO_LADDERS           IAOLAD         SINGLEPASS  [  1]    ***   
       AV_SCF               IAVSCF         OFF         [  0]    ***   
       BASIS                IBASIS         AUG-PCVQZ   [ 52]    ***   
       BOTHVECTORS          BOTHVC         OFF         [  0]    ***   
       BOX_POTENT           IPIAB          OFF         [  0]    ***   
       BREIT                IBREIT         OFF         [  0]    ***   
       BRUCK_CONV           IBRTOL          10D-  4             ***   
       BRUECKNER            IBRKNR         OFF         [  0]    ***   
       BUFFERSIZE           IBUFFS              4096            ***   
       CACHE_RECS           ICHREC             10               ***   
       CALCLEVEL            ICLLVL         CCSD        [ 10]    ***   
       CCORBOPT             ICCORB         OFF         [  0]  x 0.01  
       CC_CONV              ICCCNV          10D- 14             ***   
       CC_EXPORDER          ICCEOR              5               ***   
       CC_EXTRAPOL          ICCEXT         DIIS        [  1]    ***   
       CC_GUESS             ICCGES         MP2         [  0]    ***   
       CC_MAXCYC            ICCCYC            100              cycles 
       CC_PROGRAM           ICCPRO         VCC         [  0]    ***   
       CHARGE               ICHRGE              0               ***   
       CHOLESKY             ICHOLE         OFF         [  0]    ***   
       CIS_CONV             ICISTL              5               ***   
       COMM_SIZE            IPSIZE            ***               ***   
       CONSTANT             ICONST         OLD         [  1]    ***   
       CONTINUUM            ICONTU         NONE        [  0]    ***   
       CONTRACTION          ICNTYP         GENERAL     [  1]    ***   
       COORDINATES          ICOORD         INTERNAL    [  0]    ***   
       CPHF_CONVER          ICPHFT          10D- 16             ***   
       CPHF_MAXCYC          ICPHFC             64              cycles 
       CUBIC                ICUBIC         OFF         [  0]    ***   
       CURVILINEAR          ICURVY         ON          [  1]    ***   
       DBOC                 IDBOC          ON          [  1]    ***   
       DCT                  IDCT           OFF         [  0]    ***   
       DERIV_LEV            IDRLVL         SECOND      [  2]    ***   
       DEVMEM_SIZE          IDVMEM          50000000           MByte  
       DIAG_MRCC            IEOMST          10D-  0             ***   
       DIFF_TYPE            IDIFTY         RELAXED     [  0]    ***   
       DIRECT               IDIRCT         OFF         [  0]    ***   
       DROPMO               IDRPMO      NONE         
       ECP                  IECP           OFF         [  0]    ***   
       EIGENVECTOR          IVEC                1               ***   
       EL_ANHARM            IELANH         OFF         [  0]    ***   
       EOMFOLLOW            IEOMSR         ENERGY      [  0]    ***   
       EOMIP                IEOMIP         OFF         [  0]    ***   
       EOMLEVEL             HBARFM         SAME        [  0]    ***   
       EOM_MRCC             IMRCCE         NEW         [  1]    ***   
       EOM_NONIT            EOMNON         OFF         [  0]    ***   
       EOM_NSING            IEOMSI          10D-  0             ***   
       EOM_NSTATES          IMRCCD         DAVIDSON    [  0]    ***   
       EOM_NTRIP            IEOMTR          10D-  0             ***   
       EOM_ORDER            IEXORD         ENERGY      [  0]    ***   
       EOM_PROPSTA          IEOMST              0               ***   
       ESTATE_CONV          IEXTOL          10D-  5             ***   
       ESTATE_DIAG          IEXDIG         ITERATIVE   [  0]    ***   
       ESTATE_LOCK          IESLOC         ON          [  1]    ***   
       ESTATE_MAXC          IEXMXC             40               ***   
       ESTATE_PROP          IEXPRP         OFF         [  0]    ***   
       EVAL_HESS            IRECAL              0            # of cyc.
       EXCITATION           IEXCIT              0               ***   
       EXCITE               IEXCIT         NONE        [  0]    ***   
       EXTERN_POT           IEXPOT         OFF         [  0]    ***   
       FCGRADNEW            IFCGNW         OFF         [  0]    ***   
       FC_FIELD             IFINFC              0             x 10-6  
       FD_CALTYPE           IFDCAL         GRADONLY    [  0]    ***   
       FD_PROJECT           IFDPRJ         OFF         [  1]    ***   
       FD_STEPSIZE          IDISFD              0            10-4 bohr
       FD_USEGROUP          IFDGRP         FULL        [  0]    ***   
       FILE_RECSIZ          IFLREC              4096           words  
       FINITE_PERT          IFIPER              0             x 10-6  
       FIXGEOM              IFIXGM         OFF         [  0]    ***   
       FOCK                 IFOCK          AO          [  1]    ***   
       FREQ_ALGORI          IVIALG         STANDARD    [  0]    ***   
       FROZEN_CORE          IFROCO         OFF         [  0]    ***   
       GAMMA_ABCD           IGABCD         STORE       [  0]    ***   
       GAMMA_ABCI           IGABCI         STORE       [  0]    ***   
       GENBAS_1             IGNBS1              0               ***   
       GENBAS_2             IGNBS2              0               ***   
       GENBAS_3             IGNBS3              0               ***   
       GENBAS_4             IGNBS4              0               ***   
       GEO_CONV             ICONTL              5              H/bohr 
       GEO_MAXCYC           IOPTCY             50               ***   
       GEO_MAXSTEP          IMXSTP            300            millibohr
       GEO_METHOD           INR            SINGLE_POINT[  5]    ***   
       GIAO                 IGIAO          OFF         [  1]    ***   
       GIMIC                IGIMIC         OFF         [  0]    ***   
       GRID                 IGRID          OFF         [  0]    ***   
       GRID_ALGO            IGALGO         SERIAL      [  0]    ***   
       GUESS                IGUESS         MOREAD      [  0]    ***   
       HBAR                 IHBAR          OFF         [  0]    ***   
       HESS_TYPE            IHESTP         SCF         [  0]    ***   
       HF2_FILE             IHF2Fl         USE         [  1]    ***   
       HFSTABILITY          ISTABL         OFF         [  0]    ***   
       INCORE               INCORE         OFF         [  0]    ***   
       INPUT_MRCC           IMRCC          ON          [  1]    ***   
       INTEGRALS            INTTYP         VMOL        [  1]    ***   
       JODA_PRINT           IJPRNT              0               ***   
       KEYWORD_OUT          IDMPKW         NO          [  0]    ***   
       LINDEP_TOL           ILINDP              8               ***   
       LINEQ_CONV           IZTACN          10D-  7           cycles  
       LINEQ_EXPOR          ILMAXD              5               ***   
       LINEQ_MAXCY          ILMAXC            100               ***   
       LINEQ_TYPE           ILTYPE         DIIS        [  1]    ***   
       LOCK_ORBOCC          ILOCOC         OFF         [  0]    ***   
       MEMORY_SIZE          IMEMSZ         500000000           words  
       MEM_UNIT             IMEMU          INTEGERWORDS[  0]    ***   
       MRCC                 IMRCCC         OFF         [  0]    ***   
       MULTIPLICTY          IMULTP              1               ***   
       NACOUPLING           IVCOUP         OFF         [  0]    ***   
       NEGEVAL              IDIE           ABORT       [  0]    ***   
       NEWNORM              INEWNO         OFF         [  0]    ***   
       NON-HF               INONHF         OFF         [  0]    ***   
       NTOP_TAMP            ITOPT2             15               ***   
       NUC_MODEL            INUCMO         POINT       [  0]    ***   
       OCCUPATION           IOCCU   ESTIMATED BY SCF 
       OPEN-SHELL           IOPEN          SPIN-ORBITAL[  0]    ***   
       OPTVIB               IOPTVB         OFF         [  0]    ***   
       ORBITALS             IORBTP         STANDARD    [  0]    ***   
       PARALLEL             IPARAL         ON          [  1]    ***   
       PARA_INT             IPINTS         ON          [  1]    ***   
       PARA_PRINT           IPPRIN              0               ***   
       PERT_ORB             IPTORB         STANDARD    [  0]    ***   
       POINTS               IGRDFD              0               ***   
       PRINT                IPRNT               0               ***   
       PROPS                IPROPS         OFF         [  0]    ***   
       PROP_INTEGR          IINTYP         INTERNAL    [  0]    ***   
       PSI                  IPSI           OFF         [  0]    ***   
       QC_ALG               IQCALG         FLM         [  0]    ***   
       QC_LINALG            IQCLIN         TRIDIAG     [  2]    ***   
       QC_MAXCYC            IQCMAX          10D-100           cycles  
       QC_MAXSCFCY          IQCMSC          10D- 15           cycles  
       QC_RTRUST            IQCRTR          10D-  0           x 10-3  
       QC_SKIPSCF           IQCSKI         OFF         [  0]    ***   
       QC_START             IQCSTA          10D-  1             ***   
       QRHFGUESS            IQGUES         OFF         [  0]    ***   
       QUARTIC              IQUART         OFF         [  0]    ***   
       RAMAN_INT            IRAMIN         OFF         [  0]    ***   
       RAMAN_ORB            IRAMRE         UNRELAXED   [  0]    ***   
       RDO                  IRDOFM         ON          [  1]    ***   
       REDUCE_REPR          REDREP         Ir          [  0]    ***   
       REFERENCE            IREFNC         RHF         [  0]    ***   
       RELATIVIST           IRELAT         OFF         [  0]    ***   
       RELAX_DENS           IRDENS         ON          [  1]    ***   
       RESET_FLAGS          IRESET         OFF         [  0]    ***   
       RESTART_CC           ICCRES         OFF         [  0]    ***   
       ROT_EVEC             ROTVEC              0               ***   
       SAVE_INTS            ISVINT         OFF         [  0]    ***   
       SCALE_ON             ISTCRT              0               ***   
       SCF_CONV             ISCFCV          10D- 10             ***   
       SCF_DAMPING          IDAMP               0             x 10-3  
       SCF_EXPORDE          IRPPOR              6               ***   
       SCF_EXPSTAR          IRPPLS              8               ***   
       SCF_EXTRAPO          IRPP           ON          [  1]    ***   
       SCF_MAXCYC           ISCFCY            150              cycles 
       SCF_NOSTOP           ISCFST         OFF         [  0]    ***   
       SCF_PRINT            ISCFPR              0               ***   
       SCF_PROG             ISCFPR         SCF         [  0]    ***   
       SD_FIELD             IFINSD              0             x 10-6  
       SOPERT               IPERSO         OFF         [  0]    ***   
       SPHERICAL            IDFGHI         ON          [  1]    ***   
       SPINORBIT            ISOCAL         OFF         [  0]    ***   
       SPINROTATIO          ISRCON         OFF         [  0]    ***   
       SPIN_FLIP            ISPFLP         OFF         [  0]    ***   
       SPIN_ORBIT           ISPORB         OFF         [  0]    ***   
       SPIN_SCAL            ISCSMP         OFF         [  0]    ***   
       STEEPSCALE           ISTPSC              1000          x 10-3  
       SUBGROUP             ISUBGP         DEFAULT     [  0]    ***   
       SUBGRPAXIS           ISBXYZ         X           [  0]    ***   
       SYMMETRY             ISYM           ON          [  0]    ***   
       SYM_CHECK            ISYMCK         OVERRIDE    [  1]    ***   
       T3_EXTRAPOL          IT3EXT         OFF         [  0]    ***   
       T4_EXTRAPOL          IT4EXP         OFF         [  0]    ***   
       TAMP_SUM             IEVERY              5               ***   
       TESTSUITE            ITESTS         OFF         [  0]    ***   
       THERMOCH             ITHERM         OFF         [  0]    ***   
       TOL_CHOLESK          ITOLCH          10D-  4             ***   
       TRANGRAD             IRESRM         OFF         [  0]    ***   
       TRANS_INV            ITRAIN         IGNORE      [  1]    ***   
       TREAT_PERT           ITREAT         SIMULTANEOUS[  0]    ***   
       TRIP_ALGORI          ITRALG         NORMAL      [  0]    ***   
       UIJ_THRESHO          IUIJTH              1               ***   
       UNITS                IUNITS         ANGSTROM    [  0]    ***   
       UNOS                 IUNOS          OFF         [  0]    ***   
       UPDATE_HESS          IHUPDT         ON          [  1]    ***   
       VIBPHASE             ISETPH         STANDARD    [  0]    ***   
       VIBRATION            IVIB           ANALYTIC    [  1]    ***   
       VIB_ALGORIT          IGEALG         STANDARD    [  0]    ***   
       VNATORB              IVNORB         OFF         [  0]    ***   
       VTRAN                IVTRAN         FULL/PARTIAL[  0]    ***   
       XFIELD               IXEFLD              0             x 10-6  
       XFORM_TOL            IXFTOL          10D- 11             ***   
       YFIELD               IYEFLD              0             x 10-6  
       ZFIELD               IZEFLD            200             x 10-6  
       ZSCALE_EXP           IZEXPS         OFF         [  0]    ***   
    -------------------------------------------------------------------
   2 entries found in Z-matrix 
   Job Title : Carbon Monoxide DBOC calculation                                                
   There are  1 unique internal coordinates.
   Of these,  0 will be optimized.
   User supplied Z-matrix: 
--------------------------------------------------------------------------------
       SYMBOL    BOND      LENGTH    ANGLE     ANGLE     DIHED     ANGLE
                  TO      (ANGST)    WRT      (DEG)      WRT      (DEG)
--------------------------------------------------------------------------------
        C    
        O          1         r    
                  *Initial values for internal coordinates* 
                      Name             Value
                        r               1.2724137931
--------------------------------------------------------------------------------
  read isotopes from ZMAT file 
   Rotational constants (in cm-1): 
          1.4516922551             1.4516922551
   Rotational constants (in MHz): 
      43520.6450384514         43520.6450384514
********************************************************************************
   The full molecular point group is CXv .
   The largest Abelian subgroup of the full molecular point group is C2v .
   The computational point group is C2v .
********************************************************************************
--------------------------------------------------------------------------------
   Analysis of internal coordinates specified by Z-matrix 
--------------------------------------------------------------------------------
   *The nuclear repulsion energy is   19.962453203252029 a.u.
   *There is   1 degree of freedom within the tot. symm. molecular subspace.
   *Z-matrix requests optimization of   0 coordinates.
   *The optimization is constrained.
   *The following   1 parameters can have non-zero 
    derivatives within the totally symmetric subspace:
             r    [ 1]
   *The following   0 parameters are to be optimized:

   *The following coordinates must be varied in an  unconstrained optimization.
             r    [ 1]
--------------------------------------------------------------------------------


 ----------------------------------------------------------------
         Coordinates used in calculation (QCOMP) 
 ----------------------------------------------------------------
 Z-matrix   Atomic            Coordinates (in bohr)
  Symbol    Number           X              Y              Z
 ----------------------------------------------------------------
     C         6        -0.00000000     0.00000000     1.32628596
     O         8         0.00000000     0.00000000    -1.07822813
 ----------------------------------------------------------------
 
   Interatomic distance matrix (Angstroms) 
 
                 C             O    
                [ 1]        [ 2]
  C    [ 1]     0.00000
  O    [ 2]     1.27241     0.00000
 rotcon2
   Rotational constants (in cm-1): 
          1.4516922551             0.0000000000
   Rotational constants (in MHz): 
      43520.6450384514             0.0000000000
  ECPDATA file not present.   Using default ECPDATA. 
  @GTFLGS-I, Hessian will be transformed to curvilinear coordinates.
  There are  218 basis functions.
 @CHECKOUT-I, Total execution time (CPU/WALL):        0.12/       0.15 seconds.
--executable xjoda finished with status     0 in        0.18 seconds (walltime).
 --invoking executable--
/nfs/workspaces/public/cfour_mpi/bin/xvmol
 SERIAL VERSION OF MOLECULE STARTED
********************************************************************************
                    INPUT FROM MOL FILE
********************************************************************************
INTGRL        1    0    1    0    0    0    0    0    0                         
         *** CFOUR Program System (Release V0.1) ***                            
Carbon Monoxide DBOC calculation                                                
    2    2 X  Y       0.10E-08              0    0                              
   9999.00      3.00                                                            
          6.00000000    1    5    1    1    1    1    1                         
C #1  -0.000000000000000   0.000000000000000   1.326285958408410                
   16    9                                                                      
   33980.0000000000       9.100000000000000E-005 -1.900000000000000E-005        
  0.000000000000000E+000  0.000000000000000E+000  0.000000000000000E+000        
  0.000000000000000E+000  0.000000000000000E+000  0.000000000000000E+000        
  0.000000000000000E+000                                                        
   5089.00000000000       7.040000000000000E-004 -1.510000000000000E-004        
  0.000000000000000E+000  0.000000000000000E+000  0.000000000000000E+000        
  0.000000000000000E+000  0.000000000000000E+000  0.000000000000000E+000        
  0.000000000000000E+000                                                        
   1157.00000000000       3.693000000000000E-003 -7.850000000000000E-004        
  0.000000000000000E+000  0.000000000000000E+000  0.000000000000000E+000        
  0.000000000000000E+000  0.000000000000000E+000  0.000000000000000E+000        
  0.000000000000000E+000                                                        
   326.600000000000       1.536000000000000E-002 -3.324000000000000E-003        
  0.000000000000000E+000  0.000000000000000E+000  0.000000000000000E+000        
  0.000000000000000E+000  0.000000000000000E+000  0.000000000000000E+000        
  0.000000000000000E+000                                                        
   106.100000000000       5.292900000000000E-002 -1.151200000000000E-002        
  0.000000000000000E+000  0.000000000000000E+000  0.000000000000000E+000        
  0.000000000000000E+000  0.000000000000000E+000  0.000000000000000E+000        
  0.000000000000000E+000                                                        
   38.1100000000000       0.147043000000000      -3.416000000000000E-002        
  0.000000000000000E+000  0.000000000000000E+000  0.000000000000000E+000        
  0.000000000000000E+000  0.000000000000000E+000  0.000000000000000E+000        
  0.000000000000000E+000                                                        
   14.7500000000000       0.305631000000000      -7.717300000000001E-002        
  0.000000000000000E+000  0.000000000000000E+000  0.000000000000000E+000        
  0.000000000000000E+000  0.000000000000000E+000  0.000000000000000E+000        
  0.000000000000000E+000                                                        
   6.03500000000000       0.399345000000000      -0.141493000000000             
  0.000000000000000E+000  0.000000000000000E+000  0.000000000000000E+000        
  0.000000000000000E+000  0.000000000000000E+000  0.000000000000000E+000        
  0.000000000000000E+000                                                        
   2.53000000000000       0.217051000000000      -0.118019000000000             
  0.000000000000000E+000  0.000000000000000E+000  0.000000000000000E+000        
  0.000000000000000E+000  0.000000000000000E+000  0.000000000000000E+000        
  0.000000000000000E+000                                                        
  0.735500000000000       1.589400000000000E-002  0.273806000000000             
   1.00000000000000       0.000000000000000E+000  0.000000000000000E+000        
  0.000000000000000E+000  0.000000000000000E+000  0.000000000000000E+000        
  0.000000000000000E+000                                                        
  0.290500000000000      -3.084000000000000E-003  0.586510000000000             
  0.000000000000000E+000   1.00000000000000       0.000000000000000E+000        
  0.000000000000000E+000  0.000000000000000E+000  0.000000000000000E+000        
  0.000000000000000E+000                                                        
  0.111100000000000       9.779999999999999E-004  0.285430000000000             
  0.000000000000000E+000  0.000000000000000E+000   1.00000000000000             
  0.000000000000000E+000  0.000000000000000E+000  0.000000000000000E+000        
  0.000000000000000E+000                                                        
   7.21600000000000       0.000000000000000E+000  0.000000000000000E+000        
  0.000000000000000E+000  0.000000000000000E+000  0.000000000000000E+000        
   1.00000000000000       0.000000000000000E+000  0.000000000000000E+000        
  0.000000000000000E+000                                                        
   19.5700000000000       0.000000000000000E+000  0.000000000000000E+000        
  0.000000000000000E+000  0.000000000000000E+000  0.000000000000000E+000        
  0.000000000000000E+000   1.00000000000000       0.000000000000000E+000        
  0.000000000000000E+000                                                        
   53.0730000000000       0.000000000000000E+000  0.000000000000000E+000        
  0.000000000000000E+000  0.000000000000000E+000  0.000000000000000E+000        
  0.000000000000000E+000  0.000000000000000E+000   1.00000000000000             
  0.000000000000000E+000                                                        
  4.145000000000000E-002  0.000000000000000E+000  0.000000000000000E+000        
  0.000000000000000E+000  0.000000000000000E+000  0.000000000000000E+000        
  0.000000000000000E+000  0.000000000000000E+000  0.000000000000000E+000        
   1.00000000000000                                                             
   10    8                                                                      
   34.5100000000000       5.378000000000000E-003  0.000000000000000E+000        
  0.000000000000000E+000  0.000000000000000E+000  0.000000000000000E+000        
  0.000000000000000E+000  0.000000000000000E+000  0.000000000000000E+000        
   7.91500000000000       3.613200000000000E-002  0.000000000000000E+000        
  0.000000000000000E+000  0.000000000000000E+000  0.000000000000000E+000        
  0.000000000000000E+000  0.000000000000000E+000  0.000000000000000E+000        
   2.36800000000000       0.142493000000000       0.000000000000000E+000        
  0.000000000000000E+000  0.000000000000000E+000  0.000000000000000E+000        
  0.000000000000000E+000  0.000000000000000E+000  0.000000000000000E+000        
  0.813200000000000       0.342150000000000        1.00000000000000             
  0.000000000000000E+000  0.000000000000000E+000  0.000000000000000E+000        
  0.000000000000000E+000  0.000000000000000E+000  0.000000000000000E+000        
  0.289000000000000       0.463864000000000       0.000000000000000E+000        
   1.00000000000000       0.000000000000000E+000  0.000000000000000E+000        
  0.000000000000000E+000  0.000000000000000E+000  0.000000000000000E+000        
  0.100700000000000       0.250028000000000       0.000000000000000E+000        
  0.000000000000000E+000   1.00000000000000       0.000000000000000E+000        
  0.000000000000000E+000  0.000000000000000E+000  0.000000000000000E+000        
   8.18200000000000       0.000000000000000E+000  0.000000000000000E+000        
  0.000000000000000E+000  0.000000000000000E+000   1.00000000000000             
  0.000000000000000E+000  0.000000000000000E+000  0.000000000000000E+000        
   24.1860000000000       0.000000000000000E+000  0.000000000000000E+000        
  0.000000000000000E+000  0.000000000000000E+000  0.000000000000000E+000        
   1.00000000000000       0.000000000000000E+000  0.000000000000000E+000        
   71.4940000000000       0.000000000000000E+000  0.000000000000000E+000        
  0.000000000000000E+000  0.000000000000000E+000  0.000000000000000E+000        
  0.000000000000000E+000   1.00000000000000       0.000000000000000E+000        
  3.218000000000000E-002  0.000000000000000E+000  0.000000000000000E+000        
  0.000000000000000E+000  0.000000000000000E+000  0.000000000000000E+000        
  0.000000000000000E+000  0.000000000000000E+000   1.00000000000000             
    6    6                                                                      
   1.84800000000000        1.00000000000000       0.000000000000000E+000        
  0.000000000000000E+000  0.000000000000000E+000  0.000000000000000E+000        
  0.000000000000000E+000                                                        
  0.649000000000000       0.000000000000000E+000   1.00000000000000             
  0.000000000000000E+000  0.000000000000000E+000  0.000000000000000E+000        
  0.000000000000000E+000                                                        
  0.228000000000000       0.000000000000000E+000  0.000000000000000E+000        
   1.00000000000000       0.000000000000000E+000  0.000000000000000E+000        
  0.000000000000000E+000                                                        
   8.65600000000000       0.000000000000000E+000  0.000000000000000E+000        
  0.000000000000000E+000   1.00000000000000       0.000000000000000E+000        
  0.000000000000000E+000                                                        
   33.2130000000000       0.000000000000000E+000  0.000000000000000E+000        
  0.000000000000000E+000  0.000000000000000E+000   1.00000000000000             
  0.000000000000000E+000                                                        
  7.660000000000000E-002  0.000000000000000E+000  0.000000000000000E+000        
  0.000000000000000E+000  0.000000000000000E+000  0.000000000000000E+000        
   1.00000000000000                                                             
    4    4                                                                      
   1.41900000000000        1.00000000000000       0.000000000000000E+000        
  0.000000000000000E+000  0.000000000000000E+000                                
  0.485000000000000       0.000000000000000E+000   1.00000000000000             
  0.000000000000000E+000  0.000000000000000E+000                                
   24.6940000000000       0.000000000000000E+000  0.000000000000000E+000        
   1.00000000000000       0.000000000000000E+000                                
  0.187000000000000       0.000000000000000E+000  0.000000000000000E+000        
  0.000000000000000E+000   1.00000000000000                                     
    2    2                                                                      
   1.01100000000000        1.00000000000000       0.000000000000000E+000        
  0.424000000000000       0.000000000000000E+000   1.00000000000000             
          8.00000000    1    5    1    1    1    1    1                         
O #2   0.000000000000000   0.000000000000000  -1.078228131682503                
   16    9                                                                      
   61420.0000000000       9.000000000000001E-005 -2.000000000000000E-005        
  0.000000000000000E+000  0.000000000000000E+000  0.000000000000000E+000        
  0.000000000000000E+000  0.000000000000000E+000  0.000000000000000E+000        
  0.000000000000000E+000                                                        
   9199.00000000000       6.980000000000001E-004 -1.590000000000000E-004        
  0.000000000000000E+000  0.000000000000000E+000  0.000000000000000E+000        
  0.000000000000000E+000  0.000000000000000E+000  0.000000000000000E+000        
  0.000000000000000E+000                                                        
   2091.00000000000       3.664000000000000E-003 -8.290000000000000E-004        
  0.000000000000000E+000  0.000000000000000E+000  0.000000000000000E+000        
  0.000000000000000E+000  0.000000000000000E+000  0.000000000000000E+000        
  0.000000000000000E+000                                                        
   590.900000000000       1.521800000000000E-002 -3.508000000000000E-003        
  0.000000000000000E+000  0.000000000000000E+000  0.000000000000000E+000        
  0.000000000000000E+000  0.000000000000000E+000  0.000000000000000E+000        
  0.000000000000000E+000                                                        
   192.300000000000       5.242300000000000E-002 -1.215600000000000E-002        
  0.000000000000000E+000  0.000000000000000E+000  0.000000000000000E+000        
  0.000000000000000E+000  0.000000000000000E+000  0.000000000000000E+000        
  0.000000000000000E+000                                                        
   69.3200000000000       0.145921000000000      -3.626100000000000E-002        
  0.000000000000000E+000  0.000000000000000E+000  0.000000000000000E+000        
  0.000000000000000E+000  0.000000000000000E+000  0.000000000000000E+000        
  0.000000000000000E+000                                                        
   26.9700000000000       0.305258000000000      -8.299200000000000E-002        
  0.000000000000000E+000  0.000000000000000E+000  0.000000000000000E+000        
  0.000000000000000E+000  0.000000000000000E+000  0.000000000000000E+000        
  0.000000000000000E+000                                                        
   11.1000000000000       0.398508000000000      -0.152090000000000             
  0.000000000000000E+000  0.000000000000000E+000  0.000000000000000E+000        
  0.000000000000000E+000  0.000000000000000E+000  0.000000000000000E+000        
  0.000000000000000E+000                                                        
   4.68200000000000       0.216980000000000      -0.115331000000000             
  0.000000000000000E+000  0.000000000000000E+000  0.000000000000000E+000        
  0.000000000000000E+000  0.000000000000000E+000  0.000000000000000E+000        
  0.000000000000000E+000                                                        
   1.42800000000000       1.759400000000000E-002  0.288979000000000             
   1.00000000000000       0.000000000000000E+000  0.000000000000000E+000        
  0.000000000000000E+000  0.000000000000000E+000  0.000000000000000E+000        
  0.000000000000000E+000                                                        
  0.554700000000000      -2.502000000000000E-003  0.586128000000000             
  0.000000000000000E+000   1.00000000000000       0.000000000000000E+000        
  0.000000000000000E+000  0.000000000000000E+000  0.000000000000000E+000        
  0.000000000000000E+000                                                        
  0.206700000000000       9.540000000000000E-004  0.277624000000000             
  0.000000000000000E+000  0.000000000000000E+000   1.00000000000000             
  0.000000000000000E+000  0.000000000000000E+000  0.000000000000000E+000        
  0.000000000000000E+000                                                        
   12.9740000000000       0.000000000000000E+000  0.000000000000000E+000        
  0.000000000000000E+000  0.000000000000000E+000  0.000000000000000E+000        
   1.00000000000000       0.000000000000000E+000  0.000000000000000E+000        
  0.000000000000000E+000                                                        
   34.9000000000000       0.000000000000000E+000  0.000000000000000E+000        
  0.000000000000000E+000  0.000000000000000E+000  0.000000000000000E+000        
  0.000000000000000E+000   1.00000000000000       0.000000000000000E+000        
  0.000000000000000E+000                                                        
   93.8810000000000       0.000000000000000E+000  0.000000000000000E+000        
  0.000000000000000E+000  0.000000000000000E+000  0.000000000000000E+000        
  0.000000000000000E+000  0.000000000000000E+000   1.00000000000000             
  0.000000000000000E+000                                                        
  6.959000000000000E-002  0.000000000000000E+000  0.000000000000000E+000        
  0.000000000000000E+000  0.000000000000000E+000  0.000000000000000E+000        
  0.000000000000000E+000  0.000000000000000E+000  0.000000000000000E+000        
   1.00000000000000                                                             
   10    8                                                                      
   63.4200000000000       6.044000000000000E-003  0.000000000000000E+000        
  0.000000000000000E+000  0.000000000000000E+000  0.000000000000000E+000        
  0.000000000000000E+000  0.000000000000000E+000  0.000000000000000E+000        
   14.6600000000000       4.179900000000000E-002  0.000000000000000E+000        
  0.000000000000000E+000  0.000000000000000E+000  0.000000000000000E+000        
  0.000000000000000E+000  0.000000000000000E+000  0.000000000000000E+000        
   4.45900000000000       0.161143000000000       0.000000000000000E+000        
  0.000000000000000E+000  0.000000000000000E+000  0.000000000000000E+000        
  0.000000000000000E+000  0.000000000000000E+000  0.000000000000000E+000        
   1.53100000000000       0.356731000000000        1.00000000000000             
  0.000000000000000E+000  0.000000000000000E+000  0.000000000000000E+000        
  0.000000000000000E+000  0.000000000000000E+000  0.000000000000000E+000        
  0.530200000000000       0.448309000000000       0.000000000000000E+000        
   1.00000000000000       0.000000000000000E+000  0.000000000000000E+000        
  0.000000000000000E+000  0.000000000000000E+000  0.000000000000000E+000        
  0.175000000000000       0.244940000000000       0.000000000000000E+000        
  0.000000000000000E+000   1.00000000000000       0.000000000000000E+000        
  0.000000000000000E+000  0.000000000000000E+000  0.000000000000000E+000        
   14.4750000000000       0.000000000000000E+000  0.000000000000000E+000        
  0.000000000000000E+000  0.000000000000000E+000   1.00000000000000             
  0.000000000000000E+000  0.000000000000000E+000  0.000000000000000E+000        
   42.7300000000000       0.000000000000000E+000  0.000000000000000E+000        
  0.000000000000000E+000  0.000000000000000E+000  0.000000000000000E+000        
   1.00000000000000       0.000000000000000E+000  0.000000000000000E+000        
   126.140000000000       0.000000000000000E+000  0.000000000000000E+000        
  0.000000000000000E+000  0.000000000000000E+000  0.000000000000000E+000        
  0.000000000000000E+000   1.00000000000000       0.000000000000000E+000        
  5.348000000000000E-002  0.000000000000000E+000  0.000000000000000E+000        
  0.000000000000000E+000  0.000000000000000E+000  0.000000000000000E+000        
  0.000000000000000E+000  0.000000000000000E+000   1.00000000000000             
    6    6                                                                      
   3.77500000000000        1.00000000000000       0.000000000000000E+000        
  0.000000000000000E+000  0.000000000000000E+000  0.000000000000000E+000        
  0.000000000000000E+000                                                        
   1.30000000000000       0.000000000000000E+000   1.00000000000000             
  0.000000000000000E+000  0.000000000000000E+000  0.000000000000000E+000        
  0.000000000000000E+000                                                        
  0.444000000000000       0.000000000000000E+000  0.000000000000000E+000        
   1.00000000000000       0.000000000000000E+000  0.000000000000000E+000        
  0.000000000000000E+000                                                        
   14.9270000000000       0.000000000000000E+000  0.000000000000000E+000        
  0.000000000000000E+000   1.00000000000000       0.000000000000000E+000        
  0.000000000000000E+000                                                        
   57.5440000000000       0.000000000000000E+000  0.000000000000000E+000        
  0.000000000000000E+000  0.000000000000000E+000   1.00000000000000             
  0.000000000000000E+000                                                        
  0.154000000000000       0.000000000000000E+000  0.000000000000000E+000        
  0.000000000000000E+000  0.000000000000000E+000  0.000000000000000E+000        
   1.00000000000000                                                             
    4    4                                                                      
   2.66600000000000        1.00000000000000       0.000000000000000E+000        
  0.000000000000000E+000  0.000000000000000E+000                                
  0.859000000000000       0.000000000000000E+000   1.00000000000000             
  0.000000000000000E+000  0.000000000000000E+000                                
   26.4830000000000       0.000000000000000E+000  0.000000000000000E+000        
   1.00000000000000       0.000000000000000E+000                                
  0.324000000000000       0.000000000000000E+000  0.000000000000000E+000        
  0.000000000000000E+000   1.00000000000000                                     
    2    2                                                                      
   1.84600000000000        1.00000000000000       0.000000000000000E+000        
  0.714000000000000       0.000000000000000E+000   1.00000000000000             
FINISH                                                                          
 
********************************************************************************
 ONE- AND TWO-ELECTRON INTEGRALS OVER SYMMETRY-ADAPTED AOS ARE CALCULATED.

  SPHERICAL HARMONICS ARE USED.
  
  INTEGRALS LESS THAN  0.10E-13 ARE NEGLECTED.

  NUCLEAR REPULSION ENERGY :   19.9624532033 A.U.
  @MOLECU-I, ONE ELECTRON INTEGRALS (CPU/WALL):        0.06/       0.06 SECONDS.
  @TWOEL-I,    4537949 INTEGRALS OF SYMMETRY TYPE  I I I I
  @TWOEL-I,   19512841 INTEGRALS OF SYMMETRY TYPE  I J I J
  @TWOEL-I,   10281767 INTEGRALS OF SYMMETRY TYPE  I I J J
  @TWOEL-I,   14441701 INTEGRALS OF SYMMETRY TYPE  I J K L
  @TWOEL-I, TOTAL NUMBER OF 2-E INTEGRALS   48774258.
  @MOLECU-I, TWO ELECTRON INTEGRALS (CPU/WALL):      146.90/      20.88 SECONDS.
 @CHECKOUT-I, Total execution time (CPU/WALL):      146.99/      20.96 seconds.

Running with 14 threads/proc

--executable xvmol finished with status     0 in       20.99 seconds (walltime).
 --invoking executable--
/nfs/workspaces/public/cfour_mpi/bin/xvmol2ja
 @GETMEM-I,  Allocated    3814 MB of main memory.
 @CHECKOUT-I, Total execution time (CPU/WALL):        0.14/       0.03 seconds.
--executable xvmol2ja finished with status     0 in        0.05 seconds (walltime).
 --invoking executable--
/nfs/workspaces/public/cfour_mpi/bin/xvprop
 @GETMEM-I,  Allocated    3814 MB of main memory.
   Property integrals will be calculated.
    --------------------------------------------------------------
                                   Property evaluated at 
    Property type                X             Y             Z
    --------------------------------------------------------------
    Dipole moment               ----          ----          ----  
    Quadrupole moment           ----          ----          ----  
    Octopole moment             ----          ----          ----  
    Relativisitic corr.         ----          ----          ----  
    Second moment            0.0000000     0.0000000     0.0000000
    Electron density         0.0000000     0.0000000     1.3262860
    Electron density         0.0000000     0.0000000    -1.0782281
    Field gradient           0.0000000     0.0000000     1.3262860
    Field gradient           0.0000000     0.0000000    -1.0782281
    Potential                0.0000000     0.0000000     1.3262860
    Potential                0.0000000     0.0000000    -1.0782281
    --------------------------------------------------------------
 @CHECKOUT-I, Total execution time (CPU/WALL):        1.31/       1.31 seconds.
--executable xvprop finished with status     0 in        1.33 seconds (walltime).
 --invoking executable--
/nfs/workspaces/public/cfour_mpi/bin/xvscf
  There are  218 functions in the AO basis.

  There are 4 irreducible representations.

       Irrep        # of functions
         1                 86
         2                 52
         3                 52
         4                 28


  Parameters for SCF calculation: 
        SCF reference function:  RHF  
  Maximum number of iterations:  150
     Full symmetry point group: CXv 
     Computational point group: C2v 
        Initial density matrix: MOREAD                 
     SCF convergence tolerance: 10**(-10)
  DIIS convergence acceleration:  ON
          Latest start for DIIS:   8
                     DIIS order:   6

  Memory information:    2523578 words required.
  Fock matrices are constructed from AO integral file.
 @GETMEM-I,  Allocated      19 MB of main memory.
  Initialization and symmetry analysis required      0.002 seconds.

  Adding electric field perturbation to one-electron Hamiltonian.
  Field direction     : Z
  Field strength      :  0.0002000 a.u.

  @INITGES-I, Occupancies from core Hamiltonian:

          Alpha population by irrep:   5    1    1    0
           Beta population by irrep:   5    1    1    0


 total no. of electrons in initial guess :  0.000000000000000E+000
  --------------------------------------------------------------------
  Iteration         Total Energy            Largest Density Difference
  --------------------------------------------------------------------
       0            19.962586825112297              0.0000000000D+00
   current occupation vector 
     5  1  1  0
     5  1  1  0
       1           -92.679202288930156              0.1801229811D+02
   current occupation vector 
     5  1  1  0
     5  1  1  0
       2           -98.191371579990161              0.1800821318D+02
   current occupation vector 
     5  1  1  0
     5  1  1  0
       3          -103.521102893030971              0.7903430668D+01
   current occupation vector 
     5  1  1  0
     5  1  1  0
       4           -99.555817038936851              0.7142015983D+01
   current occupation vector 
     5  1  1  0
     5  1  1  0
       5          -102.120154847585624              0.5970407135D+01
   current occupation vector 
     5  1  1  0
     5  1  1  0
       6           -98.540658374811542              0.5939548361D+01
   current occupation vector 
     5  1  1  0
     5  1  1  0
       7          -102.135905583890718              0.6142852433D+01
   current occupation vector 
     5  1  1  0
     5  1  1  0
       8           -98.444142015276782              0.6140339932D+01
   current occupation vector 
     5  1  1  0
     5  1  1  0
       9          -109.438814491290046              0.4623747711D+01
   current occupation vector 
     5  1  1  0
     5  1  1  0
      10          -111.470299928464854              0.1128527701D+01
   current occupation vector 
     5  1  1  0
     5  1  1  0
      11          -112.642421769747912              0.7768965818D+00
   current occupation vector 
     5  1  1  0
     5  1  1  0
      12          -112.734208713704774              0.2842872506D+00
   current occupation vector 
     5  1  1  0
     5  1  1  0
      13          -112.735827923236755              0.4462474864D-01
   current occupation vector 
     5  1  1  0
     5  1  1  0
      14          -112.736024907897800              0.1635020702D-01
   current occupation vector 
     5  1  1  0
     5  1  1  0
      15          -112.736058494744427              0.1069398025D-01
   current occupation vector 
     5  1  1  0
     5  1  1  0
      16          -112.736058973429678              0.9740673892D-03
   current occupation vector 
     5  1  1  0
     5  1  1  0
      17          -112.736059001914768              0.2958105676D-03
   current occupation vector 
     5  1  1  0
     5  1  1  0
      18          -112.736059004382909              0.9747384589D-04
   current occupation vector 
     5  1  1  0
     5  1  1  0
      19          -112.736059004442055              0.1595435503D-04
   current occupation vector 
     5  1  1  0
     5  1  1  0
      20          -112.736059004445835              0.2531780813D-05
   current occupation vector 
     5  1  1  0
     5  1  1  0
      21          -112.736059004442708              0.3812157690D-06
   current occupation vector 
     5  1  1  0
     5  1  1  0
      22          -112.736059004443248              0.7634046839D-07
   current occupation vector 
     5  1  1  0
     5  1  1  0
      23          -112.736059004443590              0.2282026457D-07
   current occupation vector 
     5  1  1  0
     5  1  1  0
      24          -112.736059004443334              0.4662530362D-09
   current occupation vector 
     5  1  1  0
     5  1  1  0
      25          -112.736059004445011              0.3315201447D-09
   current occupation vector 
     5  1  1  0
     5  1  1  0
      26          -112.736059004443618              0.3041873420D-09
   current occupation vector 
     5  1  1  0
     5  1  1  0

  SCF has converged.

 Density matrix saved to file den.dat
 total electron number:   13.9999999999999     
     E(SCF)=      -112.736059004443419              0.5172218209D-10

  Eigenvector printing suppressed.

 @PUTMOS-I, Writing converged MOs to NEWMOS. 
 @PUTMOS-I, Symmetry   1 Full Blocks 21 Partial Blocksize   2
 @PUTMOS-I, Symmetry   2 Full Blocks 13 Partial Blocksize   0
 @PUTMOS-I, Symmetry   3 Full Blocks 13 Partial Blocksize   0
 @PUTMOS-I, Symmetry   4 Full Blocks  7 Partial Blocksize   0
 @PUTFOCK-I, Writing converged Fock matrix to NEWFOCK. 
 @PUTFOCK-I, Symmetry   1 Full Blocks 21 Partial Blocksize   2
 @PUTFOCK-I, Symmetry   2 Full Blocks 13 Partial Blocksize   0
 @PUTFOCK-I, Symmetry   3 Full Blocks 13 Partial Blocksize   0
 @PUTFOCK-I, Symmetry   4 Full Blocks  7 Partial Blocksize   0


 
  ORBITAL EIGENVALUES (ALPHA)  (1H = 27.2113834 eV)

       MO #        E(hartree)               E(eV)           FULLSYM    COMPSYM
       ----   --------------------   --------------------   -------   ---------
    1     1         -20.6661633388        -562.3548940182     SG+        A1 (1)
    2     2         -11.4221788556        -310.8132881036     SG+        A1 (1)
    3     3          -1.4285927671         -38.8739855089     SG+        A1 (1)
    4     4          -0.7947006402         -21.6249038084     SG+        A1 (1)
    5   139          -0.5840401594         -15.8925406988      PI        B2 (3)
    6    87          -0.5840401594         -15.8925406988      PI        B1 (2)
    7     5          -0.5652937016         -15.3824236465     SG+        A1 (1)
  +++++++++++++++++++++++++++++++++++++++++++++++++++++++++++++++++++++++++++++
    8   140           0.0536453744           1.4597648511      PI        B2 (3)
    9    88           0.0536453744           1.4597648511      PI        B1 (2)
   10     6           0.0621419290           1.6909678560     SG+        A1 (1)
   11     7           0.0725139855           1.9732058611     SG+        A1 (1)
   12   141           0.1070336757           2.9125343863      PI        B2 (3)
   13    89           0.1070336757           2.9125343863      PI        B1 (2)
   14     8           0.1562890740           4.2528419152     SG+        A1 (1)
   15   142           0.1678968500           4.5687055570      PI        B2 (3)
   16    90           0.1678968500           4.5687055570      PI        B1 (2)
   17   191           0.2272476367           6.1837225680      DE        A2 (4)
   18     9           0.2272476367           6.1837225680      DE        A1 (1)
   19    10           0.2281752513           6.2089642461     SG+        A1 (1)
   20    11           0.3000201247           8.1639626406     SG+        A1 (1)
   21   143           0.3075118324           8.3678223708      PI        B2 (3)
   22    91           0.3075118324           8.3678223708      PI        B1 (2)
   23    12           0.3845850824          10.4650921264     SG+        A1 (1)
   24    92           0.3959507365          10.7743672984      PI        B1 (2)
   25   144           0.3959507365          10.7743672984      PI        B2 (3)
   26    13           0.5090405779          13.8516983307     SG+        A1 (1)
   27   192           0.5422606868          14.7556634524      DE        A2 (4)
   28    14           0.5422606868          14.7556634524      DE        A1 (1)
   29    15           0.5786311275          15.7453534571     SG+        A1 (1)
   30   145           0.6253657271          17.0170665655      PI        B2 (3)
   31    93           0.6253657271          17.0170665655      PI        B1 (2)
   32   146           0.7451953651          20.2777967871      PH        B2 (3)
   33    94           0.7451953651          20.2777967871      PH        B1 (2)
   34    16           0.7613375424          20.7170477632      DE        A1 (1)
   35   193           0.7613375424          20.7170477632      DE        A2 (4)
   36    17           0.7680739458          20.9003546185     SG+        A1 (1)
   37   147           0.8066238644          21.9493512328      PI        B2 (3)
   38    95           0.8066238644          21.9493512328      PI        B1 (2)
   39    18           0.8349854106          22.7211081410     SG+        A1 (1)
   40    19           0.8707311494          23.6937991445     SG+        A1 (1)
   41   194           0.8826549653          24.0182626719      DE        A2 (4)
   42    20           0.8826549653          24.0182626720      DE        A1 (1)
   43   148           0.8923204473          24.2812738067      PI        B2 (3)
   44    96           0.8923204473          24.2812738067      PI        B1 (2)
   45    97           1.0485687684          28.5330067789      PI        B1 (2)
   46   149           1.0485687684          28.5330067789      PI        B2 (3)
   47    21           1.1320332856          30.8041917548     SG+        A1 (1)
   48    22           1.4289878102          38.8847351765     SG+        A1 (1)
   49    98           1.4369882243          39.1024375119      PH        B1 (2)
   50   150           1.4369882243          39.1024375119      PH        B2 (3)
   51   195           1.5416980688          41.9517372374      DE        A2 (4)
   52    23           1.5416980688          41.9517372374      DE        A1 (1)
   53   151           1.5694725901          42.7075203856      PI        B2 (3)
   54    99           1.5694725901          42.7075203856      PI        B1 (2)
   55    24           1.6577675611          45.1101486935     SG+        A1 (1)
   56   152           1.7021123223          46.3168309927      PI        B2 (3)
   57   100           1.7021123223          46.3168309927      PI        B1 (2)
   58   196           1.7451070591          47.4867772586      DE        A2 (4)
   59    25           1.7451070591          47.4867772587      DE        A1 (1)
   60    26           1.8266093259          49.7045666897     SG+        A1 (1)
   61   153           2.0380480182          55.4581060103      PI        B2 (3)
   62   101           2.0380480182          55.4581060103      PI        B1 (2)
   63    27           2.0569721699          55.9730583576     SG+        A1 (1)
   64   197           2.0952349809          57.0142423790      PI        A2 (4)
   65    28           2.0952349809          57.0142423790      PI        A1 (1)
   66   198           2.1695440145          59.0362939828      DE        A2 (4)
   67    29           2.1695440145          59.0362939828      DE        A1 (1)
   68   102           2.2389273005          60.9243091798      PH        B1 (2)
   69   154           2.2389273005          60.9243091798      PH        B2 (3)
   70   103           2.2941189977          62.4261516107      PI        B1 (2)
   71   155           2.2941189977          62.4261516107      PI        B2 (3)
   72    30           2.3004126792          62.5974113912     SG+        A1 (1)
   73   156           2.3115252099          62.8997987243      PH        B2 (3)
   74   104           2.3115252099          62.8997987243      PH        B1 (2)
   75   199           2.3402211306          63.6806544266      DE        A2 (4)
   76    31           2.3402211306          63.6806544267      DE        A1 (1)
   77    32           2.4885690821          67.7174074091     SG+        A1 (1)
   78   157           2.5577722042          69.6005200987      PI        B2 (3)
   79   105           2.5577722042          69.6005200987      PI        B1 (2)
   80   158           2.7196962664          74.0066978371      PI        B2 (3)
   81   106           2.7196962664          74.0066978371      PI        B1 (2)
   82    33           2.7448128856          74.6901557908     SG+        A1 (1)
   83   200           2.8861456851          78.5360167858      DE        A2 (4)
   84    34           2.8861456851          78.5360167859      DE        A1 (1)
   85    35           3.4333779250          93.4269630731     SG+        A1 (1)
   86   159           3.6750648225         100.0035979057      PI        B2 (3)
   87   107           3.6750648225         100.0035979057      PI        B1 (2)
   88   201           3.7054634242         100.8307859112      PI        A2 (4)
   89    36           3.7054634242         100.8307859112      PI        A1 (1)
   90    37           3.9027303802         106.1986926838     SG+        A1 (1)
   91   160           4.0839952041         111.1311593014      PH        B2 (3)
   92   108           4.0839952041         111.1311593014      PH        B1 (2)
   93   161           4.1529506104         113.0075313000      PH        B2 (3)
   94   109           4.1529506104         113.0075313000      PH        B1 (2)
   95   162           4.1896727351         114.0067911151      PI        B2 (3)
   96   110           4.1896727351         114.0067911151      PI        B1 (2)
   97   202           4.1977710012         114.2271561381      DE        A2 (4)
   98    38           4.1977710012         114.2271561382      DE        A1 (1)
   99    39           4.2278601342         115.0459230737     SG+        A1 (1)
  100   203           4.3207018222         117.5722738405      DE        A2 (4)
  101    40           4.3207018222         117.5722738405      DE        A1 (1)
  102    41           4.3883113514         119.4120226620     SG+        A1 (1)
  103   163           4.8874268759         132.9936465595      PI        B2 (3)
  104   111           4.8874268759         132.9936465595      PI        B1 (2)
  105   164           4.9072730555         133.5336885614      PI        B2 (3)
  106   112           4.9072730555         133.5336885615      PI        B1 (2)
  107   204           5.0286252871         136.8358506611      DE        A2 (4)
  108    42           5.0286252871         136.8358506613      DE        A1 (1)
  109    43           5.1834853815         141.0498080652     SG+        A1 (1)
  110    44           5.3796673005         146.3881894782     SG+        A1 (1)
  111   113           5.6428344634         153.5493320452      PI        B1 (2)
  112   165           5.6428344634         153.5493320452      PI        B2 (3)
  113   205           5.8788049016         159.9704141125      PI        A2 (4)
  114    45           5.8788049016         159.9704141125      PI        A1 (1)
  115   166           6.0192874280         163.7931379980      PH        B2 (3)
  116   114           6.0192874280         163.7931379980      PH        B1 (2)
  117    46           6.2275932838         169.4614285042     SG+        A1 (1)
  118   206           6.2479228614         170.0146244360      DE        A2 (4)
  119    47           6.2479228614         170.0146244360      DE        A1 (1)
  120   167           6.2796789975         170.8787528306      PI        B2 (3)
  121   115           6.2796789975         170.8787528306      PI        B1 (2)
  122   168           6.4170257334         174.6161475187      PH        B2 (3)
  123   116           6.4170257334         174.6161475187      PH        B1 (2)
  124   207           6.5459036354         178.1230935221      DE        A2 (4)
  125    48           6.5459036354         178.1230935221      DE        A1 (1)
  126    49           6.6345623748         180.5356204727     SG+        A1 (1)
  127   208           6.8688470645         186.9108309870      DE        A2 (4)
  128    50           6.8688470645         186.9108309871      DE        A1 (1)
  129   169           7.1863154695         195.5495854732      PI        B2 (3)
  130   117           7.1863154695         195.5495854733      PI        B1 (2)
  131    51           7.5318051504         204.9508376421     SG+        A1 (1)
  132   170           8.0454608360         218.9281194377      PI        B2 (3)
  133   118           8.0454608360         218.9281194378      PI        B1 (2)
  134    52           8.2022637618         223.1949439704     SG+        A1 (1)
  135   171          10.0865753486         274.4696690047      PI        B2 (3)
  136   119          10.0865753486         274.4696690049      PI        B1 (2)
  137    53          10.2285296100         278.3324408355     SG+        A1 (1)
  138   209          10.6124669173         288.7799061064      PI        A2 (4)
  139    54          10.6124669173         288.7799061064      PI        A1 (1)
  140   120          10.8064554780         294.0586032070      PH        B1 (2)
  141   172          10.8064554780         294.0586032070      PH        B2 (3)
  142    55          10.9086613029         296.8397650934     SG+        A1 (1)
  143   210          11.0407041631         300.4328339869      DE        A2 (4)
  144    56          11.0407041631         300.4328339870      DE        A1 (1)
  145   173          11.2360134180         305.7474690053      PI        B2 (3)
  146   121          11.2360134180         305.7474690053      PI        B1 (2)
  147    57          11.5180651381         313.4224865003     SG+        A1 (1)
  148   174          11.8590112221         322.7001011094      PH        B2 (3)
  149   122          11.8590112221         322.7001011094      PH        B1 (2)
  150   211          12.1548102551         330.7492020055      DE        A2 (4)
  151    58          12.1548102551         330.7492020057      DE        A1 (1)
  152   175          12.5750830435         342.1854059842      PI        B2 (3)
  153   123          12.5750830435         342.1854059842      PI        B1 (2)
  154   212          12.8022317883         348.3664375676      DE        A2 (4)
  155    59          12.8022317883         348.3664375677      DE        A1 (1)
  156    60          12.9986883647         353.7122927902     SG+        A1 (1)
  157   124          13.4768435886         366.7235579124      PI        B1 (2)
  158   176          13.4768435886         366.7235579124      PI        B2 (3)
  159    61          14.6210637867         397.8593724160     SG+        A1 (1)
  160    62          17.7832980282         483.9081407632     SG+        A1 (1)
  161   125          19.1141350326         520.1220567323      PI        B1 (2)
  162   177          19.1141350326         520.1220567324      PI        B2 (3)
  163    63          20.5137743129         558.2081778086     SG+        A1 (1)
  164   213          26.4115666405         718.6952660488      DE        A2 (4)
  165    64          26.4115666405         718.6952660489      DE        A1 (1)
  166   178          26.8421536676         730.4121347300      PI        B2 (3)
  167   126          26.8421536676         730.4121347300      PI        B1 (2)
  168    65          27.5974003920         750.9634429088     SG+        A1 (1)
  169   179          33.7329199403         917.9194176965      PI        B2 (3)
  170   127          33.7329199403         917.9194176974      PI        B1 (2)
  171    66          34.6353727254         942.4764064319     SG+        A1 (1)
  172    67          36.3297002002         988.5814009535     SG+        A1 (1)
  173   214          47.0935534993        1281.4807399369      DE        A2 (4)
  174    68          47.0935534993        1281.4807399369      DE        A1 (1)
  175   128          47.3953019978        1289.6917340204      PI        B1 (2)
  176   180          47.3953019978        1289.6917340204      PI        B2 (3)
  177    69          48.1334228200        1309.7770227084     SG+        A1 (1)
  178    70          64.0379494232        1742.5611939057     SG+        A1 (1)
  179   129          66.6141989276        1812.6645069039      PI        B1 (2)
  180   181          66.6141989276        1812.6645069040      PI        B2 (3)
  181    71          67.6586507576        1841.0854860929     SG+        A1 (1)
  182   182          98.6109765391        2683.3410900544      PH        B2 (3)
  183   130          98.6109765391        2683.3410900544      PH        B1 (2)
  184   215          98.6263595201        2683.7596822483      DE        A2 (4)
  185    72          98.6263595201        2683.7596822484      DE        A1 (1)
  186   131          98.6649588396        2684.8100231290      PI        B1 (2)
  187   183          98.6649588396        2684.8100231291      PI        B2 (3)
  188    73          98.6862281004        2685.3887891389     SG+        A1 (1)
  189   184         103.2838121131        2810.4954104228      PH        B2 (3)
  190   132         103.2838121131        2810.4954104228      PH        B1 (2)
  191    74         103.3147674262        2811.3377473166      DE        A1 (1)
  192   216         103.3147674262        2811.3377473170      DE        A2 (4)
  193   185         103.3535817645        2812.3939391564      PI        B2 (3)
  194   133         103.3535817645        2812.3939391564      PI        B1 (2)
  195    75         103.3747970747        2812.9712370968     SG+        A1 (1)
  196   217         115.0905572466        3131.7732789581      DE        A2 (4)
  197    76         115.0905572466        3131.7732789582      DE        A1 (1)
  198   186         115.2997594374        3137.4659599786      PI        B2 (3)
  199   134         115.2997594374        3137.4659599786      PI        B1 (2)
  200    77         115.6739299170        3147.6476563566     SG+        A1 (1)
  201   187         116.9918977954        3183.5113856050      PI        B2 (3)
  202   135         116.9918977955        3183.5113856060      PI        B1 (2)
  203    78         117.7048508257        3202.9118238569     SG+        A1 (1)
  204    79         122.5385542100        3334.4435798896     SG+        A1 (1)
  205   218         198.5596968101        5403.0840376876      DE        A2 (4)
  206    80         198.5596968101        5403.0840376877      DE        A1 (1)
  207   136         198.7207483594        5407.4664731436      PI        B1 (2)
  208   188         198.7207483594        5407.4664731438      PI        B2 (3)
  209    81         199.0992396611        5417.7657450668     SG+        A1 (1)
  210    82         216.5414648785        5892.3928228064     SG+        A1 (1)
  211   189         225.0537688783        6124.0243905625      PI        B2 (3)
  212   137         225.0537688783        6124.0243905625      PI        B1 (2)
  213    83         225.8910531897        6146.8080549738     SG+        A1 (1)
  214   190         395.4523376323       10760.8051757381      PI        B2 (3)
  215   138         395.4523376324       10760.8051757402      PI        B1 (2)
  216    84         396.0367150448       10776.7068935594     SG+        A1 (1)
  217    85         509.1298591152       13854.1277967727     SG+        A1 (1)
  218    86         895.3725048822       24364.3245161684     SG+        A1 (1)


  VSCF finished.

 @CHECKOUT-I, Total execution time (CPU/WALL):       44.75/       7.87 seconds.
--executable xvscf finished with status     0 in        7.89 seconds (walltime).
 --invoking executable--
/nfs/workspaces/public/cfour_mpi/bin/xvtran
 @GETMEM-I,  Allocated    3814 MB of main memory.
  Full RHF integral transformation
  Transformation of IIII integrals :
  1 pass through the AO integral file was required.
     4537949 AO integrals were read.
     8762578 MO integrals were written to HF2.
  Transformation of IIJJ integrals :
  1 pass through the AO integral file was required.
    10281767 AO integrals were read.
    14557408 MO integrals were written to HF2.
  Transformation of IJIJ integrals :
  1 pass through the AO integral file was required.
    19512841 AO integrals were read.
    27283096 MO integrals were written to HF2.
  Transformation of IJKL integrals :
  1 pass through the AO integral file was required.
    14441701 AO integrals were read.
    18449408 MO integrals were written to HF2.
  Summary of active molecular orbitals: 
------------------------------------------------------------------------
 
  Index      Eigenvalue    Symmetry    Index      Eigenvalue    Symmetry
------------------------------------------------------------------------
     1       -20.6661633        1       110         4.1529506        2
     2       -11.4221789        1       111         4.1896727        2
     3        -1.4285928        1       112         4.8874269        2
     4        -0.7947006        1       113         4.9072731        2
     5        -0.5652937        1       114         5.6428345        2
     6        -0.5840402        2       115         6.0192874        2
     7        -0.5840402        3       116         6.2796790        2
     8         0.0621419        1       117         6.4170257        2
     9         0.0725140        1       118         7.1863155        2
    10         0.1562891        1       119         8.0454608        2
    11         0.2272476        1       120        10.0865753        2
    12         0.2281753        1       121        10.8064555        2
    13         0.3000201        1       122        11.2360134        2
    14         0.3845851        1       123        11.8590112        2
    15         0.5090406        1       124        12.5750830        2
    16         0.5422607        1       125        13.4768436        2
    17         0.5786311        1       126        19.1141350        2
    18         0.7613375        1       127        26.8421537        2
    19         0.7680739        1       128        33.7329199        2
    20         0.8349854        1       129        47.3953020        2
    21         0.8707311        1       130        66.6141989        2
    22         0.8826550        1       131        98.6109765        2
    23         1.1320333        1       132        98.6649588        2
    24         1.4289878        1       133       103.2838121        2
    25         1.5416981        1       134       103.3535818        2
    26         1.6577676        1       135       115.2997594        2
    27         1.7451071        1       136       116.9918978        2
    28         1.8266093        1       137       198.7207484        2
    29         2.0569722        1       138       225.0537689        2
    30         2.0952350        1       139       395.4523376        2
    31         2.1695440        1       140         0.0536454        3
    32         2.3004127        1       141         0.1070337        3
    33         2.3402211        1       142         0.1678969        3
    34         2.4885691        1       143         0.3075118        3
    35         2.7448129        1       144         0.3959507        3
    36         2.8861457        1       145         0.6253657        3
    37         3.4333779        1       146         0.7451954        3
    38         3.7054634        1       147         0.8066239        3
    39         3.9027304        1       148         0.8923204        3
    40         4.1977710        1       149         1.0485688        3
    41         4.2278601        1       150         1.4369882        3
    42         4.3207018        1       151         1.5694726        3
    43         4.3883114        1       152         1.7021123        3
    44         5.0286253        1       153         2.0380480        3
    45         5.1834854        1       154         2.2389273        3
    46         5.3796673        1       155         2.2941190        3
    47         5.8788049        1       156         2.3115252        3
    48         6.2275933        1       157         2.5577722        3
    49         6.2479229        1       158         2.7196963        3
    50         6.5459036        1       159         3.6750648        3
    51         6.6345624        1       160         4.0839952        3
    52         6.8688471        1       161         4.1529506        3
    53         7.5318052        1       162         4.1896727        3
    54         8.2022638        1       163         4.8874269        3
    55        10.2285296        1       164         4.9072731        3
    56        10.6124669        1       165         5.6428345        3
    57        10.9086613        1       166         6.0192874        3
    58        11.0407042        1       167         6.2796790        3
    59        11.5180651        1       168         6.4170257        3
    60        12.1548103        1       169         7.1863155        3
    61        12.8022318        1       170         8.0454608        3
    62        12.9986884        1       171        10.0865753        3
    63        14.6210638        1       172        10.8064555        3
    64        17.7832980        1       173        11.2360134        3
    65        20.5137743        1       174        11.8590112        3
    66        26.4115666        1       175        12.5750830        3
    67        27.5974004        1       176        13.4768436        3
    68        34.6353727        1       177        19.1141350        3
    69        36.3297002        1       178        26.8421537        3
    70        47.0935535        1       179        33.7329199        3
    71        48.1334228        1       180        47.3953020        3
    72        64.0379494        1       181        66.6141989        3
    73        67.6586508        1       182        98.6109765        3
    74        98.6263595        1       183        98.6649588        3
    75        98.6862281        1       184       103.2838121        3
    76       103.3147674        1       185       103.3535818        3
    77       103.3747971        1       186       115.2997594        3
    78       115.0905572        1       187       116.9918978        3
    79       115.6739299        1       188       198.7207484        3
    80       117.7048508        1       189       225.0537689        3
    81       122.5385542        1       190       395.4523376        3
    82       198.5596968        1       191         0.2272476        4
    83       199.0992397        1       192         0.5422607        4
    84       216.5414649        1       193         0.7613375        4
    85       225.8910532        1       194         0.8826550        4
    86       396.0367150        1       195         1.5416981        4
    87       509.1298591        1       196         1.7451071        4
    88       895.3725049        1       197         2.0952350        4
    89         0.0536454        2       198         2.1695440        4
    90         0.1070337        2       199         2.3402211        4
    91         0.1678969        2       200         2.8861457        4
    92         0.3075118        2       201         3.7054634        4
    93         0.3959507        2       202         4.1977710        4
    94         0.6253657        2       203         4.3207018        4
    95         0.7451954        2       204         5.0286253        4
    96         0.8066239        2       205         5.8788049        4
    97         0.8923204        2       206         6.2479229        4
    98         1.0485688        2       207         6.5459036        4
    99         1.4369882        2       208         6.8688471        4
   100         1.5694726        2       209        10.6124669        4
   101         1.7021123        2       210        11.0407042        4
   102         2.0380480        2       211        12.1548103        4
   103         2.2389273        2       212        12.8022318        4
   104         2.2941190        2       213        26.4115666        4
   105         2.3115252        2       214        47.0935535        4
   106         2.5577722        2       215        98.6263595        4
   107         2.7196963        2       216       103.3147674        4
   108         3.6750648        2       217       115.0905572        4
   109         4.0839952        2       218       198.5596968        4
------------------------------------------------------------------------
  -20.6661633387674       -11.4221788556195       -1.42859276713267     
 -0.794700640190494      -0.565293701552330      -0.584040159414127     
 -0.584040159414129       6.214192902718525E-002  7.251398549417509E-002
  0.156289074049185       0.227247636662040       0.228175251319675     
  0.300020124689286       0.384585082375771       0.509040577873386     
  0.542260686840994       0.578631127484176       0.761337542405810     
  0.768073945791404       0.834985410592048       0.870731149394157     
  0.882654965346420        1.13203328555406        1.42898781017253     
   1.54169806881017        1.65776756111086        1.74510705908148     
   1.82660932592289        2.05697216987664        2.09523498092269     
   2.16954401453945        2.30041267917270        2.34022113064097     
   2.48856908205062        2.74481288558118        2.88614568511462     
   3.43337792495610        3.70546342422170        3.90273038024902     
   4.19777100116784        4.22786013421397        4.32070182218301     
   4.38831135141627        5.02862528706647        5.18348538153305     
   5.37966730049272        5.87880490164524        6.22759328377825     
   6.24792286143032        6.54590363539250        6.63456237482981     
   6.86884706446336        7.53180515041854        8.20226376180530     
   10.2285296099823        10.6124669172971        10.9086613028794     
   11.0407041630584        11.5180651381471        12.1548102550970     
   12.8022317883207        12.9986883647445        14.6210637867097     
   17.7832980282493        20.5137743128723        26.4115666404839     
   27.5974003919567        34.6353727253700        36.3297002001551     
[...]
 Convergence information after    10 iterations: 
 Largest element of residual vector : -0.77637710E-05.
 Largest element of DIIS residual   : -0.59600957E-05.
 Convergence information after    11 iterations: 
 Largest element of residual vector : -0.37819763E-05.
 Largest element of DIIS residual   : -0.13318603E-05.
 Convergence information after    12 iterations: 
 Largest element of residual vector : -0.19271588E-05.
 Largest element of DIIS residual   :  0.76552752E-06.
 Convergence information after    13 iterations: 
 Largest element of residual vector :  0.65386102E-06.
 Largest element of DIIS residual   :  0.18601015E-06.
 Convergence information after    14 iterations: 
 Largest element of residual vector :  0.25405209E-06.
 Largest element of DIIS residual   :  0.10000553E-06.
 Convergence information after    15 iterations: 
 Largest element of residual vector :  0.61765847E-07.
 Largest element of DIIS residual   :  0.36619001E-07.
 Perturbed amplitude equations converged in    15 iterations.
  Dominant contributions to perturbed wavefunction:
    7    7  141   28  -0.2180299729 ABAB
    7    7   28  141  -0.2180299729 ABAB
    7    7  140   28  -0.1983441524 ABAB
    7    7   28  140  -0.1983441524 ABAB
    7    7  141   39   0.1770485285 ABAB
    7    7   39  141   0.1770485285 ABAB
    7    7  140   39   0.1550560344 ABAB
    7    7   39  140   0.1550560344 ABAB
    7    7  141   37  -0.1409711606 ABAB
    7    7   37  141  -0.1409711606 ABAB
    7    6   28   90  -0.1399168990 ABAB
    6    7   90   28  -0.1399168990 ABAB
    7    7  141   45   0.1378528654 ABAB
    7    7   45  141   0.1378528654 ABAB
    7    7  141   54  -0.1375307471 ABAB
    7    7   54  141  -0.1375307471 ABAB
    7    6   28   89  -0.1293796189 ABAB
    6    7   89   28  -0.1293796189 ABAB
    7    7  141   20  -0.1284829680 ABAB
    7    7   20  141  -0.1284829680 ABAB
  norm of converged amps    2.11789230084624     
 Starting iterative solution of the perturbed Lambda equations.
 The DIIS procedure is used to accelerate convergence.
 Convergence criterion is 10**(-7).
 Maximum number of iterations is 100.
 Convergence information after     1 iterations: 
 Largest element of residual vector :  0.59624251E-01.
 Largest element of DIIS residual   :  0.59624251E-01.
 Convergence information after     2 iterations: 
 Largest element of residual vector : -0.10651640E-01.
 Largest element of DIIS residual   :  0.67651202E-02.
 Convergence information after     3 iterations: 
 Largest element of residual vector : -0.48665172E-02.
 Largest element of DIIS residual   : -0.43157505E-02.
 Convergence information after     4 iterations: 
 Largest element of residual vector : -0.29964560E-02.
 Largest element of DIIS residual   : -0.24811941E-02.
 Convergence information after     5 iterations: 
 Largest element of residual vector : -0.19839151E-02.
 Largest element of DIIS residual   : -0.10577262E-02.
 Convergence information after     6 iterations: 
 Largest element of residual vector : -0.70906044E-03.
 Largest element of DIIS residual   : -0.23341450E-03.
 Convergence information after     7 iterations: 
 Largest element of residual vector : -0.21415147E-03.
 Largest element of DIIS residual   :  0.10366963E-03.
 Convergence information after     8 iterations: 
 Largest element of residual vector :  0.63634696E-04.
 Largest element of DIIS residual   :  0.33614572E-04.
 Convergence information after     9 iterations: 
 Largest element of residual vector :  0.20286260E-04.
 Largest element of DIIS residual   : -0.66349755E-05.
 Convergence information after    10 iterations: 
 Largest element of residual vector : -0.56378130E-05.
 Largest element of DIIS residual   : -0.49146754E-05.
 Convergence information after    11 iterations: 
 Largest element of residual vector : -0.27150743E-05.
 Largest element of DIIS residual   : -0.12702761E-05.
 Convergence information after    12 iterations: 
 Largest element of residual vector : -0.15684110E-05.
 Largest element of DIIS residual   :  0.11095849E-05.
 Convergence information after    13 iterations: 
 Largest element of residual vector :  0.84123867E-06.
 Largest element of DIIS residual   :  0.47683102E-06.
 Convergence information after    14 iterations: 
 Largest element of residual vector :  0.47908972E-06.
 Largest element of DIIS residual   :  0.25801581E-06.
 Convergence information after    15 iterations: 
 Largest element of residual vector :  0.17025065E-06.
 Largest element of DIIS residual   :  0.86403539E-07.
 Perturbed Lambda equations converged in    15 iterations.
  Dominant contributions to perturbed wavefunction:
    7    7  141   28  -0.2010564060 ABAB
    7    7   28  141  -0.2010564060 ABAB
    7    7  140   28  -0.1841188539 ABAB
    7    7   28  140  -0.1841188539 ABAB
    7    7  141   39   0.1616537235 ABAB
    7    7   39  141   0.1616537235 ABAB
    7    7  140   39   0.1424848106 ABAB
    7    7   39  140   0.1424848106 ABAB
    7    7  141   37  -0.1316521753 ABAB
    7    7   37  141  -0.1316521753 ABAB
    7    7  141   54  -0.1285598156 ABAB
    7    7   54  141  -0.1285598156 ABAB
    7    6   28   90  -0.1269935860 ABAB
    6    7   90   28  -0.1269935860 ABAB
    7    7  141   45   0.1234483969 ABAB
    7    7   45  141   0.1234483969 ABAB
    7    6   28   89  -0.1180601907 ABAB
    6    7   89   28  -0.1180601907 ABAB
    7    7  140   37  -0.1174941414 ABAB
    7    7   37  140  -0.1174941414 ABAB
        The DBOC first-order density matrix is being calculated 
             (Symmetry block 3, perturbation   2)
 term   5.13134718314582     
 final tnorm  0.867618892070110     
  norm contr. I: |<0|L dT/dx|0>|^2   0.000000000000000E+000
  norm contr. II: <0|[nabla(1+L)e-T][nabla e^T]|0>   5.13134718314582     
  total norm contribution   5.13134718314582     
 oo  9.241547345327518E-003
 vv  -38.4887139011277     
 vo  6.243341009829406E-002
  Correlated perturbed 1-el contribution to DBOC  -38.4170389436841       cm**-1
  SUM_I |dc_I/dx|^2 contribution to DBOC   19.3180320393658       cm**-1
 
 
  The total diagonal Born-Oppenheimer correction (DBOC) is:      0.0040076435 a.u.
  The total diagonal Born-Oppenheimer correction (DBOC) is:        879.576081 cm-1
 
 Total CC energy including DBOC  -113.244135985200     
 First-order density matrix is being calculated  (Symmetry block 3, perturbation   2)
 Calculation of the contributions of <pq||rs> to dI(i,j)/dx required   1.4 seconds.
 Calculation of the contributions of <pq||rs> to dI(a,b)/dx required  13.0 seconds.
 Calculation of the contributions of <pq||rs> to dI(i,a)/dx required   8.7 seconds.
 First-order Z-vector equations are solved for 1 perturbation.
 Convergence reached after  18 iterations.
        U*G(pq,rs) contribution is being calculated
             (Symmetry block 3, perturbation   2)

 CCSD contribution to force constants 

        0.0000000000        0.0000000000        0.0000000000
        0.0000000000        0.0000000000        0.0000000000
        0.0000000000        0.0000000000        0.0000000000
        0.0000000000        0.0000000000        0.0000000000
        0.0000000000        0.0000000000        0.0000000000
        0.0000000000        0.0000000000        0.0000000000
        0.0000000000        0.0000000000        0.0000000000
        0.0000000000        0.0000000000        0.0000000000
        0.0000000000        0.0000000000        0.0000000000
        0.0000000000        0.0000000000        0.0000000000
        0.0000000000        0.0000000000        0.0000000000
        0.0000000000        1.4479626144       -1.4479626144

 CCSD contribution to dipole derivatives 

        0.0000000000        0.0000000000        0.0000000000
        0.0000000000        0.0000000000        0.0000000000
        0.0000000000        0.0000000000        0.0000000000
        0.0000000000        0.0000000000       -0.0503981069
        0.0000000000        0.0000000000        0.0000000000
        0.0000000000        0.0000000000        0.0000000000
 @CHECKOUT-I, Total execution time (CPU/WALL):      934.81/     250.51 seconds.
--executable xsdcc finished with status     0 in      250.56 seconds (walltime).
 --invoking executable--
/nfs/workspaces/public/cfour_mpi/bin/xanti
 @GETMEM-I,  Allocated    3814 MB of main memory.
 CCSD MO derivative gammas will be sorted to Mulliken order.
 @CHECKOUT-I, Total execution time (CPU/WALL):        9.74/      24.82 seconds.
--executable xanti finished with status     0 in       24.85 seconds (walltime).
 --invoking executable--
/nfs/workspaces/public/cfour_mpi/bin/xbcktrn
 @GETMEM-I,  Allocated    3814 MB of main memory.
 CCSD MO derivative gammas will be transformed to the AO basis.
 @CHECKOUT-I, Total execution time (CPU/WALL):       17.71/       3.07 seconds.
--executable xbcktrn finished with status     0 in        3.10 seconds (walltime).
 --invoking executable--
/nfs/workspaces/public/cfour_mpi/bin/xvdint
 @GETMEM-I,  Allocated    3814 MB of main memory.
 One- and two-electron integral derivatives are calculated
 for RHF-CC/MBPT hessians and dipole derivatives.
 Spherical gaussians are used.
  magnet F F
                    8722  records have been written to the Sort file.
  Total length of Sort file :             178609116  words.
 Evaluation of 2el integral derivatives

                      Two-electron integral gradient
                      ------------------------------

                         C #1 z     0.0000000000
                         O #2 z     0.0000000000


 C #1       0.0000000000           -0.2509229175            0.0000000000
 O #2       0.0000000000            0.2509229175            0.0000000000


 Evaluation of 2e integral derivatives required  251.52 seconds.
  contribution to Hessian
        0.0000000000        0.0000000000        0.0000000000
        0.0000000000       -0.2509229175        0.2509229175
 @CHECKOUT-I, Total execution time (CPU/WALL):      251.51/      57.29 seconds.
--executable xvdint finished with status     0 in       57.32 seconds (walltime).
 --invoking executable--
/nfs/workspaces/public/cfour_mpi/bin/xanti
 @GETMEM-I,  Allocated    3814 MB of main memory.
 CCSD MO gammas will be sorted to Mulliken order.
 @CHECKOUT-I, Total execution time (CPU/WALL):       10.35/       8.96 seconds.
--executable xanti finished with status     0 in        8.99 seconds (walltime).
 --invoking executable--
/nfs/workspaces/public/cfour_mpi/bin/xbcktrn
 @GETMEM-I,  Allocated    3814 MB of main memory.
 CCSD MO gammas will be transformed to the AO basis.
 @CHECKOUT-I, Total execution time (CPU/WALL):       24.55/       5.19 seconds.
--executable xbcktrn finished with status     0 in        5.21 seconds (walltime).
 --invoking executable--
/nfs/workspaces/public/cfour_mpi/bin/xvdint
 @GETMEM-I,  Allocated    3814 MB of main memory.
 One- and two-electron integral derivatives are calculated
 for RHF-CC/MBPT hessians and dipole derivatives.
 Spherical gaussians are used.
  magnet F F

                     Kinetic energy integral gradient
                     --------------------------------

                         C #1 z    -1.0985709397
                         O #2 z     1.0985709397


 C #1       0.0000000000            0.0000000000           -1.0985709397
 O #2       0.0000000000            0.0000000000            1.0985709397



                   Nuclear attraction integral gradient
                   ------------------------------------

                         C #1 z    19.9520163481
                         O #2 z   -19.9520163481


 C #1       0.0000000000            0.0000000000           19.9520163481
 O #2       0.0000000000            0.0000000000          -19.9520163481



                      Reorthonormalization gradient
                      -----------------------------

                         C #1 z     0.0000000000
                         O #2 z     0.0000000000


 C #1       0.0000000000            0.0000000000            0.0000000000
 O #2       0.0000000000            0.0000000000            0.0000000000



                     Kinetic energy integral Hessian
                     -------------------------------


           Symmetry 1

           C #1 z      O #2 z

 C #1 z    1.002695
 O #2 z   -1.002695    1.002695


           Symmetry 2

           C #1 x      O #2 x

 C #1 x   -1.195356
 O #2 x    1.195356   -1.195356


           Symmetry 3

           C #1 y      O #2 y

 C #1 y   -1.195356
 O #2 y    1.195356   -1.195356




           C #1 x      C #1 y      C #1 z      O #2 x      O #2 y      O #2 z

 C #1 x   -1.195356
 C #1 y    0.000000   -1.195356
 C #1 z    0.000000    0.000000    1.002695

 O #2 x    1.195356    0.000000    0.000000   -1.195356
 O #2 y    0.000000    1.195356    0.000000    0.000000   -1.195356
 O #2 z    0.000000    0.000000   -1.002695    0.000000    0.000000    1.002695




                   Nuclear attraction integral Hessian
                   -----------------------------------


           Symmetry 1

           C #1 z      O #2 z

 C #1 z  -12.128807
 O #2 z   12.128807  -12.128807


           Symmetry 2

           C #1 x      O #2 x

 C #1 x   14.898368
 O #2 x  -14.898368   14.898368


           Symmetry 3

           C #1 y      O #2 y

 C #1 y   14.898368
 O #2 y  -14.898368   14.898368




           C #1 x      C #1 y      C #1 z      O #2 x      O #2 y      O #2 z

 C #1 x   14.898368
 C #1 y    0.000000   14.898368
 C #1 z    0.000000    0.000000  -12.128807

 O #2 x  -14.898368    0.000000    0.000000   14.898368
 O #2 y    0.000000  -14.898368    0.000000    0.000000   14.898368
 O #2 z    0.000000    0.000000   12.128807    0.000000    0.000000  -12.128807




                Highest order reorthonormalization Hessian
                ------------------------------------------


           Symmetry 1

           C #1 z      O #2 z

 C #1 z    0.000000
 O #2 z    0.000000    0.000000


           Symmetry 2

           C #1 x      O #2 x

 C #1 x    0.000000
 O #2 x    0.000000    0.000000


           Symmetry 3

           C #1 y      O #2 y

 C #1 y    0.000000
 O #2 y    0.000000    0.000000




           C #1 x      C #1 y      C #1 z      O #2 x      O #2 y      O #2 z




                Electronic contributions to dipole moment
                -----------------------------------------

                               au             Debye

                    z      0.80338077      2.04199060

  Conversion factor used: 1 a.u. =   2.54174691 Debye 



   Electronic contributions to static part of dipole moment derivatives
   --------------------------------------------------------------------


                     Total dipole moment derivatives
                     -------------------------------


           Symmetry 1
                              Ez

               C #1 z    -5.69402229
               O #2 z    -8.30597771

           Symmetry 2
                              Ex

               C #1 x    -5.71780328
               O #2 x    -8.28219672

           Symmetry 3
                              Ey

               C #1 y    -5.71780328
               O #2 y    -8.28219672



                       Ex          Ey          Ez

      C #1    x   -5.717803    0.000000    0.000000
      C #1    y    0.000000   -5.717803    0.000000
      C #1    z    0.000000    0.000000   -5.694022

      O #2    x   -8.282197    0.000000    0.000000
      O #2    y    0.000000   -8.282197    0.000000
      O #2    z    0.000000    0.000000   -8.305978

 Evaluation of 1e integral derivatives required    1.64 seconds.
                    8815  records have been written to the Sort file.
  Total length of Sort file :             180513570  words.
 Evaluation of 2el integral derivatives

                      Two-electron integral gradient
                      ------------------------------

                         C #1 z    -9.8934105315
                         O #2 z     9.8934105315


 C #1       0.0000000000            0.0000000000           -9.8934105315
 O #2       0.0000000000            0.0000000000            9.8934105315


 Evaluation of 2e integral derivatives required  559.53 seconds.

                            Molecular gradient
                            ------------------

                         C #1 z     0.6579611708
                         O #2 z    -0.6579611708


 C #1       0.0000000000            0.0000000000            0.6579611708
 O #2       0.0000000000            0.0000000000           -0.6579611708


  Molecular gradient norm 0.930E+00

                            Molecular hessian
                            -----------------


           Symmetry 1

           C #1 z      O #2 z

 C #1 z   44.534381
 O #2 z  -44.534381   44.534381


           Symmetry 2

           C #1 x      O #2 x

 C #1 x   -0.920379
 O #2 x    0.920379   -0.920379


           Symmetry 3

           C #1 y      O #2 y

 C #1 y   -0.920379
 O #2 y    0.920379   -0.920379




           C #1 x      C #1 y      C #1 z      O #2 x      O #2 y      O #2 z

 C #1 x   -0.920379
 C #1 y    0.000000   -0.920379
 C #1 z    0.000000    0.000000   44.534381

 O #2 x    0.920379    0.000000    0.000000   -0.920379
 O #2 y    0.000000    0.920379    0.000000    0.000000   -0.920379
 O #2 z    0.000000    0.000000  -44.534381    0.000000    0.000000   44.534381




                           Total dipole moment
                           -------------------

                               au             Debye

                    z      0.13527147      0.34382584

  Conversion factor used: 1 a.u. =   2.54174691 Debye 



                     Total dipole moment derivatives
                     -------------------------------


           Symmetry 1
                              Ez

               C #1 z     0.70968691
               O #2 z    -0.70968691

           Symmetry 2
                              Ex

               C #1 x     0.05490910
               O #2 x    -0.05490910

           Symmetry 3
                              Ey

               C #1 y     0.05490910
               O #2 y    -0.05490910



                       Ex          Ey          Ez

      C #1    x    0.054909    0.000000    0.000000
      C #1    y    0.000000    0.054909    0.000000
      C #1    z    0.000000    0.000000    0.709687

      O #2    x   -0.054909    0.000000    0.000000
      O #2    y    0.000000   -0.054909    0.000000
      O #2    z    0.000000    0.000000   -0.709687

 @CHECKOUT-I, Total execution time (CPU/WALL):      561.16/      95.86 seconds.
--executable xvdint finished with status     0 in       95.88 seconds (walltime).
 --invoking executable--
/nfs/workspaces/public/cfour_mpi/bin/xjoda
  @GTFLGS-I, Hessian will be transformed to curvilinear coordinates.
  @GTFLGS-I, Hessian will be transformed to curvilinear coordinates.
  igrd and ihes are                      0                     1
  gradient from JOBARC 
   0.000000000000000   0.000000000000000   0.657961170775759
   0.000000000000000   0.000000000000000  -0.657961170775759
 
  @PROJFCM-I, Projecting force constant matrix onto totally symmetric subspace.
  Largest difference between matrix elements of symmetrized
  and unsymmetrized FCM :    -0.4274580689E-11.
  read isotopes from ZMAT file 
 
  Summary of diagonal Born-Oppenheimer correction at the correlated level
  The total diagonal Born-Oppenheimer correction (DBOC) is:      0.0040076435 a.u.
  The total diagonal Born-Oppenheimer correction (DBOC) is:        879.576081 cm-1
  The total diagonal Born-Oppenheimer correction (DBOC) is:            10.522 kJ/mole
  hellooooooo 
  readis is  F
 
 @CHECKOUT-I, Total execution time (CPU/WALL):        0.01/       0.03 seconds.
--executable xjoda finished with status     0 in        0.05 seconds (walltime).
  The final electronic energy is      -113.244135985199648 a.u. 
  This computation required                         2228.10 seconds (walltime).
