 --invoking executable--
/nfs/workspaces/public/cfour_mpi/bin/xjoda


   *************************************************************************
         <<<     CCCCCC     CCCCCC   |||     CCCCCC     CCCCCC   >>>
       <<<      CCC        CCC       |||    CCC        CCC         >>>
      <<<      CCC        CCC        |||   CCC        CCC            >>>
    <<<        CCC        CCC        |||   CCC        CCC              >>>
      <<<      CCC        CCC        |||   CCC        CCC            >>>
       <<<      CCC        CCC       |||    CCC        CCC         >>>
         <<<     CCCCCC     CCCCCC   |||     CCCCCC     CCCCCC   >>>
   *************************************************************************

     ****************************************************************
     * CFOUR Coupled-Cluster techniques for Computational Chemistry *
     ****************************************************************
 

   Department of Chemistry                Institut fuer Physikalische Chemie
   University of Florida                  Universitaet Mainz
   Gainesville, FL 32611, USA             D-55099 Mainz, Germany

   Department of Chemistry                Fakultaet fuer Chemie und Biowiss.
   Johns Hopkins University               Karlsruher Institut fuer Technologie
   Baltimore, MD 21218, USA               D-76131 Karlsruhe, Germany

   Department of Chemistry                Department of Physical Chemistry
   Southern Methodist University          Eotvos Lorand University
   Dallas, TX 75275, USA                  H-1053 Budapest, Hungary

 
                       Version 2.1
 
                     vincent.theory.phys.ucl.ac.uk                     
                     Fri 28 Feb 06:50:58 GMT 2025                      
                     integer*8 version is running
 
********************************************************************************
*                          Input from ZMAT file                                *
********************************************************************************
Carbon Monoxide DBOC calculation                                                
C                                                                               
O 1 r                                                                           
                                                                                
r=1.5517241379310345                                                            
                                                                                
                                                                                
*CFOUR(CALC=CCSD,BASIS=AUG-PCVQZ,SCF_CONV=10                                    
CC_CONV=14,DBOC=ON,MEMORY=500000000                                             
ZFIELD=-200)                                                                    
                                                                                
%isotopes                                                                       
13                                                                              
16                                                                              
********************************************************************************
  @GTFLGS-I, Hessian will be transformed to curvilinear coordinates.
    -------------------------------------------------------------------
                    CFOUR Control Parameters 
    -------------------------------------------------------------------
        External           Internal           Value            Units
          Name               Name
    -------------------------------------------------------------------
       ABCDTYPE             IABCDT         STANDARD    [  0]    ***   
       ANHARMONIC           IANHAR         OFF         [  0]    ***   
       ANH_ALGORIT          IANALG         STANDARD    [  0]    ***   
       ANH_DERIVAT          IANDER         SECOND      [  1]    ***   
       ANH_MODE             ANHMOD         VIBRATION   [  0]    ***   
       ANH_STEPSIZ          ICUBST             50000          x 10-6  
       ANH_SYMMETR          IANHSM         ABELIAN     [  0]    ***   
       AO_LADDERS           IAOLAD         SINGLEPASS  [  1]    ***   
       AV_SCF               IAVSCF         OFF         [  0]    ***   
       BASIS                IBASIS         AUG-PCVQZ   [ 52]    ***   
       BOTHVECTORS          BOTHVC         OFF         [  0]    ***   
       BOX_POTENT           IPIAB          OFF         [  0]    ***   
       BREIT                IBREIT         OFF         [  0]    ***   
       BRUCK_CONV           IBRTOL          10D-  4             ***   
       BRUECKNER            IBRKNR         OFF         [  0]    ***   
       BUFFERSIZE           IBUFFS              4096            ***   
       CACHE_RECS           ICHREC             10               ***   
       CALCLEVEL            ICLLVL         CCSD        [ 10]    ***   
       CCORBOPT             ICCORB         OFF         [  0]  x 0.01  
       CC_CONV              ICCCNV          10D- 14             ***   
       CC_EXPORDER          ICCEOR              5               ***   
       CC_EXTRAPOL          ICCEXT         DIIS        [  1]    ***   
       CC_GUESS             ICCGES         MP2         [  0]    ***   
       CC_MAXCYC            ICCCYC            100              cycles 
       CC_PROGRAM           ICCPRO         VCC         [  0]    ***   
       CHARGE               ICHRGE              0               ***   
       CHOLESKY             ICHOLE         OFF         [  0]    ***   
       CIS_CONV             ICISTL              5               ***   
       COMM_SIZE            IPSIZE            ***               ***   
       CONSTANT             ICONST         OLD         [  1]    ***   
       CONTINUUM            ICONTU         NONE        [  0]    ***   
       CONTRACTION          ICNTYP         GENERAL     [  1]    ***   
       COORDINATES          ICOORD         INTERNAL    [  0]    ***   
       CPHF_CONVER          ICPHFT          10D- 16             ***   
       CPHF_MAXCYC          ICPHFC             64              cycles 
       CUBIC                ICUBIC         OFF         [  0]    ***   
       CURVILINEAR          ICURVY         ON          [  1]    ***   
       DBOC                 IDBOC          ON          [  1]    ***   
       DCT                  IDCT           OFF         [  0]    ***   
       DERIV_LEV            IDRLVL         SECOND      [  2]    ***   
       DEVMEM_SIZE          IDVMEM          50000000           MByte  
       DIAG_MRCC            IEOMST          10D-  0             ***   
       DIFF_TYPE            IDIFTY         RELAXED     [  0]    ***   
       DIRECT               IDIRCT         OFF         [  0]    ***   
       DROPMO               IDRPMO      NONE         
       ECP                  IECP           OFF         [  0]    ***   
       EIGENVECTOR          IVEC                1               ***   
       EL_ANHARM            IELANH         OFF         [  0]    ***   
       EOMFOLLOW            IEOMSR         ENERGY      [  0]    ***   
       EOMIP                IEOMIP         OFF         [  0]    ***   
       EOMLEVEL             HBARFM         SAME        [  0]    ***   
       EOM_MRCC             IMRCCE         NEW         [  1]    ***   
       EOM_NONIT            EOMNON         OFF         [  0]    ***   
       EOM_NSING            IEOMSI          10D-  0             ***   
       EOM_NSTATES          IMRCCD         DAVIDSON    [  0]    ***   
       EOM_NTRIP            IEOMTR          10D-  0             ***   
       EOM_ORDER            IEXORD         ENERGY      [  0]    ***   
       EOM_PROPSTA          IEOMST              0               ***   
       ESTATE_CONV          IEXTOL          10D-  5             ***   
       ESTATE_DIAG          IEXDIG         ITERATIVE   [  0]    ***   
       ESTATE_LOCK          IESLOC         ON          [  1]    ***   
       ESTATE_MAXC          IEXMXC             40               ***   
       ESTATE_PROP          IEXPRP         OFF         [  0]    ***   
       EVAL_HESS            IRECAL              0            # of cyc.
       EXCITATION           IEXCIT              0               ***   
       EXCITE               IEXCIT         NONE        [  0]    ***   
       EXTERN_POT           IEXPOT         OFF         [  0]    ***   
       FCGRADNEW            IFCGNW         OFF         [  0]    ***   
       FC_FIELD             IFINFC              0             x 10-6  
       FD_CALTYPE           IFDCAL         GRADONLY    [  0]    ***   
       FD_PROJECT           IFDPRJ         OFF         [  1]    ***   
       FD_STEPSIZE          IDISFD              0            10-4 bohr
       FD_USEGROUP          IFDGRP         FULL        [  0]    ***   
       FILE_RECSIZ          IFLREC              4096           words  
       FINITE_PERT          IFIPER              0             x 10-6  
       FIXGEOM              IFIXGM         OFF         [  0]    ***   
       FOCK                 IFOCK          AO          [  1]    ***   
       FREQ_ALGORI          IVIALG         STANDARD    [  0]    ***   
       FROZEN_CORE          IFROCO         OFF         [  0]    ***   
       GAMMA_ABCD           IGABCD         STORE       [  0]    ***   
       GAMMA_ABCI           IGABCI         STORE       [  0]    ***   
       GENBAS_1             IGNBS1              0               ***   
       GENBAS_2             IGNBS2              0               ***   
       GENBAS_3             IGNBS3              0               ***   
       GENBAS_4             IGNBS4              0               ***   
       GEO_CONV             ICONTL              5              H/bohr 
       GEO_MAXCYC           IOPTCY             50               ***   
       GEO_MAXSTEP          IMXSTP            300            millibohr
       GEO_METHOD           INR            SINGLE_POINT[  5]    ***   
       GIAO                 IGIAO          OFF         [  1]    ***   
       GIMIC                IGIMIC         OFF         [  0]    ***   
       GRID                 IGRID          OFF         [  0]    ***   
       GRID_ALGO            IGALGO         SERIAL      [  0]    ***   
       GUESS                IGUESS         MOREAD      [  0]    ***   
       HBAR                 IHBAR          OFF         [  0]    ***   
       HESS_TYPE            IHESTP         SCF         [  0]    ***   
       HF2_FILE             IHF2Fl         USE         [  1]    ***   
       HFSTABILITY          ISTABL         OFF         [  0]    ***   
       INCORE               INCORE         OFF         [  0]    ***   
       INPUT_MRCC           IMRCC          ON          [  1]    ***   
       INTEGRALS            INTTYP         VMOL        [  1]    ***   
       JODA_PRINT           IJPRNT              0               ***   
       KEYWORD_OUT          IDMPKW         NO          [  0]    ***   
       LINDEP_TOL           ILINDP              8               ***   
       LINEQ_CONV           IZTACN          10D-  7           cycles  
       LINEQ_EXPOR          ILMAXD              5               ***   
       LINEQ_MAXCY          ILMAXC            100               ***   
       LINEQ_TYPE           ILTYPE         DIIS        [  1]    ***   
       LOCK_ORBOCC          ILOCOC         OFF         [  0]    ***   
       MEMORY_SIZE          IMEMSZ         500000000           words  
       MEM_UNIT             IMEMU          INTEGERWORDS[  0]    ***   
       MRCC                 IMRCCC         OFF         [  0]    ***   
       MULTIPLICTY          IMULTP              1               ***   
       NACOUPLING           IVCOUP         OFF         [  0]    ***   
       NEGEVAL              IDIE           ABORT       [  0]    ***   
       NEWNORM              INEWNO         OFF         [  0]    ***   
       NON-HF               INONHF         OFF         [  0]    ***   
       NTOP_TAMP            ITOPT2             15               ***   
       NUC_MODEL            INUCMO         POINT       [  0]    ***   
       OCCUPATION           IOCCU   ESTIMATED BY SCF 
       OPEN-SHELL           IOPEN          SPIN-ORBITAL[  0]    ***   
       OPTVIB               IOPTVB         OFF         [  0]    ***   
       ORBITALS             IORBTP         STANDARD    [  0]    ***   
       PARALLEL             IPARAL         ON          [  1]    ***   
       PARA_INT             IPINTS         ON          [  1]    ***   
       PARA_PRINT           IPPRIN              0               ***   
       PERT_ORB             IPTORB         STANDARD    [  0]    ***   
       POINTS               IGRDFD              0               ***   
       PRINT                IPRNT               0               ***   
       PROPS                IPROPS         OFF         [  0]    ***   
       PROP_INTEGR          IINTYP         INTERNAL    [  0]    ***   
       PSI                  IPSI           OFF         [  0]    ***   
       QC_ALG               IQCALG         FLM         [  0]    ***   
       QC_LINALG            IQCLIN         TRIDIAG     [  2]    ***   
       QC_MAXCYC            IQCMAX          10D-100           cycles  
       QC_MAXSCFCY          IQCMSC          10D- 15           cycles  
       QC_RTRUST            IQCRTR          10D-  0           x 10-3  
       QC_SKIPSCF           IQCSKI         OFF         [  0]    ***   
       QC_START             IQCSTA          10D-  1             ***   
       QRHFGUESS            IQGUES         OFF         [  0]    ***   
       QUARTIC              IQUART         OFF         [  0]    ***   
       RAMAN_INT            IRAMIN         OFF         [  0]    ***   
       RAMAN_ORB            IRAMRE         UNRELAXED   [  0]    ***   
       RDO                  IRDOFM         ON          [  1]    ***   
       REDUCE_REPR          REDREP         Ir          [  0]    ***   
       REFERENCE            IREFNC         RHF         [  0]    ***   
       RELATIVIST           IRELAT         OFF         [  0]    ***   
       RELAX_DENS           IRDENS         ON          [  1]    ***   
       RESET_FLAGS          IRESET         OFF         [  0]    ***   
       RESTART_CC           ICCRES         OFF         [  0]    ***   
       ROT_EVEC             ROTVEC              0               ***   
       SAVE_INTS            ISVINT         OFF         [  0]    ***   
       SCALE_ON             ISTCRT              0               ***   
       SCF_CONV             ISCFCV          10D- 10             ***   
       SCF_DAMPING          IDAMP               0             x 10-3  
       SCF_EXPORDE          IRPPOR              6               ***   
       SCF_EXPSTAR          IRPPLS              8               ***   
       SCF_EXTRAPO          IRPP           ON          [  1]    ***   
       SCF_MAXCYC           ISCFCY            150              cycles 
       SCF_NOSTOP           ISCFST         OFF         [  0]    ***   
       SCF_PRINT            ISCFPR              0               ***   
       SCF_PROG             ISCFPR         SCF         [  0]    ***   
       SD_FIELD             IFINSD              0             x 10-6  
       SOPERT               IPERSO         OFF         [  0]    ***   
       SPHERICAL            IDFGHI         ON          [  1]    ***   
       SPINORBIT            ISOCAL         OFF         [  0]    ***   
       SPINROTATIO          ISRCON         OFF         [  0]    ***   
       SPIN_FLIP            ISPFLP         OFF         [  0]    ***   
       SPIN_ORBIT           ISPORB         OFF         [  0]    ***   
       SPIN_SCAL            ISCSMP         OFF         [  0]    ***   
       STEEPSCALE           ISTPSC              1000          x 10-3  
       SUBGROUP             ISUBGP         DEFAULT     [  0]    ***   
       SUBGRPAXIS           ISBXYZ         X           [  0]    ***   
       SYMMETRY             ISYM           ON          [  0]    ***   
       SYM_CHECK            ISYMCK         OVERRIDE    [  1]    ***   
       T3_EXTRAPOL          IT3EXT         OFF         [  0]    ***   
       T4_EXTRAPOL          IT4EXP         OFF         [  0]    ***   
       TAMP_SUM             IEVERY              5               ***   
       TESTSUITE            ITESTS         OFF         [  0]    ***   
       THERMOCH             ITHERM         OFF         [  0]    ***   
       TOL_CHOLESK          ITOLCH          10D-  4             ***   
       TRANGRAD             IRESRM         OFF         [  0]    ***   
       TRANS_INV            ITRAIN         IGNORE      [  1]    ***   
       TREAT_PERT           ITREAT         SIMULTANEOUS[  0]    ***   
       TRIP_ALGORI          ITRALG         NORMAL      [  0]    ***   
       UIJ_THRESHO          IUIJTH              1               ***   
       UNITS                IUNITS         ANGSTROM    [  0]    ***   
       UNOS                 IUNOS          OFF         [  0]    ***   
       UPDATE_HESS          IHUPDT         ON          [  1]    ***   
       VIBPHASE             ISETPH         STANDARD    [  0]    ***   
       VIBRATION            IVIB           ANALYTIC    [  1]    ***   
       VIB_ALGORIT          IGEALG         STANDARD    [  0]    ***   
       VNATORB              IVNORB         OFF         [  0]    ***   
       VTRAN                IVTRAN         FULL/PARTIAL[  0]    ***   
       XFIELD               IXEFLD              0             x 10-6  
       XFORM_TOL            IXFTOL          10D- 11             ***   
       YFIELD               IYEFLD              0             x 10-6  
       ZFIELD               IZEFLD            ***             x 10-6  
       ZSCALE_EXP           IZEXPS         OFF         [  0]    ***   
    -------------------------------------------------------------------
   2 entries found in Z-matrix 
   Job Title : Carbon Monoxide DBOC calculation                                                
   There are  1 unique internal coordinates.
   Of these,  0 will be optimized.
   User supplied Z-matrix: 
--------------------------------------------------------------------------------
       SYMBOL    BOND      LENGTH    ANGLE     ANGLE     DIHED     ANGLE
                  TO      (ANGST)    WRT      (DEG)      WRT      (DEG)
--------------------------------------------------------------------------------
        C    
        O          1         r    
                  *Initial values for internal coordinates* 
                      Name             Value
                        r               1.5517241379
--------------------------------------------------------------------------------
  read isotopes from ZMAT file 
   Rotational constants (in cm-1): 
          0.9761178723             0.9761178723
   Rotational constants (in MHz): 
      29263.2817238547         29263.2817238547
********************************************************************************
   The full molecular point group is CXv .
   The largest Abelian subgroup of the full molecular point group is C2v .
   The computational point group is C2v .
********************************************************************************
--------------------------------------------------------------------------------
   Analysis of internal coordinates specified by Z-matrix 
--------------------------------------------------------------------------------
   *The nuclear repulsion energy is   16.369211626666665 a.u.
   *There is   1 degree of freedom within the tot. symm. molecular subspace.
   *Z-matrix requests optimization of   0 coordinates.
   *The optimization is constrained.
   *The following   1 parameters can have non-zero 
    derivatives within the totally symmetric subspace:
             r    [ 1]
   *The following   0 parameters are to be optimized:

   *The following coordinates must be varied in an  unconstrained optimization.
             r    [ 1]
--------------------------------------------------------------------------------


 ----------------------------------------------------------------
         Coordinates used in calculation (QCOMP) 
 ----------------------------------------------------------------
 Z-matrix   Atomic            Coordinates (in bohr)
  Symbol    Number           X              Y              Z
 ----------------------------------------------------------------
     C         6        -0.00000000     0.00000000     1.61742190
     O         8         0.00000000     0.00000000    -1.31491236
 ----------------------------------------------------------------
 
   Interatomic distance matrix (Angstroms) 
 
                 C             O    
                [ 1]        [ 2]
  C    [ 1]     0.00000
  O    [ 2]     1.55172     0.00000
 rotcon2
   Rotational constants (in cm-1): 
          0.9761178723             0.0000000000
   Rotational constants (in MHz): 
      29263.2817238547             0.0000000000
  ECPDATA file not present.   Using default ECPDATA. 
  @GTFLGS-I, Hessian will be transformed to curvilinear coordinates.
  There are  218 basis functions.
 @CHECKOUT-I, Total execution time (CPU/WALL):        0.15/       0.19 seconds.
--executable xjoda finished with status     0 in        0.22 seconds (walltime).
 --invoking executable--
/nfs/workspaces/public/cfour_mpi/bin/xvmol
 SERIAL VERSION OF MOLECULE STARTED
********************************************************************************
                    INPUT FROM MOL FILE
********************************************************************************
INTGRL        1    0    1    0    0    0    0    0    0                         
         *** CFOUR Program System (Release V0.1) ***                            
Carbon Monoxide DBOC calculation                                                
    2    2 X  Y       0.10E-08              0    0                              
   9999.00      3.00                                                            
          6.00000000    1    5    1    1    1    1    1                         
C #1  -0.000000000000000   0.000000000000000   1.617421900498061                
   16    9                                                                      
   33980.0000000000       9.100000000000000E-005 -1.900000000000000E-005        
  0.000000000000000E+000  0.000000000000000E+000  0.000000000000000E+000        
  0.000000000000000E+000  0.000000000000000E+000  0.000000000000000E+000        
  0.000000000000000E+000                                                        
   5089.00000000000       7.040000000000000E-004 -1.510000000000000E-004        
  0.000000000000000E+000  0.000000000000000E+000  0.000000000000000E+000        
  0.000000000000000E+000  0.000000000000000E+000  0.000000000000000E+000        
  0.000000000000000E+000                                                        
   1157.00000000000       3.693000000000000E-003 -7.850000000000000E-004        
  0.000000000000000E+000  0.000000000000000E+000  0.000000000000000E+000        
  0.000000000000000E+000  0.000000000000000E+000  0.000000000000000E+000        
  0.000000000000000E+000                                                        
   326.600000000000       1.536000000000000E-002 -3.324000000000000E-003        
  0.000000000000000E+000  0.000000000000000E+000  0.000000000000000E+000        
  0.000000000000000E+000  0.000000000000000E+000  0.000000000000000E+000        
  0.000000000000000E+000                                                        
   106.100000000000       5.292900000000000E-002 -1.151200000000000E-002        
  0.000000000000000E+000  0.000000000000000E+000  0.000000000000000E+000        
  0.000000000000000E+000  0.000000000000000E+000  0.000000000000000E+000        
  0.000000000000000E+000                                                        
   38.1100000000000       0.147043000000000      -3.416000000000000E-002        
  0.000000000000000E+000  0.000000000000000E+000  0.000000000000000E+000        
  0.000000000000000E+000  0.000000000000000E+000  0.000000000000000E+000        
  0.000000000000000E+000                                                        
   14.7500000000000       0.305631000000000      -7.717300000000001E-002        
  0.000000000000000E+000  0.000000000000000E+000  0.000000000000000E+000        
  0.000000000000000E+000  0.000000000000000E+000  0.000000000000000E+000        
  0.000000000000000E+000                                                        
   6.03500000000000       0.399345000000000      -0.141493000000000             
  0.000000000000000E+000  0.000000000000000E+000  0.000000000000000E+000        
  0.000000000000000E+000  0.000000000000000E+000  0.000000000000000E+000        
  0.000000000000000E+000                                                        
   2.53000000000000       0.217051000000000      -0.118019000000000             
  0.000000000000000E+000  0.000000000000000E+000  0.000000000000000E+000        
  0.000000000000000E+000  0.000000000000000E+000  0.000000000000000E+000        
  0.000000000000000E+000                                                        
  0.735500000000000       1.589400000000000E-002  0.273806000000000             
   1.00000000000000       0.000000000000000E+000  0.000000000000000E+000        
  0.000000000000000E+000  0.000000000000000E+000  0.000000000000000E+000        
  0.000000000000000E+000                                                        
  0.290500000000000      -3.084000000000000E-003  0.586510000000000             
  0.000000000000000E+000   1.00000000000000       0.000000000000000E+000        
  0.000000000000000E+000  0.000000000000000E+000  0.000000000000000E+000        
  0.000000000000000E+000                                                        
  0.111100000000000       9.779999999999999E-004  0.285430000000000             
  0.000000000000000E+000  0.000000000000000E+000   1.00000000000000             
  0.000000000000000E+000  0.000000000000000E+000  0.000000000000000E+000        
  0.000000000000000E+000                                                        
   7.21600000000000       0.000000000000000E+000  0.000000000000000E+000        
  0.000000000000000E+000  0.000000000000000E+000  0.000000000000000E+000        
   1.00000000000000       0.000000000000000E+000  0.000000000000000E+000        
  0.000000000000000E+000                                                        
   19.5700000000000       0.000000000000000E+000  0.000000000000000E+000        
  0.000000000000000E+000  0.000000000000000E+000  0.000000000000000E+000        
  0.000000000000000E+000   1.00000000000000       0.000000000000000E+000        
  0.000000000000000E+000                                                        
   53.0730000000000       0.000000000000000E+000  0.000000000000000E+000        
  0.000000000000000E+000  0.000000000000000E+000  0.000000000000000E+000        
  0.000000000000000E+000  0.000000000000000E+000   1.00000000000000             
  0.000000000000000E+000                                                        
  4.145000000000000E-002  0.000000000000000E+000  0.000000000000000E+000        
  0.000000000000000E+000  0.000000000000000E+000  0.000000000000000E+000        
  0.000000000000000E+000  0.000000000000000E+000  0.000000000000000E+000        
   1.00000000000000                                                             
   10    8                                                                      
   34.5100000000000       5.378000000000000E-003  0.000000000000000E+000        
  0.000000000000000E+000  0.000000000000000E+000  0.000000000000000E+000        
  0.000000000000000E+000  0.000000000000000E+000  0.000000000000000E+000        
   7.91500000000000       3.613200000000000E-002  0.000000000000000E+000        
  0.000000000000000E+000  0.000000000000000E+000  0.000000000000000E+000        
  0.000000000000000E+000  0.000000000000000E+000  0.000000000000000E+000        
   2.36800000000000       0.142493000000000       0.000000000000000E+000        
  0.000000000000000E+000  0.000000000000000E+000  0.000000000000000E+000        
  0.000000000000000E+000  0.000000000000000E+000  0.000000000000000E+000        
  0.813200000000000       0.342150000000000        1.00000000000000             
  0.000000000000000E+000  0.000000000000000E+000  0.000000000000000E+000        
  0.000000000000000E+000  0.000000000000000E+000  0.000000000000000E+000        
  0.289000000000000       0.463864000000000       0.000000000000000E+000        
   1.00000000000000       0.000000000000000E+000  0.000000000000000E+000        
  0.000000000000000E+000  0.000000000000000E+000  0.000000000000000E+000        
  0.100700000000000       0.250028000000000       0.000000000000000E+000        
  0.000000000000000E+000   1.00000000000000       0.000000000000000E+000        
  0.000000000000000E+000  0.000000000000000E+000  0.000000000000000E+000        
   8.18200000000000       0.000000000000000E+000  0.000000000000000E+000        
  0.000000000000000E+000  0.000000000000000E+000   1.00000000000000             
  0.000000000000000E+000  0.000000000000000E+000  0.000000000000000E+000        
   24.1860000000000       0.000000000000000E+000  0.000000000000000E+000        
  0.000000000000000E+000  0.000000000000000E+000  0.000000000000000E+000        
   1.00000000000000       0.000000000000000E+000  0.000000000000000E+000        
   71.4940000000000       0.000000000000000E+000  0.000000000000000E+000        
  0.000000000000000E+000  0.000000000000000E+000  0.000000000000000E+000        
  0.000000000000000E+000   1.00000000000000       0.000000000000000E+000        
  3.218000000000000E-002  0.000000000000000E+000  0.000000000000000E+000        
  0.000000000000000E+000  0.000000000000000E+000  0.000000000000000E+000        
  0.000000000000000E+000  0.000000000000000E+000   1.00000000000000             
    6    6                                                                      
   1.84800000000000        1.00000000000000       0.000000000000000E+000        
  0.000000000000000E+000  0.000000000000000E+000  0.000000000000000E+000        
  0.000000000000000E+000                                                        
  0.649000000000000       0.000000000000000E+000   1.00000000000000             
  0.000000000000000E+000  0.000000000000000E+000  0.000000000000000E+000        
  0.000000000000000E+000                                                        
  0.228000000000000       0.000000000000000E+000  0.000000000000000E+000        
   1.00000000000000       0.000000000000000E+000  0.000000000000000E+000        
  0.000000000000000E+000                                                        
   8.65600000000000       0.000000000000000E+000  0.000000000000000E+000        
  0.000000000000000E+000   1.00000000000000       0.000000000000000E+000        
  0.000000000000000E+000                                                        
   33.2130000000000       0.000000000000000E+000  0.000000000000000E+000        
  0.000000000000000E+000  0.000000000000000E+000   1.00000000000000             
  0.000000000000000E+000                                                        
  7.660000000000000E-002  0.000000000000000E+000  0.000000000000000E+000        
  0.000000000000000E+000  0.000000000000000E+000  0.000000000000000E+000        
   1.00000000000000                                                             
    4    4                                                                      
   1.41900000000000        1.00000000000000       0.000000000000000E+000        
  0.000000000000000E+000  0.000000000000000E+000                                
  0.485000000000000       0.000000000000000E+000   1.00000000000000             
  0.000000000000000E+000  0.000000000000000E+000                                
   24.6940000000000       0.000000000000000E+000  0.000000000000000E+000        
   1.00000000000000       0.000000000000000E+000                                
  0.187000000000000       0.000000000000000E+000  0.000000000000000E+000        
  0.000000000000000E+000   1.00000000000000                                     
    2    2                                                                      
   1.01100000000000        1.00000000000000       0.000000000000000E+000        
  0.424000000000000       0.000000000000000E+000   1.00000000000000             
          8.00000000    1    5    1    1    1    1    1                         
O #2   0.000000000000000   0.000000000000000  -1.314912355710370                
   16    9                                                                      
   61420.0000000000       9.000000000000001E-005 -2.000000000000000E-005        
  0.000000000000000E+000  0.000000000000000E+000  0.000000000000000E+000        
  0.000000000000000E+000  0.000000000000000E+000  0.000000000000000E+000        
  0.000000000000000E+000                                                        
   9199.00000000000       6.980000000000001E-004 -1.590000000000000E-004        
  0.000000000000000E+000  0.000000000000000E+000  0.000000000000000E+000        
  0.000000000000000E+000  0.000000000000000E+000  0.000000000000000E+000        
  0.000000000000000E+000                                                        
   2091.00000000000       3.664000000000000E-003 -8.290000000000000E-004        
  0.000000000000000E+000  0.000000000000000E+000  0.000000000000000E+000        
  0.000000000000000E+000  0.000000000000000E+000  0.000000000000000E+000        
  0.000000000000000E+000                                                        
   590.900000000000       1.521800000000000E-002 -3.508000000000000E-003        
  0.000000000000000E+000  0.000000000000000E+000  0.000000000000000E+000        
  0.000000000000000E+000  0.000000000000000E+000  0.000000000000000E+000        
  0.000000000000000E+000                                                        
   192.300000000000       5.242300000000000E-002 -1.215600000000000E-002        
  0.000000000000000E+000  0.000000000000000E+000  0.000000000000000E+000        
  0.000000000000000E+000  0.000000000000000E+000  0.000000000000000E+000        
  0.000000000000000E+000                                                        
   69.3200000000000       0.145921000000000      -3.626100000000000E-002        
  0.000000000000000E+000  0.000000000000000E+000  0.000000000000000E+000        
  0.000000000000000E+000  0.000000000000000E+000  0.000000000000000E+000        
  0.000000000000000E+000                                                        
   26.9700000000000       0.305258000000000      -8.299200000000000E-002        
  0.000000000000000E+000  0.000000000000000E+000  0.000000000000000E+000        
  0.000000000000000E+000  0.000000000000000E+000  0.000000000000000E+000        
  0.000000000000000E+000                                                        
   11.1000000000000       0.398508000000000      -0.152090000000000             
  0.000000000000000E+000  0.000000000000000E+000  0.000000000000000E+000        
  0.000000000000000E+000  0.000000000000000E+000  0.000000000000000E+000        
  0.000000000000000E+000                                                        
   4.68200000000000       0.216980000000000      -0.115331000000000             
  0.000000000000000E+000  0.000000000000000E+000  0.000000000000000E+000        
  0.000000000000000E+000  0.000000000000000E+000  0.000000000000000E+000        
  0.000000000000000E+000                                                        
   1.42800000000000       1.759400000000000E-002  0.288979000000000             
   1.00000000000000       0.000000000000000E+000  0.000000000000000E+000        
  0.000000000000000E+000  0.000000000000000E+000  0.000000000000000E+000        
  0.000000000000000E+000                                                        
  0.554700000000000      -2.502000000000000E-003  0.586128000000000             
  0.000000000000000E+000   1.00000000000000       0.000000000000000E+000        
  0.000000000000000E+000  0.000000000000000E+000  0.000000000000000E+000        
  0.000000000000000E+000                                                        
  0.206700000000000       9.540000000000000E-004  0.277624000000000             
  0.000000000000000E+000  0.000000000000000E+000   1.00000000000000             
  0.000000000000000E+000  0.000000000000000E+000  0.000000000000000E+000        
  0.000000000000000E+000                                                        
   12.9740000000000       0.000000000000000E+000  0.000000000000000E+000        
  0.000000000000000E+000  0.000000000000000E+000  0.000000000000000E+000        
   1.00000000000000       0.000000000000000E+000  0.000000000000000E+000        
  0.000000000000000E+000                                                        
   34.9000000000000       0.000000000000000E+000  0.000000000000000E+000        
  0.000000000000000E+000  0.000000000000000E+000  0.000000000000000E+000        
  0.000000000000000E+000   1.00000000000000       0.000000000000000E+000        
  0.000000000000000E+000                                                        
   93.8810000000000       0.000000000000000E+000  0.000000000000000E+000        
  0.000000000000000E+000  0.000000000000000E+000  0.000000000000000E+000        
  0.000000000000000E+000  0.000000000000000E+000   1.00000000000000             
  0.000000000000000E+000                                                        
  6.959000000000000E-002  0.000000000000000E+000  0.000000000000000E+000        
  0.000000000000000E+000  0.000000000000000E+000  0.000000000000000E+000        
  0.000000000000000E+000  0.000000000000000E+000  0.000000000000000E+000        
   1.00000000000000                                                             
   10    8                                                                      
   63.4200000000000       6.044000000000000E-003  0.000000000000000E+000        
  0.000000000000000E+000  0.000000000000000E+000  0.000000000000000E+000        
  0.000000000000000E+000  0.000000000000000E+000  0.000000000000000E+000        
   14.6600000000000       4.179900000000000E-002  0.000000000000000E+000        
  0.000000000000000E+000  0.000000000000000E+000  0.000000000000000E+000        
  0.000000000000000E+000  0.000000000000000E+000  0.000000000000000E+000        
   4.45900000000000       0.161143000000000       0.000000000000000E+000        
  0.000000000000000E+000  0.000000000000000E+000  0.000000000000000E+000        
  0.000000000000000E+000  0.000000000000000E+000  0.000000000000000E+000        
   1.53100000000000       0.356731000000000        1.00000000000000             
  0.000000000000000E+000  0.000000000000000E+000  0.000000000000000E+000        
  0.000000000000000E+000  0.000000000000000E+000  0.000000000000000E+000        
  0.530200000000000       0.448309000000000       0.000000000000000E+000        
   1.00000000000000       0.000000000000000E+000  0.000000000000000E+000        
  0.000000000000000E+000  0.000000000000000E+000  0.000000000000000E+000        
  0.175000000000000       0.244940000000000       0.000000000000000E+000        
  0.000000000000000E+000   1.00000000000000       0.000000000000000E+000        
  0.000000000000000E+000  0.000000000000000E+000  0.000000000000000E+000        
   14.4750000000000       0.000000000000000E+000  0.000000000000000E+000        
  0.000000000000000E+000  0.000000000000000E+000   1.00000000000000             
  0.000000000000000E+000  0.000000000000000E+000  0.000000000000000E+000        
   42.7300000000000       0.000000000000000E+000  0.000000000000000E+000        
  0.000000000000000E+000  0.000000000000000E+000  0.000000000000000E+000        
   1.00000000000000       0.000000000000000E+000  0.000000000000000E+000        
   126.140000000000       0.000000000000000E+000  0.000000000000000E+000        
  0.000000000000000E+000  0.000000000000000E+000  0.000000000000000E+000        
  0.000000000000000E+000   1.00000000000000       0.000000000000000E+000        
  5.348000000000000E-002  0.000000000000000E+000  0.000000000000000E+000        
  0.000000000000000E+000  0.000000000000000E+000  0.000000000000000E+000        
  0.000000000000000E+000  0.000000000000000E+000   1.00000000000000             
    6    6                                                                      
   3.77500000000000        1.00000000000000       0.000000000000000E+000        
  0.000000000000000E+000  0.000000000000000E+000  0.000000000000000E+000        
  0.000000000000000E+000                                                        
   1.30000000000000       0.000000000000000E+000   1.00000000000000             
  0.000000000000000E+000  0.000000000000000E+000  0.000000000000000E+000        
  0.000000000000000E+000                                                        
  0.444000000000000       0.000000000000000E+000  0.000000000000000E+000        
   1.00000000000000       0.000000000000000E+000  0.000000000000000E+000        
  0.000000000000000E+000                                                        
   14.9270000000000       0.000000000000000E+000  0.000000000000000E+000        
  0.000000000000000E+000   1.00000000000000       0.000000000000000E+000        
  0.000000000000000E+000                                                        
   57.5440000000000       0.000000000000000E+000  0.000000000000000E+000        
  0.000000000000000E+000  0.000000000000000E+000   1.00000000000000             
  0.000000000000000E+000                                                        
  0.154000000000000       0.000000000000000E+000  0.000000000000000E+000        
  0.000000000000000E+000  0.000000000000000E+000  0.000000000000000E+000        
   1.00000000000000                                                             
    4    4                                                                      
   2.66600000000000        1.00000000000000       0.000000000000000E+000        
  0.000000000000000E+000  0.000000000000000E+000                                
  0.859000000000000       0.000000000000000E+000   1.00000000000000             
  0.000000000000000E+000  0.000000000000000E+000                                
   26.4830000000000       0.000000000000000E+000  0.000000000000000E+000        
   1.00000000000000       0.000000000000000E+000                                
  0.324000000000000       0.000000000000000E+000  0.000000000000000E+000        
  0.000000000000000E+000   1.00000000000000                                     
    2    2                                                                      
   1.84600000000000        1.00000000000000       0.000000000000000E+000        
  0.714000000000000       0.000000000000000E+000   1.00000000000000             
FINISH                                                                          
 
********************************************************************************
 ONE- AND TWO-ELECTRON INTEGRALS OVER SYMMETRY-ADAPTED AOS ARE CALCULATED.

  SPHERICAL HARMONICS ARE USED.
  
  INTEGRALS LESS THAN  0.10E-13 ARE NEGLECTED.

  NUCLEAR REPULSION ENERGY :   16.3692116267 A.U.
  @MOLECU-I, ONE ELECTRON INTEGRALS (CPU/WALL):        0.05/       0.07 SECONDS.
  @TWOEL-I,    4451187 INTEGRALS OF SYMMETRY TYPE  I I I I
  @TWOEL-I,   19201619 INTEGRALS OF SYMMETRY TYPE  I J I J
  @TWOEL-I,   10110458 INTEGRALS OF SYMMETRY TYPE  I I J J
  @TWOEL-I,   14196382 INTEGRALS OF SYMMETRY TYPE  I J K L
  @TWOEL-I, TOTAL NUMBER OF 2-E INTEGRALS   47959646.
  @MOLECU-I, TWO ELECTRON INTEGRALS (CPU/WALL):      230.09/      31.47 SECONDS.
 @CHECKOUT-I, Total execution time (CPU/WALL):      230.16/      31.56 seconds.

Running with 14 threads/proc

--executable xvmol finished with status     0 in       31.60 seconds (walltime).
 --invoking executable--
/nfs/workspaces/public/cfour_mpi/bin/xvmol2ja
 @GETMEM-I,  Allocated    3814 MB of main memory.
 @CHECKOUT-I, Total execution time (CPU/WALL):        0.20/       0.08 seconds.
--executable xvmol2ja finished with status     0 in        0.11 seconds (walltime).
 --invoking executable--
/nfs/workspaces/public/cfour_mpi/bin/xvprop
 @GETMEM-I,  Allocated    3814 MB of main memory.
   Property integrals will be calculated.
    --------------------------------------------------------------
                                   Property evaluated at 
    Property type                X             Y             Z
    --------------------------------------------------------------
    Dipole moment               ----          ----          ----  
    Quadrupole moment           ----          ----          ----  
    Octopole moment             ----          ----          ----  
    Relativisitic corr.         ----          ----          ----  
    Second moment            0.0000000     0.0000000     0.0000000
    Electron density         0.0000000     0.0000000     1.6174219
    Electron density         0.0000000     0.0000000    -1.3149124
    Field gradient           0.0000000     0.0000000     1.6174219
    Field gradient           0.0000000     0.0000000    -1.3149124
    Potential                0.0000000     0.0000000     1.6174219
    Potential                0.0000000     0.0000000    -1.3149124
    --------------------------------------------------------------
 @CHECKOUT-I, Total execution time (CPU/WALL):        1.33/       1.36 seconds.
--executable xvprop finished with status     0 in        1.43 seconds (walltime).
 --invoking executable--
/nfs/workspaces/public/cfour_mpi/bin/xvscf
  There are  218 functions in the AO basis.

  There are 4 irreducible representations.

       Irrep        # of functions
         1                 86
         2                 52
         3                 52
         4                 28


  Parameters for SCF calculation: 
        SCF reference function:  RHF  
  Maximum number of iterations:  150
     Full symmetry point group: CXv 
     Computational point group: C2v 
        Initial density matrix: MOREAD                 
     SCF convergence tolerance: 10**(-10)
  DIIS convergence acceleration:  ON
          Latest start for DIIS:   8
                     DIIS order:   6

  Memory information:    2523578 words required.
  Fock matrices are constructed from AO integral file.
 @GETMEM-I,  Allocated      19 MB of main memory.
  Initialization and symmetry analysis required      0.001 seconds.

  Adding electric field perturbation to one-electron Hamiltonian.
  Field direction     : Z
  Field strength      : -0.0002000 a.u.

  @INITGES-I, Occupancies from core Hamiltonian:

          Alpha population by irrep:   5    1    1    0
           Beta population by irrep:   5    1    1    0


 total no. of electrons in initial guess :  0.000000000000000E+000
  --------------------------------------------------------------------
  Iteration         Total Energy            Largest Density Difference
  --------------------------------------------------------------------
       0            16.369048673178536              0.0000000000D+00
   current occupation vector 
     5  1  1  0
     5  1  1  0
       1           -93.518241870906991              0.1754102397D+02
   current occupation vector 
     5  1  1  0
     5  1  1  0
       2           -98.120534250860359              0.1754100321D+02
   current occupation vector 
     5  1  1  0
     5  1  1  0
       3          -100.824310327453887              0.6437774669D+01
   current occupation vector 
     5  1  1  0
     5  1  1  0
       4           -95.840778746250720              0.6431372744D+01
   current occupation vector 
     5  1  1  0
     5  1  1  0
       5          -100.474417036882713              0.6892052757D+01
   current occupation vector 
     5  1  1  0
     5  1  1  0
       6           -95.457228550755261              0.6892665703D+01
   current occupation vector 
     5  1  1  0
     5  1  1  0
       7          -100.456519751138714              0.6921312438D+01
   current occupation vector 
     5  1  1  0
     5  1  1  0
       8           -95.444009906253029              0.6921382832D+01
   current occupation vector 
     5  1  1  0
     5  1  1  0
       9          -107.493552200092637              0.5695643257D+01
   current occupation vector 
     5  1  1  0
     5  1  1  0
      10          -110.176444317665698              0.1234867109D+01
   current occupation vector 
     5  1  1  0
     5  1  1  0
      11          -112.384643928757768              0.1213996262D+01
   current occupation vector 
     5  1  1  0
     5  1  1  0
      12          -112.551139370279046              0.4797938437D+00
   current occupation vector 
     5  1  1  0
     5  1  1  0
      13          -112.559941981894568              0.1270649162D+00
   current occupation vector 
     5  1  1  0
     5  1  1  0
      14          -112.562874090889110              0.6793624428D-01
   current occupation vector 
     5  1  1  0
     5  1  1  0
      15          -112.563076808936088              0.1777167689D-01
   current occupation vector 
     5  1  1  0
     5  1  1  0
      16          -112.563216255898496              0.2071906965D-01
   current occupation vector 
     5  1  1  0
     5  1  1  0
      17          -112.563265352208688              0.1455300998D-01
   current occupation vector 
     5  1  1  0
     5  1  1  0
      18          -112.563274133956227              0.7963152904D-02
   current occupation vector 
     5  1  1  0
     5  1  1  0
      19          -112.563274203729279              0.6839224066D-03
   current occupation vector 
     5  1  1  0
     5  1  1  0
      20          -112.563274204343557              0.2169222443D-04
   current occupation vector 
     5  1  1  0
     5  1  1  0
      21          -112.563274204391817              0.9153291120D-05
   current occupation vector 
     5  1  1  0
     5  1  1  0
      22          -112.563274204393096              0.1292288498D-05
   current occupation vector 
     5  1  1  0
     5  1  1  0
      23          -112.563274204392641              0.2377421428D-06
   current occupation vector 
     5  1  1  0
     5  1  1  0
      24          -112.563274204392329              0.5244616941D-07
   current occupation vector 
     5  1  1  0
     5  1  1  0
      25          -112.563274204389799              0.3696556772D-07
   current occupation vector 
     5  1  1  0
     5  1  1  0
      26          -112.563274204391760              0.2395993270D-07
   current occupation vector 
     5  1  1  0
     5  1  1  0
      27          -112.563274204390993              0.1618688672D-07
   current occupation vector 
     5  1  1  0
     5  1  1  0
      28          -112.563274204392300              0.1313163800D-08
   current occupation vector 
     5  1  1  0
     5  1  1  0
      29          -112.563274204391760              0.4446110147D-09
   current occupation vector 
     5  1  1  0
     5  1  1  0
      30          -112.563274204390112              0.2831139767D-09
   current occupation vector 
     5  1  1  0
     5  1  1  0

  SCF has converged.

 Density matrix saved to file den.dat
 total electron number:   14.0000000000003     
     E(SCF)=      -112.563274204391732              0.5614175791D-10

  Eigenvector printing suppressed.

 @PUTMOS-I, Writing converged MOs to NEWMOS. 
 @PUTMOS-I, Symmetry   1 Full Blocks 21 Partial Blocksize   2
 @PUTMOS-I, Symmetry   2 Full Blocks 13 Partial Blocksize   0
 @PUTMOS-I, Symmetry   3 Full Blocks 13 Partial Blocksize   0
 @PUTMOS-I, Symmetry   4 Full Blocks  7 Partial Blocksize   0
 @PUTFOCK-I, Writing converged Fock matrix to NEWFOCK. 
 @PUTFOCK-I, Symmetry   1 Full Blocks 21 Partial Blocksize   2
 @PUTFOCK-I, Symmetry   2 Full Blocks 13 Partial Blocksize   0
 @PUTFOCK-I, Symmetry   3 Full Blocks 13 Partial Blocksize   0
 @PUTFOCK-I, Symmetry   4 Full Blocks  7 Partial Blocksize   0


 
  ORBITAL EIGENVALUES (ALPHA)  (1H = 27.2113834 eV)

       MO #        E(hartree)               E(eV)           FULLSYM    COMPSYM
       ----   --------------------   --------------------   -------   ---------
    1     1         -20.6500623935        -561.9167650222     SG+        A1 (1)
    2     2         -11.5120964741        -313.2600708946     SG+        A1 (1)
    3     3          -1.2945660051         -35.2269319005     SG+        A1 (1)
    4     4          -0.8015486921         -21.8112487748     SG+        A1 (1)
    5     5          -0.5404883794         -14.7074365157     SG+        A1 (1)
    6    87          -0.5067888998         -13.7904270562      PI        B1 (2)
    7   139          -0.5067888998         -13.7904270562      PI        B2 (3)
  +++++++++++++++++++++++++++++++++++++++++++++++++++++++++++++++++++++++++++++
    8    88           0.0018740400           0.0509952211      PI        B1 (2)
    9   140           0.0018740400           0.0509952211      PI        B2 (3)
   10     6           0.0603023744           1.6409110293     SG+        A1 (1)
   11     7           0.0688295563           1.8729474454     SG+        A1 (1)
   12    89           0.0825001729           2.2449438347      PI        B1 (2)
   13   141           0.0825001729           2.2449438347      PI        B2 (3)
   14     8           0.1574680958           4.2849247277     SG+        A1 (1)
   15    90           0.1784521453           4.8559297445      PI        B1 (2)
   16   142           0.1784521453           4.8559297445      PI        B2 (3)
   17     9           0.2076529590           5.6505242814     SG+        A1 (1)
   18    10           0.2225310518           6.0553777679      DE        A1 (1)
   19   191           0.2225310518           6.0553777679      DE        A2 (4)
   20   143           0.2872072290           7.8153060232      PI        B2 (3)
   21    91           0.2872072290           7.8153060232      PI        B1 (2)
   22    11           0.3005964407           8.1796449961     SG+        A1 (1)
   23    12           0.3250899354           8.8461468724     SG+        A1 (1)
   24   144           0.4035253932          10.9804841871      PI        B2 (3)
   25    92           0.4035253932          10.9804841871      PI        B1 (2)
   26    13           0.4280022365          11.6465329541     SG+        A1 (1)
   27    14           0.5131419767          13.9633030678     SG+        A1 (1)
   28    15           0.5495906633          14.9551222522      DE        A1 (1)
   29   192           0.5495906633          14.9551222522      DE        A2 (4)
   30   145           0.6236459572          16.9702692474      PI        B2 (3)
   31    93           0.6236459572          16.9702692474      PI        B1 (2)
   32    16           0.7092850566          19.3006276142     SG+        A1 (1)
   33    94           0.7333695886          19.9560010487      PH        B1 (2)
   34   146           0.7333695886          19.9560010487      PH        B2 (3)
   35   193           0.7413376119          20.1728219854      DE        A2 (4)
   36    17           0.7413376119          20.1728219854      DE        A1 (1)
   37    95           0.7793146190          21.2062288872      PI        B1 (2)
   38   147           0.7793146190          21.2062288872      PI        B2 (3)
   39    18           0.8217580516          22.3611734032     SG+        A1 (1)
   40    19           0.8626475630          23.4738335769      DE        A1 (1)
   41   194           0.8626475630          23.4738335769      DE        A2 (4)
   42    20           0.8793427451          23.9281325762     SG+        A1 (1)
   43   148           0.8891240649          24.1942958203      PI        B2 (3)
   44    96           0.8891240649          24.1942958203      PI        B1 (2)
   45   149           1.0362961627          28.1990521994      PI        B2 (3)
   46    97           1.0362961627          28.1990521994      PI        B1 (2)
   47    21           1.1294742377          30.7345565218     SG+        A1 (1)
   48    22           1.3700199957          37.2801393678     SG+        A1 (1)
   49   150           1.4222965839          38.7026576527      PH        B2 (3)
   50    98           1.4222965839          38.7026576527      PH        B1 (2)
   51   151           1.5030245824          40.8993781718      PI        B2 (3)
   52    99           1.5030245824          40.8993781718      PI        B1 (2)
   53    23           1.5815449131          43.0360249949      DE        A1 (1)
   54   195           1.5815449131          43.0360249949      DE        A2 (4)
   55    24           1.5987591884          43.5044492391     SG+        A1 (1)
   56   100           1.6382114150          44.5779989031      PI        B1 (2)
   57   152           1.6382114150          44.5779989032      PI        B2 (3)
   58    25           1.6851805018          45.8560927315      DE        A1 (1)
   59   196           1.6851805018          45.8560927315      DE        A2 (4)
   60    26           1.9157560476          52.1303723131     SG+        A1 (1)
   61    27           1.9665535338          53.5126421837     SG+        A1 (1)
   62   197           2.0712871855          56.3625897361      PI        A2 (4)
   63    28           2.0712871855          56.3625897361      PI        A1 (1)
   64   101           2.0813122796          56.6353864165      PI        B1 (2)
   65   153           2.0813122796          56.6353864165      PI        B2 (3)
   66   198           2.1305485175          57.9751725620      DE        A2 (4)
   67    29           2.1305485175          57.9751725620      DE        A1 (1)
   68   154           2.2091441332          60.1138679954      PH        B2 (3)
   69   102           2.2091441332          60.1138679954      PH        B1 (2)
   70   155           2.2202221787          60.4153169372      PH        B2 (3)
   71   103           2.2202221787          60.4153169372      PH        B1 (2)
   72    30           2.2284471597          60.6391300492     SG+        A1 (1)
   73   104           2.2313286994          60.7175407311      PI        B1 (2)
   74   156           2.2313286994          60.7175407311      PI        B2 (3)
   75   199           2.2898987205          62.3113120302      DE        A2 (4)
   76    31           2.2898987205          62.3113120302      DE        A1 (1)
   77    32           2.4177669927          65.7907846101     SG+        A1 (1)
   78   105           2.5159611855          68.4627844391      PI        B1 (2)
   79   157           2.5159611855          68.4627844391      PI        B2 (3)
   80   106           2.5938782284          70.5830149653      PI        B1 (2)
   81   158           2.5938782284          70.5830149653      PI        B2 (3)
   82    33           2.6215508565          71.3360254576     SG+        A1 (1)
   83    34           2.6666837527          72.5641540012      DE        A1 (1)
   84   200           2.6666837527          72.5641540012      DE        A2 (4)
   85    35           2.9850410053          81.2270952604     SG+        A1 (1)
   86   107           3.4267020506          93.2453032960      PI        B1 (2)
   87   159           3.4267020506          93.2453032960      PI        B2 (3)
   88   201           3.7063642102         100.8552975445      PI        A2 (4)
   89    36           3.7063642102         100.8552975445      PI        A1 (1)
   90    37           3.9018893186         106.1758062326     SG+        A1 (1)
   91   108           3.9334532094         107.0347033678      PH        B1 (2)
   92   160           3.9334532094         107.0347033678      PH        B2 (3)
   93   161           4.1357016325         112.5381627502      PH        B2 (3)
   94   109           4.1357016325         112.5381627502      PH        B1 (2)
   95    38           4.1453540695         112.8008189132     SG+        A1 (1)
   96   110           4.1584815903         113.1580369163      PI        B1 (2)
   97   162           4.1584815903         113.1580369163      PI        B2 (3)
   98    39           4.1943447869         114.1339241091      DE        A1 (1)
   99   202           4.1943447869         114.1339241091      DE        A2 (4)
  100    40           4.2866834723         116.6465874786      DE        A1 (1)
  101   203           4.2866834723         116.6465874786      DE        A2 (4)
  102    41           4.4269051844         120.4622142484     SG+        A1 (1)
  103   111           4.5606761301         124.1023067397      PI        B1 (2)
  104   163           4.5606761301         124.1023067397      PI        B2 (3)
  105   204           4.7119917683         128.2198145837      DE        A2 (4)
  106    42           4.7119917683         128.2198145837      DE        A1 (1)
  107    43           4.7547117379         129.3822840556     SG+        A1 (1)
  108   112           5.1790097650         140.9280203466      PI        B1 (2)
  109   164           5.1790097650         140.9280203466      PI        B2 (3)
  110    44           5.2709384252         143.4295263652     SG+        A1 (1)
  111   113           5.3441822091         145.4225910517      PI        B1 (2)
  112   165           5.3441822091         145.4225910517      PI        B2 (3)
  113   205           5.8329784563         158.7234131393      PI        A2 (4)
  114    45           5.8329784563         158.7234131393      PI        A1 (1)
  115   166           5.9065989258         160.7267279590      PH        B2 (3)
  116   114           5.9065989258         160.7267279590      PH        B1 (2)
  117    46           6.0608697037         164.9246492446     SG+        A1 (1)
  118    47           6.1188251650         166.5016975218      DE        A1 (1)
  119   206           6.1188251650         166.5016975218      DE        A2 (4)
  120   167           6.1414311676         167.1168381262      PI        B2 (3)
  121   115           6.1414311676         167.1168381262      PI        B1 (2)
  122    48           6.1975447882         168.6437673691     SG+        A1 (1)
  123   207           6.3440274743         172.6297639039      DE        A2 (4)
  124    49           6.3440274743         172.6297639039      DE        A1 (1)
  125   168           6.3606964212         173.0833490070      PH        B2 (3)
  126   116           6.3606964212         173.0833490070      PH        B1 (2)
  127   208           6.4952144889         176.7437717233      DE        A2 (4)
  128    50           6.4952144889         176.7437717233      DE        A1 (1)
  129   117           6.8169232375         185.4979118253      PI        B1 (2)
  130   169           6.8169232375         185.4979118253      PI        B2 (3)
  131    51           7.1124243727         193.5389065077     SG+        A1 (1)
  132   118           7.3277513836         199.3982523598      PI        B1 (2)
  133   170           7.3277513836         199.3982523598      PI        B2 (3)
  134    52           7.9224110579         215.5797647481     SG+        A1 (1)
  135    53           9.6021072870         261.2866228332     SG+        A1 (1)
  136   119           9.7730434037         265.9380310428      PI        B1 (2)
  137   171           9.7730434037         265.9380310428      PI        B2 (3)
  138   209          10.6492546084         289.7809500736      PI        A2 (4)
  139    54          10.6492546084         289.7809500736      PI        A1 (1)
  140    55          10.6896502983         290.8801726792     SG+        A1 (1)
  141   120          10.7410691401         292.2793504970      PH        B1 (2)
  142   172          10.7410691401         292.2793504970      PH        B2 (3)
  143   210          10.9708600937         298.5322802361      DE        A2 (4)
  144    56          10.9708600937         298.5322802361      DE        A1 (1)
  145   121          10.9775386634         298.7140133593      PI        B1 (2)
  146   173          10.9775386634         298.7140133593      PI        B2 (3)
  147    57          11.1727266849         304.0253494470     SG+        A1 (1)
  148   122          11.8870846922         323.4640190691      PH        B1 (2)
  149   174          11.8870846922         323.4640190691      PH        B2 (3)
  150    58          11.9997465827         326.5297049657      DE        A1 (1)
  151   211          11.9997465828         326.5297049661      DE        A2 (4)
  152   123          12.4017527076         337.4688477578      PI        B1 (2)
  153   175          12.4017527076         337.4688477579      PI        B2 (3)
  154    59          12.6318633054         343.7304754608     SG+        A1 (1)
  155    60          12.7315542791         346.4432047677      DE        A1 (1)
  156   212          12.7315542791         346.4432047678      DE        A2 (4)
  157   124          13.0988204275         356.4370247410      PI        B1 (2)
  158   176          13.0988204275         356.4370247411      PI        B2 (3)
  159    61          13.5834811574         369.6253136809     SG+        A1 (1)
  160    62          17.3759923811         472.8247906387     SG+        A1 (1)
  161   177          18.7439651739         510.0492227825      PI        B2 (3)
  162   125          18.7439651739         510.0492227826      PI        B1 (2)
  163    63          19.7764978956         538.1458665469     SG+        A1 (1)
  164   213          26.2691011452         714.8185828356      DE        A2 (4)
  165    64          26.2691011452         714.8185828356      DE        A1 (1)
  166   178          26.5922274873         723.6112976156      PI        B2 (3)
  167   126          26.5922274873         723.6112976156      PI        B1 (2)
  168    65          27.0695661547         736.6003431068     SG+        A1 (1)
  169   127          33.4608628448         910.5163677653      PI        B1 (2)
  170   179          33.4608628448         910.5163677654      PI        B2 (3)
  171    66          34.3274202208         934.0965927619     SG+        A1 (1)
  172    67          35.6388996983         969.7837636451     SG+        A1 (1)
  173    68          47.0728087245        1280.9162459180      DE        A1 (1)
  174   214          47.0728087245        1280.9162459180      DE        A2 (4)
  175   180          47.2595839578        1285.9986584010      PI        B2 (3)
  176   128          47.2595839578        1285.9986584010      PI        B1 (2)
  177    69          47.5396426514        1293.6194428870     SG+        A1 (1)
  178    70          63.7955117563        1735.9641295992     SG+        A1 (1)
  179   181          66.3237835240        1804.7619020104      PI        B2 (3)
  180   129          66.3237835240        1804.7619020106      PI        B1 (2)
  181    71          67.0763690829        1825.2407961946     SG+        A1 (1)
  182   182          98.5175077137        2680.7976740096      PH        B2 (3)
  183   130          98.5175077137        2680.7976740096      PH        B1 (2)
  184    72          98.5310090955        2681.1650652871      DE        A1 (1)
  185   215          98.5310090955        2681.1650652871      DE        A2 (4)
  186   131          98.5444368190        2681.5304522194      PI        B1 (2)
  187   183          98.5444368190        2681.5304522194      PI        B2 (3)
  188    73          98.5561097182        2681.8480879551     SG+        A1 (1)
  189   184         103.3059506581        2811.0978308585      PH        B2 (3)
  190   132         103.3059506581        2811.0978308585      PH        B1 (2)
  191   216         103.3086722720        2811.1718897385      DE        A2 (4)
  192    74         103.3086722721        2811.1718897397      DE        A1 (1)
  193   185         103.3398125959        2812.0192610309      PI        B2 (3)
  194   133         103.3398125959        2812.0192610309      PI        B1 (2)
  195    75         103.3457032343        2812.1795534524     SG+        A1 (1)
  196   217         114.9702987256        3128.5008782345      DE        A2 (4)
  197    76         114.9702987256        3128.5008782345      DE        A1 (1)
  198   186         115.1267140361        3132.7571552181      PI        B2 (3)
  199   134         115.1267140361        3132.7571552181      PI        B1 (2)
  200    77         115.3622254471        3139.1657465194     SG+        A1 (1)
  201   135         116.7588891495        3177.1708980038      PI        B1 (2)
  202   187         116.7588891495        3177.1708980039      PI        B2 (3)
  203    78         117.4581288373        3196.1981772377     SG+        A1 (1)
  204    79         121.9035822542        3317.1651145524     SG+        A1 (1)
  205   218         198.5532927394        5402.9097740634      DE        A2 (4)
  206    80         198.5532927394        5402.9097740634      DE        A1 (1)
  207   136         198.6551454761        5405.6813279326      PI        B1 (2)
  208   188         198.6551454761        5405.6813279327      PI        B2 (3)
  209    81         198.7991703432        5409.6004438107     SG+        A1 (1)
  210    82         216.3208382251        5886.3892663527     SG+        A1 (1)
  211   189         224.8026525400        6117.1911676031      PI        B2 (3)
  212   137         224.8026525400        6117.1911676032      PI        B1 (2)
  213    83         225.3930999113        6133.2580574011     SG+        A1 (1)
  214   190         395.2794088287       10756.0995437641      PI        B2 (3)
  215   138         395.2794088287       10756.0995437641      PI        B1 (2)
  216    84         395.8409069030       10771.3786831409     SG+        A1 (1)
  217    85         508.6240687361       13840.3645408469     SG+        A1 (1)
  218    86         895.1385403406       24357.9580173244     SG+        A1 (1)


  VSCF finished.

 @CHECKOUT-I, Total execution time (CPU/WALL):       55.07/      11.08 seconds.
--executable xvscf finished with status     0 in       11.14 seconds (walltime).
 --invoking executable--
/nfs/workspaces/public/cfour_mpi/bin/xvtran
 @GETMEM-I,  Allocated    3814 MB of main memory.
  Full RHF integral transformation
  Transformation of IIII integrals :
  1 pass through the AO integral file was required.
     4451187 AO integrals were read.
     8582392 MO integrals were written to HF2.
  Transformation of IIJJ integrals :
  1 pass through the AO integral file was required.
    10110458 AO integrals were read.
    14349540 MO integrals were written to HF2.
  Transformation of IJIJ integrals :
  1 pass through the AO integral file was required.
    19201619 AO integrals were read.
    26606822 MO integrals were written to HF2.
  Transformation of IJKL integrals :
  1 pass through the AO integral file was required.
    14196382 AO integrals were read.
    18020698 MO integrals were written to HF2.
  Summary of active molecular orbitals: 
------------------------------------------------------------------------
 
  Index      Eigenvalue    Symmetry    Index      Eigenvalue    Symmetry
------------------------------------------------------------------------
     1       -20.6500624        1       110         4.1357016        2
     2       -11.5120965        1       111         4.1584816        2
     3        -1.2945660        1       112         4.5606761        2
     4        -0.8015487        1       113         5.1790098        2
     5        -0.5404884        1       114         5.3441822        2
     6        -0.5067889        2       115         5.9065989        2
     7        -0.5067889        3       116         6.1414312        2
     8         0.0603024        1       117         6.3606964        2
     9         0.0688296        1       118         6.8169232        2
    10         0.1574681        1       119         7.3277514        2
    11         0.2076530        1       120         9.7730434        2
    12         0.2225311        1       121        10.7410691        2
    13         0.3005964        1       122        10.9775387        2
    14         0.3250899        1       123        11.8870847        2
    15         0.4280022        1       124        12.4017527        2
    16         0.5131420        1       125        13.0988204        2
    17         0.5495907        1       126        18.7439652        2
    18         0.7092851        1       127        26.5922275        2
    19         0.7413376        1       128        33.4608628        2
    20         0.8217581        1       129        47.2595840        2
    21         0.8626476        1       130        66.3237835        2
    22         0.8793427        1       131        98.5175077        2
    23         1.1294742        1       132        98.5444368        2
    24         1.3700200        1       133       103.3059507        2
    25         1.5815449        1       134       103.3398126        2
    26         1.5987592        1       135       115.1267140        2
    27         1.6851805        1       136       116.7588891        2
    28         1.9157560        1       137       198.6551455        2
    29         1.9665535        1       138       224.8026525        2
    30         2.0712872        1       139       395.2794088        2
    31         2.1305485        1       140         0.0018740        3
    32         2.2284472        1       141         0.0825002        3
    33         2.2898987        1       142         0.1784521        3
    34         2.4177670        1       143         0.2872072        3
    35         2.6215509        1       144         0.4035254        3
    36         2.6666838        1       145         0.6236460        3
    37         2.9850410        1       146         0.7333696        3
    38         3.7063642        1       147         0.7793146        3
    39         3.9018893        1       148         0.8891241        3
    40         4.1453541        1       149         1.0362962        3
    41         4.1943448        1       150         1.4222966        3
    42         4.2866835        1       151         1.5030246        3
    43         4.4269052        1       152         1.6382114        3
    44         4.7119918        1       153         2.0813123        3
    45         4.7547117        1       154         2.2091441        3
    46         5.2709384        1       155         2.2202222        3
    47         5.8329785        1       156         2.2313287        3
    48         6.0608697        1       157         2.5159612        3
    49         6.1188252        1       158         2.5938782        3
    50         6.1975448        1       159         3.4267021        3
    51         6.3440275        1       160         3.9334532        3
    52         6.4952145        1       161         4.1357016        3
    53         7.1124244        1       162         4.1584816        3
    54         7.9224111        1       163         4.5606761        3
    55         9.6021073        1       164         5.1790098        3
    56        10.6492546        1       165         5.3441822        3
    57        10.6896503        1       166         5.9065989        3
    58        10.9708601        1       167         6.1414312        3
    59        11.1727267        1       168         6.3606964        3
    60        11.9997466        1       169         6.8169232        3
    61        12.6318633        1       170         7.3277514        3
    62        12.7315543        1       171         9.7730434        3
    63        13.5834812        1       172        10.7410691        3
    64        17.3759924        1       173        10.9775387        3
    65        19.7764979        1       174        11.8870847        3
    66        26.2691011        1       175        12.4017527        3
    67        27.0695662        1       176        13.0988204        3
    68        34.3274202        1       177        18.7439652        3
    69        35.6388997        1       178        26.5922275        3
    70        47.0728087        1       179        33.4608628        3
    71        47.5396427        1       180        47.2595840        3
    72        63.7955118        1       181        66.3237835        3
    73        67.0763691        1       182        98.5175077        3
    74        98.5310091        1       183        98.5444368        3
    75        98.5561097        1       184       103.3059507        3
    76       103.3086723        1       185       103.3398126        3
    77       103.3457032        1       186       115.1267140        3
    78       114.9702987        1       187       116.7588891        3
    79       115.3622254        1       188       198.6551455        3
    80       117.4581288        1       189       224.8026525        3
    81       121.9035823        1       190       395.2794088        3
    82       198.5532927        1       191         0.2225311        4
    83       198.7991703        1       192         0.5495907        4
    84       216.3208382        1       193         0.7413376        4
    85       225.3930999        1       194         0.8626476        4
    86       395.8409069        1       195         1.5815449        4
    87       508.6240687        1       196         1.6851805        4
    88       895.1385403        1       197         2.0712872        4
    89         0.0018740        2       198         2.1305485        4
    90         0.0825002        2       199         2.2898987        4
    91         0.1784521        2       200         2.6666838        4
    92         0.2872072        2       201         3.7063642        4
    93         0.4035254        2       202         4.1943448        4
    94         0.6236460        2       203         4.2866835        4
    95         0.7333696        2       204         4.7119918        4
    96         0.7793146        2       205         5.8329785        4
    97         0.8891241        2       206         6.1188252        4
    98         1.0362962        2       207         6.3440275        4
    99         1.4222966        2       208         6.4952145        4
   100         1.5030246        2       209        10.6492546        4
   101         1.6382114        2       210        10.9708601        4
   102         2.0813123        2       211        11.9997466        4
   103         2.2091441        2       212        12.7315543        4
   104         2.2202222        2       213        26.2691011        4
   105         2.2313287        2       214        47.0728087        4
   106         2.5159612        2       215        98.5310091        4
   107         2.5938782        2       216       103.3086723        4
   108         3.4267021        2       217       114.9702987        4
   109         3.9334532        2       218       198.5532927        4
------------------------------------------------------------------------
  -20.6500623934549       -11.5120964741020       -1.29456600506709     
 -0.801548692111926      -0.540488379420392      -0.506788899830683     
 -0.506788899830682       6.030237438462718E-002  6.882955628860206E-002
  0.157468095786324       0.207652958994730       0.222531051760357     
  0.300596440682767       0.325089935426009       0.428002236524107     
  0.513141976744046       0.549590663304722       0.709285056569963     
  0.741337611868544       0.821758051567526       0.862647563037575     
  0.879342745073381        1.12947423767540        1.37001999566796     
   1.58154491310658        1.59875918837489        1.68518050175711     
   1.91575604763647        1.96655353375721        2.07128718549702     
   2.13054851750149        2.22844715969972        2.28989872048083     
   2.41776699269421        2.62155085645405        2.66668375269882     
   2.98504100531747        3.70636421022484        3.90188931859298     
   4.14535406947229        4.19434478693469        4.28668347227665     
   4.42690518440927        4.71199176825842        4.75471173786759     
   5.27093842517420        5.83297845633650        6.06086970369009     
[...]
 Convergence information after    13 iterations: 
 Largest element of residual vector : -0.14390803E-05.
 Largest element of DIIS residual   : -0.13589338E-05.
 Convergence information after    14 iterations: 
 Largest element of residual vector : -0.88951972E-06.
 Largest element of DIIS residual   : -0.80227497E-06.
 Convergence information after    15 iterations: 
 Largest element of residual vector : -0.41858835E-06.
 Largest element of DIIS residual   : -0.24895197E-06.
 Convergence information after    16 iterations: 
 Largest element of residual vector : -0.15543245E-06.
 Largest element of DIIS residual   : -0.13821670E-06.
 Convergence information after    17 iterations: 
 Largest element of residual vector : -0.69194184E-07.
 Largest element of DIIS residual   : -0.61316642E-07.
 Perturbed amplitude equations converged in    17 iterations.
  Dominant contributions to perturbed wavefunction:
    7    7  140   45  -0.2288683666 ABAB
    7    7   45  140  -0.2288683666 ABAB
    7    7  140   22  -0.2126868354 ABAB
    7    7   22  140  -0.2126868354 ABAB
    7    7  140   39  -0.2114002783 ABAB
    7    7   39  140  -0.2114002783 ABAB
    7    7  140   28   0.2036249264 ABAB
    7    7   28  140   0.2036249264 ABAB
    7    0   35    0   0.1648158024 AA  
    7    7  140   29  -0.1629463926 ABAB
    7    7   29  140  -0.1629463926 ABAB
    7    7  140   57   0.1590777250 ABAB
    7    7   57  140   0.1590777250 ABAB
    7    7  140   54   0.1466771434 ABAB
    7    7   54  140   0.1466771434 ABAB
    7    6   45   89  -0.1431529048 ABAB
    6    7   89   45  -0.1431529048 ABAB
    7    0   39    0   0.1350859981 AA  
    7    7  140   16   0.1332345914 ABAB
    7    7   16  140   0.1332345914 ABAB
  norm of converged amps    1.70781585252584     
 Starting iterative solution of the perturbed Lambda equations.
 The DIIS procedure is used to accelerate convergence.
 Convergence criterion is 10**(-7).
 Maximum number of iterations is 100.
 Convergence information after     1 iterations: 
 Largest element of residual vector :  0.77254300E-01.
 Largest element of DIIS residual   :  0.77254300E-01.
 Convergence information after     2 iterations: 
 Largest element of residual vector :  0.15485161E-01.
 Largest element of DIIS residual   :  0.11651095E-01.
 Convergence information after     3 iterations: 
 Largest element of residual vector : -0.65087346E-02.
 Largest element of DIIS residual   : -0.61905682E-02.
 Convergence information after     4 iterations: 
 Largest element of residual vector : -0.38552530E-02.
 Largest element of DIIS residual   : -0.34687936E-02.
 Convergence information after     5 iterations: 
 Largest element of residual vector : -0.32211676E-02.
 Largest element of DIIS residual   : -0.24664479E-02.
 Convergence information after     6 iterations: 
 Largest element of residual vector : -0.16055939E-02.
 Largest element of DIIS residual   : -0.71302069E-03.
 Convergence information after     7 iterations: 
 Largest element of residual vector : -0.73386421E-03.
 Largest element of DIIS residual   : -0.34475660E-03.
 Convergence information after     8 iterations: 
 Largest element of residual vector : -0.24155728E-03.
 Largest element of DIIS residual   : -0.15627778E-03.
 Convergence information after     9 iterations: 
 Largest element of residual vector : -0.10131681E-03.
 Largest element of DIIS residual   : -0.45826272E-04.
 Convergence information after    10 iterations: 
 Largest element of residual vector : -0.41414382E-04.
 Largest element of DIIS residual   : -0.18500766E-04.
 Convergence information after    11 iterations: 
 Largest element of residual vector : -0.85481587E-05.
 Largest element of DIIS residual   : -0.49027411E-05.
 Convergence information after    12 iterations: 
 Largest element of residual vector : -0.23983606E-05.
 Largest element of DIIS residual   : -0.18552877E-05.
 Convergence information after    13 iterations: 
 Largest element of residual vector : -0.15669947E-05.
 Largest element of DIIS residual   : -0.13561808E-05.
 Convergence information after    14 iterations: 
 Largest element of residual vector : -0.66485533E-06.
 Largest element of DIIS residual   : -0.52978697E-06.
 Convergence information after    15 iterations: 
 Largest element of residual vector : -0.37442208E-06.
 Largest element of DIIS residual   : -0.14399757E-06.
 Convergence information after    16 iterations: 
 Largest element of residual vector : -0.89714498E-07.
 Largest element of DIIS residual   : -0.90700469E-07.
 Perturbed Lambda equations converged in    16 iterations.
  Dominant contributions to perturbed wavefunction:
    7    7  140   45  -0.1923157791 ABAB
    7    7   45  140  -0.1923157791 ABAB
    7    7  140   22  -0.1784193541 ABAB
    7    7   22  140  -0.1784193541 ABAB
    7    7  140   39  -0.1759936504 ABAB
    7    7   39  140  -0.1759936504 ABAB
    7    7  140   28   0.1734641071 ABAB
    7    7   28  140   0.1734641071 ABAB
    7    7  140   29  -0.1339135958 ABAB
    7    7   29  140  -0.1339135958 ABAB
    7    7  140   57   0.1325906518 ABAB
    7    7   57  140   0.1325906518 ABAB
    7    7  140   54   0.1239513430 ABAB
    7    7   54  140   0.1239513430 ABAB
    7    6   45   89  -0.1188112699 ABAB
    6    7   89   45  -0.1188112699 ABAB
    7    7  140   16   0.1100112540 ABAB
    7    7   16  140   0.1100112540 ABAB
    7    6   22   89  -0.1093542327 ABAB
    6    7   89   22  -0.1093542327 ABAB
        The DBOC first-order density matrix is being calculated 
             (Symmetry block 3, perturbation   2)
 term   3.09534166408946     
 final tnorm  0.808654165435760     
  norm contr. I: |<0|L dT/dx|0>|^2   0.000000000000000E+000
  norm contr. II: <0|[nabla(1+L)e-T][nabla e^T]|0>   3.09534166408946     
  total norm contribution   3.09534166408946     
 oo  8.807313579671489E-003
 vv  -23.1720475094888     
 vo  6.966256915146900E-002
  Correlated perturbed 1-el contribution to DBOC  -23.0935776267576       cm**-1
  SUM_I |dc_I/dx|^2 contribution to DBOC   11.6530625010264       cm**-1
 
 
  The total diagonal Born-Oppenheimer correction (DBOC) is:      0.0040093003 a.u.
  The total diagonal Born-Oppenheimer correction (DBOC) is:        879.939711 cm-1
 
 Total CC energy including DBOC  -113.102355573964     
 First-order density matrix is being calculated  (Symmetry block 3, perturbation   2)
 Calculation of the contributions of <pq||rs> to dI(i,j)/dx required   1.8 seconds.
 Calculation of the contributions of <pq||rs> to dI(a,b)/dx required  16.4 seconds.
 Calculation of the contributions of <pq||rs> to dI(i,a)/dx required  10.1 seconds.
 First-order Z-vector equations are solved for 1 perturbation.
 Convergence reached after  19 iterations.
        U*G(pq,rs) contribution is being calculated
             (Symmetry block 3, perturbation   2)

 CCSD contribution to force constants 

        0.0000000000        0.0000000000        0.0000000000
        0.0000000000        0.0000000000        0.0000000000
        0.0000000000        0.0000000000        0.0000000000
        0.0000000000        0.0000000000        0.0000000000
        0.0000000000        0.0000000000        0.0000000000
        0.0000000000        0.0000000000        0.0000000000
        0.0000000000        0.0000000000        0.0000000000
        0.0000000000        0.0000000000        0.0000000000
        0.0000000000        0.0000000000        0.0000000000
        0.0000000000        0.0000000000        0.0000000000
        0.0000000000        0.0000000000        0.0000000000
        0.0000000000       -3.2882821672        3.2882821672

 CCSD contribution to dipole derivatives 

        0.0000000000        0.0000000000        0.0000000000
        0.0000000000        0.0000000000        0.0000000000
        0.0000000000        0.0000000000        0.0000000000
        0.0000000000        0.0000000000       -0.0570475666
        0.0000000000        0.0000000000        0.0000000000
        0.0000000000        0.0000000000        0.0000000000
 @CHECKOUT-I, Total execution time (CPU/WALL):     1217.32/     485.98 seconds.
--executable xsdcc finished with status     0 in      486.19 seconds (walltime).
 --invoking executable--
/nfs/workspaces/public/cfour_mpi/bin/xanti
 @GETMEM-I,  Allocated    3814 MB of main memory.
 CCSD MO derivative gammas will be sorted to Mulliken order.
 @CHECKOUT-I, Total execution time (CPU/WALL):       13.51/      40.02 seconds.
--executable xanti finished with status     0 in       40.17 seconds (walltime).
 --invoking executable--
/nfs/workspaces/public/cfour_mpi/bin/xbcktrn
 @GETMEM-I,  Allocated    3814 MB of main memory.
 CCSD MO derivative gammas will be transformed to the AO basis.
 @CHECKOUT-I, Total execution time (CPU/WALL):       21.63/       3.47 seconds.
--executable xbcktrn finished with status     0 in        3.53 seconds (walltime).
 --invoking executable--
/nfs/workspaces/public/cfour_mpi/bin/xvdint
 @GETMEM-I,  Allocated    3814 MB of main memory.
 One- and two-electron integral derivatives are calculated
 for RHF-CC/MBPT hessians and dipole derivatives.
 Spherical gaussians are used.
  magnet F F
                    8722  records have been written to the Sort file.
  Total length of Sort file :             178609116  words.
 Evaluation of 2el integral derivatives

                      Two-electron integral gradient
                      ------------------------------

                         C #1 z     0.0000000000
                         O #2 z     0.0000000000


 C #1       0.0000000000            0.0563284513            0.0000000000
 O #2       0.0000000000           -0.0563284513            0.0000000000


 Evaluation of 2e integral derivatives required  343.91 seconds.
  contribution to Hessian
        0.0000000000        0.0000000000        0.0000000000
        0.0000000000        0.0563284513       -0.0563284513
 @CHECKOUT-I, Total execution time (CPU/WALL):      343.90/      72.99 seconds.
--executable xvdint finished with status     0 in       73.14 seconds (walltime).
 --invoking executable--
/nfs/workspaces/public/cfour_mpi/bin/xanti
 @GETMEM-I,  Allocated    3814 MB of main memory.
 CCSD MO gammas will be sorted to Mulliken order.
 @CHECKOUT-I, Total execution time (CPU/WALL):       19.19/      62.26 seconds.
--executable xanti finished with status     0 in       62.40 seconds (walltime).
 --invoking executable--
/nfs/workspaces/public/cfour_mpi/bin/xbcktrn
 @GETMEM-I,  Allocated    3814 MB of main memory.
 CCSD MO gammas will be transformed to the AO basis.
 @CHECKOUT-I, Total execution time (CPU/WALL):       33.72/      10.54 seconds.
--executable xbcktrn finished with status     0 in       10.59 seconds (walltime).
 --invoking executable--
/nfs/workspaces/public/cfour_mpi/bin/xvdint
 @GETMEM-I,  Allocated    3814 MB of main memory.
 One- and two-electron integral derivatives are calculated
 for RHF-CC/MBPT hessians and dipole derivatives.
 Spherical gaussians are used.
  magnet F F

                     Kinetic energy integral gradient
                     --------------------------------

                         C #1 z    -0.5860139407
                         O #2 z     0.5860139407


 C #1       0.0000000000            0.0000000000           -0.5860139407
 O #2       0.0000000000            0.0000000000            0.5860139407



                   Nuclear attraction integral gradient
                   ------------------------------------

                         C #1 z    14.3999984753
                         O #2 z   -14.3999984753


 C #1       0.0000000000            0.0000000000           14.3999984753
 O #2       0.0000000000            0.0000000000          -14.3999984753



                      Reorthonormalization gradient
                      -----------------------------

                         C #1 z     0.0000000000
                         O #2 z     0.0000000000


 C #1       0.0000000000            0.0000000000            0.0000000000
 O #2       0.0000000000            0.0000000000            0.0000000000



                     Kinetic energy integral Hessian
                     -------------------------------


           Symmetry 1

           C #1 z      O #2 z

 C #1 z    0.613117
 O #2 z   -0.613117    0.613117


           Symmetry 2

           C #1 x      O #2 x

 C #1 x   -0.466800
 O #2 x    0.466800   -0.466800


           Symmetry 3

           C #1 y      O #2 y

 C #1 y   -0.466800
 O #2 y    0.466800   -0.466800




           C #1 x      C #1 y      C #1 z      O #2 x      O #2 y      O #2 z

 C #1 x   -0.466800
 C #1 y    0.000000   -0.466800
 C #1 z    0.000000    0.000000    0.613117

 O #2 x    0.466800    0.000000    0.000000   -0.466800
 O #2 y    0.000000    0.466800    0.000000    0.000000   -0.466800
 O #2 z    0.000000    0.000000   -0.613117    0.000000    0.000000    0.613117




                   Nuclear attraction integral Hessian
                   -----------------------------------


           Symmetry 1

           C #1 z      O #2 z

 C #1 z   -8.816080
 O #2 z    8.816080   -8.816080


           Symmetry 2

           C #1 x      O #2 x

 C #1 x    8.022531
 O #2 x   -8.022531    8.022531


           Symmetry 3

           C #1 y      O #2 y

 C #1 y    8.022531
 O #2 y   -8.022531    8.022531




           C #1 x      C #1 y      C #1 z      O #2 x      O #2 y      O #2 z

 C #1 x    8.022531
 C #1 y    0.000000    8.022531
 C #1 z    0.000000    0.000000   -8.816080

 O #2 x   -8.022531    0.000000    0.000000    8.022531
 O #2 y    0.000000   -8.022531    0.000000    0.000000    8.022531
 O #2 z    0.000000    0.000000    8.816080    0.000000    0.000000   -8.816080




                Highest order reorthonormalization Hessian
                ------------------------------------------


           Symmetry 1

           C #1 z      O #2 z

 C #1 z    0.000000
 O #2 z    0.000000    0.000000


           Symmetry 2

           C #1 x      O #2 x

 C #1 x    0.000000
 O #2 x    0.000000    0.000000


           Symmetry 3

           C #1 y      O #2 y

 C #1 y    0.000000
 O #2 y    0.000000    0.000000




           C #1 x      C #1 y      C #1 z      O #2 x      O #2 y      O #2 z




                Electronic contributions to dipole moment
                -----------------------------------------

                               au             Debye

                    z      1.24819860      3.17260495

  Conversion factor used: 1 a.u. =   2.54174691 Debye 



   Electronic contributions to static part of dipole moment derivatives
   --------------------------------------------------------------------


                     Total dipole moment derivatives
                     -------------------------------


           Symmetry 1
                              Ez

               C #1 z    -5.67513787
               O #2 z    -8.32486213

           Symmetry 2
                              Ex

               C #1 x    -5.67255370
               O #2 x    -8.32744630

           Symmetry 3
                              Ey

               C #1 y    -5.67255370
               O #2 y    -8.32744630



                       Ex          Ey          Ez

      C #1    x   -5.672554    0.000000    0.000000
      C #1    y    0.000000   -5.672554    0.000000
      C #1    z    0.000000    0.000000   -5.675138

      O #2    x   -8.327446    0.000000    0.000000
      O #2    y    0.000000   -8.327446    0.000000
      O #2    z    0.000000    0.000000   -8.324862

 Evaluation of 1e integral derivatives required    1.77 seconds.
                    8815  records have been written to the Sort file.
  Total length of Sort file :             180513570  words.
 Evaluation of 2el integral derivatives

                      Two-electron integral gradient
                      ------------------------------

                         C #1 z    -7.6220479534
                         O #2 z     7.6220479534


 C #1       0.0000000000            0.0000000000           -7.6220479534
 O #2       0.0000000000            0.0000000000            7.6220479534


 Evaluation of 2e integral derivatives required  720.12 seconds.

                            Molecular gradient
                            ------------------

                         C #1 z     0.6096222212
                         O #2 z    -0.6096222212


 C #1       0.0000000000            0.0000000000            0.6096222212
 O #2       0.0000000000            0.0000000000           -0.6096222212


  Molecular gradient norm 0.862E+00

                            Molecular hessian
                            -----------------


           Symmetry 1

           C #1 z      O #2 z

 C #1 z   18.648870
 O #2 z  -18.648870   18.648870


           Symmetry 2

           C #1 x      O #2 x

 C #1 x    3.492130
 O #2 x   -3.492130    3.492130


           Symmetry 3

           C #1 y      O #2 y

 C #1 y    3.492130
 O #2 y   -3.492130    3.492130




           C #1 x      C #1 y      C #1 z      O #2 x      O #2 y      O #2 z

 C #1 x    3.492130
 C #1 y    0.000000    3.492130
 C #1 z    0.000000    0.000000   18.648870

 O #2 x   -3.492130    0.000000    0.000000    3.492130
 O #2 y    0.000000   -3.492130    0.000000    0.000000    3.492130
 O #2 z    0.000000    0.000000  -18.648870    0.000000    0.000000   18.648870




                           Total dipole moment
                           -------------------

                               au             Debye

                    z      0.43343116      1.10167231

  Conversion factor used: 1 a.u. =   2.54174691 Debye 



                     Total dipole moment derivatives
                     -------------------------------


           Symmetry 1
                              Ez

               C #1 z     0.60221354
               O #2 z    -0.60221354

           Symmetry 2
                              Ex

               C #1 x     0.15536147
               O #2 x    -0.15536147

           Symmetry 3
                              Ey

               C #1 y     0.15536147
               O #2 y    -0.15536147



                       Ex          Ey          Ez

      C #1    x    0.155361    0.000000    0.000000
      C #1    y    0.000000    0.155361    0.000000
      C #1    z    0.000000    0.000000    0.602214

      O #2    x   -0.155361    0.000000    0.000000
      O #2    y    0.000000   -0.155361    0.000000
      O #2    z    0.000000    0.000000   -0.602214

 @CHECKOUT-I, Total execution time (CPU/WALL):      721.88/     133.53 seconds.
--executable xvdint finished with status     0 in      133.72 seconds (walltime).
 --invoking executable--
/nfs/workspaces/public/cfour_mpi/bin/xjoda
  @GTFLGS-I, Hessian will be transformed to curvilinear coordinates.
  @GTFLGS-I, Hessian will be transformed to curvilinear coordinates.
  igrd and ihes are                      0                     1
  gradient from JOBARC 
   0.000000000000000   0.000000000000000   0.609622221177589
   0.000000000000000   0.000000000000000  -0.609622221177589
 
  @PROJFCM-I, Projecting force constant matrix onto totally symmetric subspace.
  Largest difference between matrix elements of symmetrized
  and unsymmetrized FCM :    -0.1106226222E-11.
  read isotopes from ZMAT file 
 
  Summary of diagonal Born-Oppenheimer correction at the correlated level
  The total diagonal Born-Oppenheimer correction (DBOC) is:      0.0040093003 a.u.
  The total diagonal Born-Oppenheimer correction (DBOC) is:        879.939711 cm-1
  The total diagonal Born-Oppenheimer correction (DBOC) is:            10.526 kJ/mole
  hellooooooo 
  readis is  F
 
 @CHECKOUT-I, Total execution time (CPU/WALL):        0.01/       0.12 seconds.
--executable xjoda finished with status     0 in        0.17 seconds (walltime).
  The final electronic energy is      -113.102355573963621 a.u. 
  This computation required                         4429.96 seconds (walltime).
