 --invoking executable--
/nfs/workspaces/public/cfour_mpi/bin/xjoda


   *************************************************************************
         <<<     CCCCCC     CCCCCC   |||     CCCCCC     CCCCCC   >>>
       <<<      CCC        CCC       |||    CCC        CCC         >>>
      <<<      CCC        CCC        |||   CCC        CCC            >>>
    <<<        CCC        CCC        |||   CCC        CCC              >>>
      <<<      CCC        CCC        |||   CCC        CCC            >>>
       <<<      CCC        CCC       |||    CCC        CCC         >>>
         <<<     CCCCCC     CCCCCC   |||     CCCCCC     CCCCCC   >>>
   *************************************************************************

     ****************************************************************
     * CFOUR Coupled-Cluster techniques for Computational Chemistry *
     ****************************************************************
 

   Department of Chemistry                Institut fuer Physikalische Chemie
   University of Florida                  Universitaet Mainz
   Gainesville, FL 32611, USA             D-55099 Mainz, Germany

   Department of Chemistry                Fakultaet fuer Chemie und Biowiss.
   Johns Hopkins University               Karlsruher Institut fuer Technologie
   Baltimore, MD 21218, USA               D-76131 Karlsruhe, Germany

   Department of Chemistry                Department of Physical Chemistry
   Southern Methodist University          Eotvos Lorand University
   Dallas, TX 75275, USA                  H-1053 Budapest, Hungary

 
                       Version 2.1
 
                     vincent.theory.phys.ucl.ac.uk                     
                     Thu 27 Feb 07:35:44 GMT 2025                      
                     integer*8 version is running
 
********************************************************************************
*                          Input from ZMAT file                                *
********************************************************************************
Carbon Monoxide DBOC calculation                                                
C                                                                               
O 1 r                                                                           
                                                                                
r=1.2413793103448276                                                            
                                                                                
                                                                                
*CFOUR(CALC=CCSD,BASIS=AUG-PCVQZ,SCF_CONV=10                                    
CC_CONV=14,DBOC=ON,MEMORY=500000000                                             
ZFIELD=-200)                                                                    
                                                                                
%isotopes                                                                       
13                                                                              
16                                                                              
********************************************************************************
  @GTFLGS-I, Hessian will be transformed to curvilinear coordinates.
    -------------------------------------------------------------------
                    CFOUR Control Parameters 
    -------------------------------------------------------------------
        External           Internal           Value            Units
          Name               Name
    -------------------------------------------------------------------
       ABCDTYPE             IABCDT         STANDARD    [  0]    ***   
       ANHARMONIC           IANHAR         OFF         [  0]    ***   
       ANH_ALGORIT          IANALG         STANDARD    [  0]    ***   
       ANH_DERIVAT          IANDER         SECOND      [  1]    ***   
       ANH_MODE             ANHMOD         VIBRATION   [  0]    ***   
       ANH_STEPSIZ          ICUBST             50000          x 10-6  
       ANH_SYMMETR          IANHSM         ABELIAN     [  0]    ***   
       AO_LADDERS           IAOLAD         SINGLEPASS  [  1]    ***   
       AV_SCF               IAVSCF         OFF         [  0]    ***   
       BASIS                IBASIS         AUG-PCVQZ   [ 52]    ***   
       BOTHVECTORS          BOTHVC         OFF         [  0]    ***   
       BOX_POTENT           IPIAB          OFF         [  0]    ***   
       BREIT                IBREIT         OFF         [  0]    ***   
       BRUCK_CONV           IBRTOL          10D-  4             ***   
       BRUECKNER            IBRKNR         OFF         [  0]    ***   
       BUFFERSIZE           IBUFFS              4096            ***   
       CACHE_RECS           ICHREC             10               ***   
       CALCLEVEL            ICLLVL         CCSD        [ 10]    ***   
       CCORBOPT             ICCORB         OFF         [  0]  x 0.01  
       CC_CONV              ICCCNV          10D- 14             ***   
       CC_EXPORDER          ICCEOR              5               ***   
       CC_EXTRAPOL          ICCEXT         DIIS        [  1]    ***   
       CC_GUESS             ICCGES         MP2         [  0]    ***   
       CC_MAXCYC            ICCCYC            100              cycles 
       CC_PROGRAM           ICCPRO         VCC         [  0]    ***   
       CHARGE               ICHRGE              0               ***   
       CHOLESKY             ICHOLE         OFF         [  0]    ***   
       CIS_CONV             ICISTL              5               ***   
       COMM_SIZE            IPSIZE            ***               ***   
       CONSTANT             ICONST         OLD         [  1]    ***   
       CONTINUUM            ICONTU         NONE        [  0]    ***   
       CONTRACTION          ICNTYP         GENERAL     [  1]    ***   
       COORDINATES          ICOORD         INTERNAL    [  0]    ***   
       CPHF_CONVER          ICPHFT          10D- 16             ***   
       CPHF_MAXCYC          ICPHFC             64              cycles 
       CUBIC                ICUBIC         OFF         [  0]    ***   
       CURVILINEAR          ICURVY         ON          [  1]    ***   
       DBOC                 IDBOC          ON          [  1]    ***   
       DCT                  IDCT           OFF         [  0]    ***   
       DERIV_LEV            IDRLVL         SECOND      [  2]    ***   
       DEVMEM_SIZE          IDVMEM          50000000           MByte  
       DIAG_MRCC            IEOMST          10D-  0             ***   
       DIFF_TYPE            IDIFTY         RELAXED     [  0]    ***   
       DIRECT               IDIRCT         OFF         [  0]    ***   
       DROPMO               IDRPMO      NONE         
       ECP                  IECP           OFF         [  0]    ***   
       EIGENVECTOR          IVEC                1               ***   
       EL_ANHARM            IELANH         OFF         [  0]    ***   
       EOMFOLLOW            IEOMSR         ENERGY      [  0]    ***   
       EOMIP                IEOMIP         OFF         [  0]    ***   
       EOMLEVEL             HBARFM         SAME        [  0]    ***   
       EOM_MRCC             IMRCCE         NEW         [  1]    ***   
       EOM_NONIT            EOMNON         OFF         [  0]    ***   
       EOM_NSING            IEOMSI          10D-  0             ***   
       EOM_NSTATES          IMRCCD         DAVIDSON    [  0]    ***   
       EOM_NTRIP            IEOMTR          10D-  0             ***   
       EOM_ORDER            IEXORD         ENERGY      [  0]    ***   
       EOM_PROPSTA          IEOMST              0               ***   
       ESTATE_CONV          IEXTOL          10D-  5             ***   
       ESTATE_DIAG          IEXDIG         ITERATIVE   [  0]    ***   
       ESTATE_LOCK          IESLOC         ON          [  1]    ***   
       ESTATE_MAXC          IEXMXC             40               ***   
       ESTATE_PROP          IEXPRP         OFF         [  0]    ***   
       EVAL_HESS            IRECAL              0            # of cyc.
       EXCITATION           IEXCIT              0               ***   
       EXCITE               IEXCIT         NONE        [  0]    ***   
       EXTERN_POT           IEXPOT         OFF         [  0]    ***   
       FCGRADNEW            IFCGNW         OFF         [  0]    ***   
       FC_FIELD             IFINFC              0             x 10-6  
       FD_CALTYPE           IFDCAL         GRADONLY    [  0]    ***   
       FD_PROJECT           IFDPRJ         OFF         [  1]    ***   
       FD_STEPSIZE          IDISFD              0            10-4 bohr
       FD_USEGROUP          IFDGRP         FULL        [  0]    ***   
       FILE_RECSIZ          IFLREC              4096           words  
       FINITE_PERT          IFIPER              0             x 10-6  
       FIXGEOM              IFIXGM         OFF         [  0]    ***   
       FOCK                 IFOCK          AO          [  1]    ***   
       FREQ_ALGORI          IVIALG         STANDARD    [  0]    ***   
       FROZEN_CORE          IFROCO         OFF         [  0]    ***   
       GAMMA_ABCD           IGABCD         STORE       [  0]    ***   
       GAMMA_ABCI           IGABCI         STORE       [  0]    ***   
       GENBAS_1             IGNBS1              0               ***   
       GENBAS_2             IGNBS2              0               ***   
       GENBAS_3             IGNBS3              0               ***   
       GENBAS_4             IGNBS4              0               ***   
       GEO_CONV             ICONTL              5              H/bohr 
       GEO_MAXCYC           IOPTCY             50               ***   
       GEO_MAXSTEP          IMXSTP            300            millibohr
       GEO_METHOD           INR            SINGLE_POINT[  5]    ***   
       GIAO                 IGIAO          OFF         [  1]    ***   
       GIMIC                IGIMIC         OFF         [  0]    ***   
       GRID                 IGRID          OFF         [  0]    ***   
       GRID_ALGO            IGALGO         SERIAL      [  0]    ***   
       GUESS                IGUESS         MOREAD      [  0]    ***   
       HBAR                 IHBAR          OFF         [  0]    ***   
       HESS_TYPE            IHESTP         SCF         [  0]    ***   
       HF2_FILE             IHF2Fl         USE         [  1]    ***   
       HFSTABILITY          ISTABL         OFF         [  0]    ***   
       INCORE               INCORE         OFF         [  0]    ***   
       INPUT_MRCC           IMRCC          ON          [  1]    ***   
       INTEGRALS            INTTYP         VMOL        [  1]    ***   
       JODA_PRINT           IJPRNT              0               ***   
       KEYWORD_OUT          IDMPKW         NO          [  0]    ***   
       LINDEP_TOL           ILINDP              8               ***   
       LINEQ_CONV           IZTACN          10D-  7           cycles  
       LINEQ_EXPOR          ILMAXD              5               ***   
       LINEQ_MAXCY          ILMAXC            100               ***   
       LINEQ_TYPE           ILTYPE         DIIS        [  1]    ***   
       LOCK_ORBOCC          ILOCOC         OFF         [  0]    ***   
       MEMORY_SIZE          IMEMSZ         500000000           words  
       MEM_UNIT             IMEMU          INTEGERWORDS[  0]    ***   
       MRCC                 IMRCCC         OFF         [  0]    ***   
       MULTIPLICTY          IMULTP              1               ***   
       NACOUPLING           IVCOUP         OFF         [  0]    ***   
       NEGEVAL              IDIE           ABORT       [  0]    ***   
       NEWNORM              INEWNO         OFF         [  0]    ***   
       NON-HF               INONHF         OFF         [  0]    ***   
       NTOP_TAMP            ITOPT2             15               ***   
       NUC_MODEL            INUCMO         POINT       [  0]    ***   
       OCCUPATION           IOCCU   ESTIMATED BY SCF 
       OPEN-SHELL           IOPEN          SPIN-ORBITAL[  0]    ***   
       OPTVIB               IOPTVB         OFF         [  0]    ***   
       ORBITALS             IORBTP         STANDARD    [  0]    ***   
       PARALLEL             IPARAL         ON          [  1]    ***   
       PARA_INT             IPINTS         ON          [  1]    ***   
       PARA_PRINT           IPPRIN              0               ***   
       PERT_ORB             IPTORB         STANDARD    [  0]    ***   
       POINTS               IGRDFD              0               ***   
       PRINT                IPRNT               0               ***   
       PROPS                IPROPS         OFF         [  0]    ***   
       PROP_INTEGR          IINTYP         INTERNAL    [  0]    ***   
       PSI                  IPSI           OFF         [  0]    ***   
       QC_ALG               IQCALG         FLM         [  0]    ***   
       QC_LINALG            IQCLIN         TRIDIAG     [  2]    ***   
       QC_MAXCYC            IQCMAX          10D-100           cycles  
       QC_MAXSCFCY          IQCMSC          10D- 15           cycles  
       QC_RTRUST            IQCRTR          10D-  0           x 10-3  
       QC_SKIPSCF           IQCSKI         OFF         [  0]    ***   
       QC_START             IQCSTA          10D-  1             ***   
       QRHFGUESS            IQGUES         OFF         [  0]    ***   
       QUARTIC              IQUART         OFF         [  0]    ***   
       RAMAN_INT            IRAMIN         OFF         [  0]    ***   
       RAMAN_ORB            IRAMRE         UNRELAXED   [  0]    ***   
       RDO                  IRDOFM         ON          [  1]    ***   
       REDUCE_REPR          REDREP         Ir          [  0]    ***   
       REFERENCE            IREFNC         RHF         [  0]    ***   
       RELATIVIST           IRELAT         OFF         [  0]    ***   
       RELAX_DENS           IRDENS         ON          [  1]    ***   
       RESET_FLAGS          IRESET         OFF         [  0]    ***   
       RESTART_CC           ICCRES         OFF         [  0]    ***   
       ROT_EVEC             ROTVEC              0               ***   
       SAVE_INTS            ISVINT         OFF         [  0]    ***   
       SCALE_ON             ISTCRT              0               ***   
       SCF_CONV             ISCFCV          10D- 10             ***   
       SCF_DAMPING          IDAMP               0             x 10-3  
       SCF_EXPORDE          IRPPOR              6               ***   
       SCF_EXPSTAR          IRPPLS              8               ***   
       SCF_EXTRAPO          IRPP           ON          [  1]    ***   
       SCF_MAXCYC           ISCFCY            150              cycles 
       SCF_NOSTOP           ISCFST         OFF         [  0]    ***   
       SCF_PRINT            ISCFPR              0               ***   
       SCF_PROG             ISCFPR         SCF         [  0]    ***   
       SD_FIELD             IFINSD              0             x 10-6  
       SOPERT               IPERSO         OFF         [  0]    ***   
       SPHERICAL            IDFGHI         ON          [  1]    ***   
       SPINORBIT            ISOCAL         OFF         [  0]    ***   
       SPINROTATIO          ISRCON         OFF         [  0]    ***   
       SPIN_FLIP            ISPFLP         OFF         [  0]    ***   
       SPIN_ORBIT           ISPORB         OFF         [  0]    ***   
       SPIN_SCAL            ISCSMP         OFF         [  0]    ***   
       STEEPSCALE           ISTPSC              1000          x 10-3  
       SUBGROUP             ISUBGP         DEFAULT     [  0]    ***   
       SUBGRPAXIS           ISBXYZ         X           [  0]    ***   
       SYMMETRY             ISYM           ON          [  0]    ***   
       SYM_CHECK            ISYMCK         OVERRIDE    [  1]    ***   
       T3_EXTRAPOL          IT3EXT         OFF         [  0]    ***   
       T4_EXTRAPOL          IT4EXP         OFF         [  0]    ***   
       TAMP_SUM             IEVERY              5               ***   
       TESTSUITE            ITESTS         OFF         [  0]    ***   
       THERMOCH             ITHERM         OFF         [  0]    ***   
       TOL_CHOLESK          ITOLCH          10D-  4             ***   
       TRANGRAD             IRESRM         OFF         [  0]    ***   
       TRANS_INV            ITRAIN         IGNORE      [  1]    ***   
       TREAT_PERT           ITREAT         SIMULTANEOUS[  0]    ***   
       TRIP_ALGORI          ITRALG         NORMAL      [  0]    ***   
       UIJ_THRESHO          IUIJTH              1               ***   
       UNITS                IUNITS         ANGSTROM    [  0]    ***   
       UNOS                 IUNOS          OFF         [  0]    ***   
       UPDATE_HESS          IHUPDT         ON          [  1]    ***   
       VIBPHASE             ISETPH         STANDARD    [  0]    ***   
       VIBRATION            IVIB           ANALYTIC    [  1]    ***   
       VIB_ALGORIT          IGEALG         STANDARD    [  0]    ***   
       VNATORB              IVNORB         OFF         [  0]    ***   
       VTRAN                IVTRAN         FULL/PARTIAL[  0]    ***   
       XFIELD               IXEFLD              0             x 10-6  
       XFORM_TOL            IXFTOL          10D- 11             ***   
       YFIELD               IYEFLD              0             x 10-6  
       ZFIELD               IZEFLD            ***             x 10-6  
       ZSCALE_EXP           IZEXPS         OFF         [  0]    ***   
    -------------------------------------------------------------------
   2 entries found in Z-matrix 
   Job Title : Carbon Monoxide DBOC calculation                                                
   There are  1 unique internal coordinates.
   Of these,  0 will be optimized.
   User supplied Z-matrix: 
--------------------------------------------------------------------------------
       SYMBOL    BOND      LENGTH    ANGLE     ANGLE     DIHED     ANGLE
                  TO      (ANGST)    WRT      (DEG)      WRT      (DEG)
--------------------------------------------------------------------------------
        C    
        O          1         r    
                  *Initial values for internal coordinates* 
                      Name             Value
                        r               1.2413793103
--------------------------------------------------------------------------------
  read isotopes from ZMAT file 
   Rotational constants (in cm-1): 
          1.5251841755             1.5251841755
   Rotational constants (in MHz): 
      45723.8776935230         45723.8776935230
********************************************************************************
   The full molecular point group is CXv .
   The largest Abelian subgroup of the full molecular point group is C2v .
   The computational point group is C2v .
********************************************************************************
--------------------------------------------------------------------------------
   Analysis of internal coordinates specified by Z-matrix 
--------------------------------------------------------------------------------
   *The nuclear repulsion energy is   20.461514533333329 a.u.
   *There is   1 degree of freedom within the tot. symm. molecular subspace.
   *Z-matrix requests optimization of   0 coordinates.
   *The optimization is constrained.
   *The following   1 parameters can have non-zero 
    derivatives within the totally symmetric subspace:
             r    [ 1]
   *The following   0 parameters are to be optimized:

   *The following coordinates must be varied in an  unconstrained optimization.
             r    [ 1]
--------------------------------------------------------------------------------


 ----------------------------------------------------------------
         Coordinates used in calculation (QCOMP) 
 ----------------------------------------------------------------
 Z-matrix   Atomic            Coordinates (in bohr)
  Symbol    Number           X              Y              Z
 ----------------------------------------------------------------
     C         6        -0.00000000     0.00000000     1.29393752
     O         8         0.00000000     0.00000000    -1.05192988
 ----------------------------------------------------------------
 
   Interatomic distance matrix (Angstroms) 
 
                 C             O    
                [ 1]        [ 2]
  C    [ 1]     0.00000
  O    [ 2]     1.24138     0.00000
 rotcon2
   Rotational constants (in cm-1): 
          1.5251841755             0.0000000000
   Rotational constants (in MHz): 
      45723.8776935230             0.0000000000
  ECPDATA file not present.   Using default ECPDATA. 
  @GTFLGS-I, Hessian will be transformed to curvilinear coordinates.
  There are  218 basis functions.
 @CHECKOUT-I, Total execution time (CPU/WALL):        0.12/       0.15 seconds.
--executable xjoda finished with status     0 in        0.18 seconds (walltime).
 --invoking executable--
/nfs/workspaces/public/cfour_mpi/bin/xvmol
 SERIAL VERSION OF MOLECULE STARTED
********************************************************************************
                    INPUT FROM MOL FILE
********************************************************************************
INTGRL        1    0    1    0    0    0    0    0    0                         
         *** CFOUR Program System (Release V0.1) ***                            
Carbon Monoxide DBOC calculation                                                
    2    2 X  Y       0.10E-08              0    0                              
   9999.00      3.00                                                            
          6.00000000    1    5    1    1    1    1    1                         
C #1  -0.000000000000000   0.000000000000000   1.293937520398449                
   16    9                                                                      
   33980.0000000000       9.100000000000000E-005 -1.900000000000000E-005        
  0.000000000000000E+000  0.000000000000000E+000  0.000000000000000E+000        
  0.000000000000000E+000  0.000000000000000E+000  0.000000000000000E+000        
  0.000000000000000E+000                                                        
   5089.00000000000       7.040000000000000E-004 -1.510000000000000E-004        
  0.000000000000000E+000  0.000000000000000E+000  0.000000000000000E+000        
  0.000000000000000E+000  0.000000000000000E+000  0.000000000000000E+000        
  0.000000000000000E+000                                                        
   1157.00000000000       3.693000000000000E-003 -7.850000000000000E-004        
  0.000000000000000E+000  0.000000000000000E+000  0.000000000000000E+000        
  0.000000000000000E+000  0.000000000000000E+000  0.000000000000000E+000        
  0.000000000000000E+000                                                        
   326.600000000000       1.536000000000000E-002 -3.324000000000000E-003        
  0.000000000000000E+000  0.000000000000000E+000  0.000000000000000E+000        
  0.000000000000000E+000  0.000000000000000E+000  0.000000000000000E+000        
  0.000000000000000E+000                                                        
   106.100000000000       5.292900000000000E-002 -1.151200000000000E-002        
  0.000000000000000E+000  0.000000000000000E+000  0.000000000000000E+000        
  0.000000000000000E+000  0.000000000000000E+000  0.000000000000000E+000        
  0.000000000000000E+000                                                        
   38.1100000000000       0.147043000000000      -3.416000000000000E-002        
  0.000000000000000E+000  0.000000000000000E+000  0.000000000000000E+000        
  0.000000000000000E+000  0.000000000000000E+000  0.000000000000000E+000        
  0.000000000000000E+000                                                        
   14.7500000000000       0.305631000000000      -7.717300000000001E-002        
  0.000000000000000E+000  0.000000000000000E+000  0.000000000000000E+000        
  0.000000000000000E+000  0.000000000000000E+000  0.000000000000000E+000        
  0.000000000000000E+000                                                        
   6.03500000000000       0.399345000000000      -0.141493000000000             
  0.000000000000000E+000  0.000000000000000E+000  0.000000000000000E+000        
  0.000000000000000E+000  0.000000000000000E+000  0.000000000000000E+000        
  0.000000000000000E+000                                                        
   2.53000000000000       0.217051000000000      -0.118019000000000             
  0.000000000000000E+000  0.000000000000000E+000  0.000000000000000E+000        
  0.000000000000000E+000  0.000000000000000E+000  0.000000000000000E+000        
  0.000000000000000E+000                                                        
  0.735500000000000       1.589400000000000E-002  0.273806000000000             
   1.00000000000000       0.000000000000000E+000  0.000000000000000E+000        
  0.000000000000000E+000  0.000000000000000E+000  0.000000000000000E+000        
  0.000000000000000E+000                                                        
  0.290500000000000      -3.084000000000000E-003  0.586510000000000             
  0.000000000000000E+000   1.00000000000000       0.000000000000000E+000        
  0.000000000000000E+000  0.000000000000000E+000  0.000000000000000E+000        
  0.000000000000000E+000                                                        
  0.111100000000000       9.779999999999999E-004  0.285430000000000             
  0.000000000000000E+000  0.000000000000000E+000   1.00000000000000             
  0.000000000000000E+000  0.000000000000000E+000  0.000000000000000E+000        
  0.000000000000000E+000                                                        
   7.21600000000000       0.000000000000000E+000  0.000000000000000E+000        
  0.000000000000000E+000  0.000000000000000E+000  0.000000000000000E+000        
   1.00000000000000       0.000000000000000E+000  0.000000000000000E+000        
  0.000000000000000E+000                                                        
   19.5700000000000       0.000000000000000E+000  0.000000000000000E+000        
  0.000000000000000E+000  0.000000000000000E+000  0.000000000000000E+000        
  0.000000000000000E+000   1.00000000000000       0.000000000000000E+000        
  0.000000000000000E+000                                                        
   53.0730000000000       0.000000000000000E+000  0.000000000000000E+000        
  0.000000000000000E+000  0.000000000000000E+000  0.000000000000000E+000        
  0.000000000000000E+000  0.000000000000000E+000   1.00000000000000             
  0.000000000000000E+000                                                        
  4.145000000000000E-002  0.000000000000000E+000  0.000000000000000E+000        
  0.000000000000000E+000  0.000000000000000E+000  0.000000000000000E+000        
  0.000000000000000E+000  0.000000000000000E+000  0.000000000000000E+000        
   1.00000000000000                                                             
   10    8                                                                      
   34.5100000000000       5.378000000000000E-003  0.000000000000000E+000        
  0.000000000000000E+000  0.000000000000000E+000  0.000000000000000E+000        
  0.000000000000000E+000  0.000000000000000E+000  0.000000000000000E+000        
   7.91500000000000       3.613200000000000E-002  0.000000000000000E+000        
  0.000000000000000E+000  0.000000000000000E+000  0.000000000000000E+000        
  0.000000000000000E+000  0.000000000000000E+000  0.000000000000000E+000        
   2.36800000000000       0.142493000000000       0.000000000000000E+000        
  0.000000000000000E+000  0.000000000000000E+000  0.000000000000000E+000        
  0.000000000000000E+000  0.000000000000000E+000  0.000000000000000E+000        
  0.813200000000000       0.342150000000000        1.00000000000000             
  0.000000000000000E+000  0.000000000000000E+000  0.000000000000000E+000        
  0.000000000000000E+000  0.000000000000000E+000  0.000000000000000E+000        
  0.289000000000000       0.463864000000000       0.000000000000000E+000        
   1.00000000000000       0.000000000000000E+000  0.000000000000000E+000        
  0.000000000000000E+000  0.000000000000000E+000  0.000000000000000E+000        
  0.100700000000000       0.250028000000000       0.000000000000000E+000        
  0.000000000000000E+000   1.00000000000000       0.000000000000000E+000        
  0.000000000000000E+000  0.000000000000000E+000  0.000000000000000E+000        
   8.18200000000000       0.000000000000000E+000  0.000000000000000E+000        
  0.000000000000000E+000  0.000000000000000E+000   1.00000000000000             
  0.000000000000000E+000  0.000000000000000E+000  0.000000000000000E+000        
   24.1860000000000       0.000000000000000E+000  0.000000000000000E+000        
  0.000000000000000E+000  0.000000000000000E+000  0.000000000000000E+000        
   1.00000000000000       0.000000000000000E+000  0.000000000000000E+000        
   71.4940000000000       0.000000000000000E+000  0.000000000000000E+000        
  0.000000000000000E+000  0.000000000000000E+000  0.000000000000000E+000        
  0.000000000000000E+000   1.00000000000000       0.000000000000000E+000        
  3.218000000000000E-002  0.000000000000000E+000  0.000000000000000E+000        
  0.000000000000000E+000  0.000000000000000E+000  0.000000000000000E+000        
  0.000000000000000E+000  0.000000000000000E+000   1.00000000000000             
    6    6                                                                      
   1.84800000000000        1.00000000000000       0.000000000000000E+000        
  0.000000000000000E+000  0.000000000000000E+000  0.000000000000000E+000        
  0.000000000000000E+000                                                        
  0.649000000000000       0.000000000000000E+000   1.00000000000000             
  0.000000000000000E+000  0.000000000000000E+000  0.000000000000000E+000        
  0.000000000000000E+000                                                        
  0.228000000000000       0.000000000000000E+000  0.000000000000000E+000        
   1.00000000000000       0.000000000000000E+000  0.000000000000000E+000        
  0.000000000000000E+000                                                        
   8.65600000000000       0.000000000000000E+000  0.000000000000000E+000        
  0.000000000000000E+000   1.00000000000000       0.000000000000000E+000        
  0.000000000000000E+000                                                        
   33.2130000000000       0.000000000000000E+000  0.000000000000000E+000        
  0.000000000000000E+000  0.000000000000000E+000   1.00000000000000             
  0.000000000000000E+000                                                        
  7.660000000000000E-002  0.000000000000000E+000  0.000000000000000E+000        
  0.000000000000000E+000  0.000000000000000E+000  0.000000000000000E+000        
   1.00000000000000                                                             
    4    4                                                                      
   1.41900000000000        1.00000000000000       0.000000000000000E+000        
  0.000000000000000E+000  0.000000000000000E+000                                
  0.485000000000000       0.000000000000000E+000   1.00000000000000             
  0.000000000000000E+000  0.000000000000000E+000                                
   24.6940000000000       0.000000000000000E+000  0.000000000000000E+000        
   1.00000000000000       0.000000000000000E+000                                
  0.187000000000000       0.000000000000000E+000  0.000000000000000E+000        
  0.000000000000000E+000   1.00000000000000                                     
    2    2                                                                      
   1.01100000000000        1.00000000000000       0.000000000000000E+000        
  0.424000000000000       0.000000000000000E+000   1.00000000000000             
          8.00000000    1    5    1    1    1    1    1                         
O #2   0.000000000000000   0.000000000000000  -1.051929884568296                
   16    9                                                                      
   61420.0000000000       9.000000000000001E-005 -2.000000000000000E-005        
  0.000000000000000E+000  0.000000000000000E+000  0.000000000000000E+000        
  0.000000000000000E+000  0.000000000000000E+000  0.000000000000000E+000        
  0.000000000000000E+000                                                        
   9199.00000000000       6.980000000000001E-004 -1.590000000000000E-004        
  0.000000000000000E+000  0.000000000000000E+000  0.000000000000000E+000        
  0.000000000000000E+000  0.000000000000000E+000  0.000000000000000E+000        
  0.000000000000000E+000                                                        
   2091.00000000000       3.664000000000000E-003 -8.290000000000000E-004        
  0.000000000000000E+000  0.000000000000000E+000  0.000000000000000E+000        
  0.000000000000000E+000  0.000000000000000E+000  0.000000000000000E+000        
  0.000000000000000E+000                                                        
   590.900000000000       1.521800000000000E-002 -3.508000000000000E-003        
  0.000000000000000E+000  0.000000000000000E+000  0.000000000000000E+000        
  0.000000000000000E+000  0.000000000000000E+000  0.000000000000000E+000        
  0.000000000000000E+000                                                        
   192.300000000000       5.242300000000000E-002 -1.215600000000000E-002        
  0.000000000000000E+000  0.000000000000000E+000  0.000000000000000E+000        
  0.000000000000000E+000  0.000000000000000E+000  0.000000000000000E+000        
  0.000000000000000E+000                                                        
   69.3200000000000       0.145921000000000      -3.626100000000000E-002        
  0.000000000000000E+000  0.000000000000000E+000  0.000000000000000E+000        
  0.000000000000000E+000  0.000000000000000E+000  0.000000000000000E+000        
  0.000000000000000E+000                                                        
   26.9700000000000       0.305258000000000      -8.299200000000000E-002        
  0.000000000000000E+000  0.000000000000000E+000  0.000000000000000E+000        
  0.000000000000000E+000  0.000000000000000E+000  0.000000000000000E+000        
  0.000000000000000E+000                                                        
   11.1000000000000       0.398508000000000      -0.152090000000000             
  0.000000000000000E+000  0.000000000000000E+000  0.000000000000000E+000        
  0.000000000000000E+000  0.000000000000000E+000  0.000000000000000E+000        
  0.000000000000000E+000                                                        
   4.68200000000000       0.216980000000000      -0.115331000000000             
  0.000000000000000E+000  0.000000000000000E+000  0.000000000000000E+000        
  0.000000000000000E+000  0.000000000000000E+000  0.000000000000000E+000        
  0.000000000000000E+000                                                        
   1.42800000000000       1.759400000000000E-002  0.288979000000000             
   1.00000000000000       0.000000000000000E+000  0.000000000000000E+000        
  0.000000000000000E+000  0.000000000000000E+000  0.000000000000000E+000        
  0.000000000000000E+000                                                        
  0.554700000000000      -2.502000000000000E-003  0.586128000000000             
  0.000000000000000E+000   1.00000000000000       0.000000000000000E+000        
  0.000000000000000E+000  0.000000000000000E+000  0.000000000000000E+000        
  0.000000000000000E+000                                                        
  0.206700000000000       9.540000000000000E-004  0.277624000000000             
  0.000000000000000E+000  0.000000000000000E+000   1.00000000000000             
  0.000000000000000E+000  0.000000000000000E+000  0.000000000000000E+000        
  0.000000000000000E+000                                                        
   12.9740000000000       0.000000000000000E+000  0.000000000000000E+000        
  0.000000000000000E+000  0.000000000000000E+000  0.000000000000000E+000        
   1.00000000000000       0.000000000000000E+000  0.000000000000000E+000        
  0.000000000000000E+000                                                        
   34.9000000000000       0.000000000000000E+000  0.000000000000000E+000        
  0.000000000000000E+000  0.000000000000000E+000  0.000000000000000E+000        
  0.000000000000000E+000   1.00000000000000       0.000000000000000E+000        
  0.000000000000000E+000                                                        
   93.8810000000000       0.000000000000000E+000  0.000000000000000E+000        
  0.000000000000000E+000  0.000000000000000E+000  0.000000000000000E+000        
  0.000000000000000E+000  0.000000000000000E+000   1.00000000000000             
  0.000000000000000E+000                                                        
  6.959000000000000E-002  0.000000000000000E+000  0.000000000000000E+000        
  0.000000000000000E+000  0.000000000000000E+000  0.000000000000000E+000        
  0.000000000000000E+000  0.000000000000000E+000  0.000000000000000E+000        
   1.00000000000000                                                             
   10    8                                                                      
   63.4200000000000       6.044000000000000E-003  0.000000000000000E+000        
  0.000000000000000E+000  0.000000000000000E+000  0.000000000000000E+000        
  0.000000000000000E+000  0.000000000000000E+000  0.000000000000000E+000        
   14.6600000000000       4.179900000000000E-002  0.000000000000000E+000        
  0.000000000000000E+000  0.000000000000000E+000  0.000000000000000E+000        
  0.000000000000000E+000  0.000000000000000E+000  0.000000000000000E+000        
   4.45900000000000       0.161143000000000       0.000000000000000E+000        
  0.000000000000000E+000  0.000000000000000E+000  0.000000000000000E+000        
  0.000000000000000E+000  0.000000000000000E+000  0.000000000000000E+000        
   1.53100000000000       0.356731000000000        1.00000000000000             
  0.000000000000000E+000  0.000000000000000E+000  0.000000000000000E+000        
  0.000000000000000E+000  0.000000000000000E+000  0.000000000000000E+000        
  0.530200000000000       0.448309000000000       0.000000000000000E+000        
   1.00000000000000       0.000000000000000E+000  0.000000000000000E+000        
  0.000000000000000E+000  0.000000000000000E+000  0.000000000000000E+000        
  0.175000000000000       0.244940000000000       0.000000000000000E+000        
  0.000000000000000E+000   1.00000000000000       0.000000000000000E+000        
  0.000000000000000E+000  0.000000000000000E+000  0.000000000000000E+000        
   14.4750000000000       0.000000000000000E+000  0.000000000000000E+000        
  0.000000000000000E+000  0.000000000000000E+000   1.00000000000000             
  0.000000000000000E+000  0.000000000000000E+000  0.000000000000000E+000        
   42.7300000000000       0.000000000000000E+000  0.000000000000000E+000        
  0.000000000000000E+000  0.000000000000000E+000  0.000000000000000E+000        
   1.00000000000000       0.000000000000000E+000  0.000000000000000E+000        
   126.140000000000       0.000000000000000E+000  0.000000000000000E+000        
  0.000000000000000E+000  0.000000000000000E+000  0.000000000000000E+000        
  0.000000000000000E+000   1.00000000000000       0.000000000000000E+000        
  5.348000000000000E-002  0.000000000000000E+000  0.000000000000000E+000        
  0.000000000000000E+000  0.000000000000000E+000  0.000000000000000E+000        
  0.000000000000000E+000  0.000000000000000E+000   1.00000000000000             
    6    6                                                                      
   3.77500000000000        1.00000000000000       0.000000000000000E+000        
  0.000000000000000E+000  0.000000000000000E+000  0.000000000000000E+000        
  0.000000000000000E+000                                                        
   1.30000000000000       0.000000000000000E+000   1.00000000000000             
  0.000000000000000E+000  0.000000000000000E+000  0.000000000000000E+000        
  0.000000000000000E+000                                                        
  0.444000000000000       0.000000000000000E+000  0.000000000000000E+000        
   1.00000000000000       0.000000000000000E+000  0.000000000000000E+000        
  0.000000000000000E+000                                                        
   14.9270000000000       0.000000000000000E+000  0.000000000000000E+000        
  0.000000000000000E+000   1.00000000000000       0.000000000000000E+000        
  0.000000000000000E+000                                                        
   57.5440000000000       0.000000000000000E+000  0.000000000000000E+000        
  0.000000000000000E+000  0.000000000000000E+000   1.00000000000000             
  0.000000000000000E+000                                                        
  0.154000000000000       0.000000000000000E+000  0.000000000000000E+000        
  0.000000000000000E+000  0.000000000000000E+000  0.000000000000000E+000        
   1.00000000000000                                                             
    4    4                                                                      
   2.66600000000000        1.00000000000000       0.000000000000000E+000        
  0.000000000000000E+000  0.000000000000000E+000                                
  0.859000000000000       0.000000000000000E+000   1.00000000000000             
  0.000000000000000E+000  0.000000000000000E+000                                
   26.4830000000000       0.000000000000000E+000  0.000000000000000E+000        
   1.00000000000000       0.000000000000000E+000                                
  0.324000000000000       0.000000000000000E+000  0.000000000000000E+000        
  0.000000000000000E+000   1.00000000000000                                     
    2    2                                                                      
   1.84600000000000        1.00000000000000       0.000000000000000E+000        
  0.714000000000000       0.000000000000000E+000   1.00000000000000             
FINISH                                                                          
 
********************************************************************************
 ONE- AND TWO-ELECTRON INTEGRALS OVER SYMMETRY-ADAPTED AOS ARE CALCULATED.

  SPHERICAL HARMONICS ARE USED.
  
  INTEGRALS LESS THAN  0.10E-13 ARE NEGLECTED.

  NUCLEAR REPULSION ENERGY :   20.4615145333 A.U.
  @MOLECU-I, ONE ELECTRON INTEGRALS (CPU/WALL):        0.05/       0.06 SECONDS.
  @TWOEL-I,    4549085 INTEGRALS OF SYMMETRY TYPE  I I I I
  @TWOEL-I,   19555378 INTEGRALS OF SYMMETRY TYPE  I J I J
  @TWOEL-I,   10304504 INTEGRALS OF SYMMETRY TYPE  I I J J
  @TWOEL-I,   14471085 INTEGRALS OF SYMMETRY TYPE  I J K L
  @TWOEL-I, TOTAL NUMBER OF 2-E INTEGRALS   48880052.
  @MOLECU-I, TWO ELECTRON INTEGRALS (CPU/WALL):      147.19/      19.78 SECONDS.
 @CHECKOUT-I, Total execution time (CPU/WALL):      147.27/      19.86 seconds.

Running with 14 threads/proc

--executable xvmol finished with status     0 in       19.89 seconds (walltime).
 --invoking executable--
/nfs/workspaces/public/cfour_mpi/bin/xvmol2ja
 @GETMEM-I,  Allocated    3814 MB of main memory.
 @CHECKOUT-I, Total execution time (CPU/WALL):        0.15/       0.04 seconds.
--executable xvmol2ja finished with status     0 in        0.07 seconds (walltime).
 --invoking executable--
/nfs/workspaces/public/cfour_mpi/bin/xvprop
 @GETMEM-I,  Allocated    3814 MB of main memory.
   Property integrals will be calculated.
    --------------------------------------------------------------
                                   Property evaluated at 
    Property type                X             Y             Z
    --------------------------------------------------------------
    Dipole moment               ----          ----          ----  
    Quadrupole moment           ----          ----          ----  
    Octopole moment             ----          ----          ----  
    Relativisitic corr.         ----          ----          ----  
    Second moment            0.0000000     0.0000000     0.0000000
    Electron density         0.0000000     0.0000000     1.2939375
    Electron density         0.0000000     0.0000000    -1.0519299
    Field gradient           0.0000000     0.0000000     1.2939375
    Field gradient           0.0000000     0.0000000    -1.0519299
    Potential                0.0000000     0.0000000     1.2939375
    Potential                0.0000000     0.0000000    -1.0519299
    --------------------------------------------------------------
 @CHECKOUT-I, Total execution time (CPU/WALL):        1.29/       1.30 seconds.
--executable xvprop finished with status     0 in        1.31 seconds (walltime).
 --invoking executable--
/nfs/workspaces/public/cfour_mpi/bin/xvscf
  There are  218 functions in the AO basis.

  There are 4 irreducible representations.

       Irrep        # of functions
         1                 86
         2                 52
         3                 52
         4                 28


  Parameters for SCF calculation: 
        SCF reference function:  RHF  
  Maximum number of iterations:  150
     Full symmetry point group: CXv 
     Computational point group: C2v 
        Initial density matrix: MOREAD                 
     SCF convergence tolerance: 10**(-10)
  DIIS convergence acceleration:  ON
          Latest start for DIIS:   8
                     DIIS order:   6

  Memory information:    2523578 words required.
  Fock matrices are constructed from AO integral file.
 @GETMEM-I,  Allocated      19 MB of main memory.
  Initialization and symmetry analysis required      0.002 seconds.

  Adding electric field perturbation to one-electron Hamiltonian.
  Field direction     : Z
  Field strength      : -0.0002000 a.u.

  @INITGES-I, Occupancies from core Hamiltonian:

          Alpha population by irrep:   5    1    1    0
           Beta population by irrep:   5    1    1    0


 total no. of electrons in initial guess :  0.000000000000000E+000
  --------------------------------------------------------------------
  Iteration         Total Energy            Largest Density Difference
  --------------------------------------------------------------------
       0            20.461384170542832              0.0000000000D+00
   current occupation vector 
     5  1  1  0
     5  1  1  0
       1           -92.520913930740249              0.1813352081D+02
   current occupation vector 
     5  1  1  0
     5  1  1  0
       2           -98.017597369129604              0.1812917960D+02
   current occupation vector 
     5  1  1  0
     5  1  1  0
       3          -103.519714922616657              0.8538889602D+01
   current occupation vector 
     5  1  1  0
     5  1  1  0
       4           -99.775184234484783              0.7231553467D+01
   current occupation vector 
     5  1  1  0
     5  1  1  0
       5          -102.363212235607492              0.5901676283D+01
   current occupation vector 
     5  1  1  0
     5  1  1  0
       6           -98.955414087795688              0.5901877608D+01
   current occupation vector 
     5  1  1  0
     5  1  1  0
       7          -102.365942028704580              0.6022985793D+01
   current occupation vector 
     5  1  1  0
     5  1  1  0
       8           -98.848809193004072              0.6019120307D+01
   current occupation vector 
     5  1  1  0
     5  1  1  0
       9          -109.780132049186165              0.4545359533D+01
   current occupation vector 
     5  1  1  0
     5  1  1  0
      10          -111.721134042073942              0.1098168376D+01
   current occupation vector 
     5  1  1  0
     5  1  1  0
      11          -112.686430849029875              0.6611006212D+00
   current occupation vector 
     5  1  1  0
     5  1  1  0
      12          -112.750156518814862              0.2127966214D+00
   current occupation vector 
     5  1  1  0
     5  1  1  0
      13          -112.751522556458525              0.4394155716D-01
   current occupation vector 
     5  1  1  0
     5  1  1  0
      14          -112.751701141209082              0.1757128912D-01
   current occupation vector 
     5  1  1  0
     5  1  1  0
      15          -112.751730292039611              0.1039117561D-01
   current occupation vector 
     5  1  1  0
     5  1  1  0
      16          -112.751730626838508              0.7801046879D-03
   current occupation vector 
     5  1  1  0
     5  1  1  0
      17          -112.751730643335577              0.2095595554D-03
   current occupation vector 
     5  1  1  0
     5  1  1  0
      18          -112.751730644232083              0.5525040860D-04
   current occupation vector 
     5  1  1  0
     5  1  1  0
      19          -112.751730644265137              0.1065428560D-04
   current occupation vector 
     5  1  1  0
     5  1  1  0
      20          -112.751730644264853              0.1700474718D-05
   current occupation vector 
     5  1  1  0
     5  1  1  0
      21          -112.751730644265848              0.2400876422D-06
   current occupation vector 
     5  1  1  0
     5  1  1  0
      22          -112.751730644265564              0.4984764157D-07
   current occupation vector 
     5  1  1  0
     5  1  1  0
      23          -112.751730644265251              0.2000836941D-07
   current occupation vector 
     5  1  1  0
     5  1  1  0
      24          -112.751730644266104              0.3214726263D-09
   current occupation vector 
     5  1  1  0
     5  1  1  0
      25          -112.751730644264597              0.1278008810D-09
   current occupation vector 
     5  1  1  0
     5  1  1  0

  SCF has converged.

 Density matrix saved to file den.dat
 total electron number:   14.0000000000003     
     E(SCF)=      -112.751730644265535              0.6970157784D-10

  Eigenvector printing suppressed.

 @PUTMOS-I, Writing converged MOs to NEWMOS. 
 @PUTMOS-I, Symmetry   1 Full Blocks 21 Partial Blocksize   2
 @PUTMOS-I, Symmetry   2 Full Blocks 13 Partial Blocksize   0
 @PUTMOS-I, Symmetry   3 Full Blocks 13 Partial Blocksize   0
 @PUTMOS-I, Symmetry   4 Full Blocks  7 Partial Blocksize   0
 @PUTFOCK-I, Writing converged Fock matrix to NEWFOCK. 
 @PUTFOCK-I, Symmetry   1 Full Blocks 21 Partial Blocksize   2
 @PUTFOCK-I, Symmetry   2 Full Blocks 13 Partial Blocksize   0
 @PUTFOCK-I, Symmetry   3 Full Blocks 13 Partial Blocksize   0
 @PUTFOCK-I, Symmetry   4 Full Blocks  7 Partial Blocksize   0


 
  ORBITAL EIGENVALUES (ALPHA)  (1H = 27.2113834 eV)

       MO #        E(hartree)               E(eV)           FULLSYM    COMPSYM
       ----   --------------------   --------------------   -------   ---------
    1     1         -20.6668510107        -562.3736065225     SG+        A1 (1)
    2     2         -11.4097129605        -310.4740738522     SG+        A1 (1)
    3     3          -1.4473974109         -39.3856858807     SG+        A1 (1)
    4     4          -0.7962500985         -21.6670667121     SG+        A1 (1)
    5    87          -0.5951056225         -16.1936472561      PI        B1 (2)
    6   139          -0.5951056225         -16.1936472561      PI        B2 (3)
    7     5          -0.5646012963         -15.3635823418     SG+        A1 (1)
  +++++++++++++++++++++++++++++++++++++++++++++++++++++++++++++++++++++++++++++
    8   140           0.0559898376           1.5235609377      PI        B2 (3)
    9    88           0.0559898376           1.5235609377      PI        B1 (2)
   10     6           0.0623595770           1.6968903594     SG+        A1 (1)
   11     7           0.0714178390           1.9433781998     SG+        A1 (1)
   12   141           0.1132145274           3.0807239112      PI        B2 (3)
   13    89           0.1132145274           3.0807239112      PI        B1 (2)
   14     8           0.1569878615           4.2718568879     SG+        A1 (1)
   15    90           0.1676799954           4.5628046430      PI        B1 (2)
   16   142           0.1676799954           4.5628046430      PI        B2 (3)
   17   191           0.2270012234           6.1770173219      DE        A2 (4)
   18     9           0.2270012234           6.1770173219      DE        A1 (1)
   19    10           0.2283824316           6.2146019086     SG+        A1 (1)
   20    11           0.2999449940           8.1619182319     SG+        A1 (1)
   21    91           0.3092485088           8.4150797380      PI        B1 (2)
   22   143           0.3092485088           8.4150797380      PI        B2 (3)
   23    12           0.3857875074          10.4978117741     SG+        A1 (1)
   24   144           0.3954650442          10.7611509382      PI        B2 (3)
   25    92           0.3954650442          10.7611509382      PI        B1 (2)
   26    13           0.5093650076          13.8605265132     SG+        A1 (1)
   27   192           0.5411203506          14.7246333257      DE        A2 (4)
   28    14           0.5411203506          14.7246333257      DE        A1 (1)
   29    15           0.5973273327          16.2541030657     SG+        A1 (1)
   30   145           0.6258153456          17.0293013071      PI        B2 (3)
   31    93           0.6258153456          17.0293013071      PI        B1 (2)
   32    94           0.7457220337          20.2921281700      PH        B1 (2)
   33   146           0.7457220337          20.2921281700      PH        B2 (3)
   34    16           0.7627596608          20.7557455716      DE        A1 (1)
   35   193           0.7627596608          20.7557455716      DE        A2 (4)
   36    17           0.7737246748          21.0541187731     SG+        A1 (1)
   37    95           0.8094601854          22.0265314526      PI        B1 (2)
   38   147           0.8094601854          22.0265314526      PI        B2 (3)
   39    18           0.8453099015          23.0020518224     SG+        A1 (1)
   40    19           0.8720971443          23.7309697546     SG+        A1 (1)
   41    20           0.8841223693          24.0581927625      DE        A1 (1)
   42   194           0.8841223693          24.0581927625      DE        A2 (4)
   43   148           0.8899833575          24.2176783619      PI        B2 (3)
   44    96           0.8899833575          24.2176783619      PI        B1 (2)
   45   149           1.0532795366          28.6611932977      PI        B2 (3)
   46    97           1.0532795366          28.6611932977      PI        B1 (2)
   47    21           1.1384526624          30.9788718793     SG+        A1 (1)
   48    22           1.4368292958          39.0981128479     SG+        A1 (1)
   49    98           1.4393723097          39.1673117740      PH        B1 (2)
   50   150           1.4393723097          39.1673117740      PH        B2 (3)
   51    23           1.5366180914          41.8135040242      DE        A1 (1)
   52   195           1.5366180914          41.8135040242      DE        A2 (4)
   53   151           1.5680073738          42.6676498230      PI        B2 (3)
   54    99           1.5680073738          42.6676498230      PI        B1 (2)
   55    24           1.6623367982          45.2344839549     SG+        A1 (1)
   56   152           1.7219420595          46.8564255741      PI        B2 (3)
   57   100           1.7219420595          46.8564255741      PI        B1 (2)
   58    25           1.7512695057          47.6544659550      DE        A1 (1)
   59   196           1.7512695057          47.6544659550      DE        A2 (4)
   60    26           1.8135326306          49.3487317207     SG+        A1 (1)
   61   101           2.0230014458          55.0486679602      PI        B1 (2)
   62   153           2.0230014458          55.0486679602      PI        B2 (3)
   63    27           2.0712526687          56.3616504865     SG+        A1 (1)
   64   197           2.0972846108          57.0700156424      PI        A2 (4)
   65    28           2.0972846108          57.0700156424      PI        A1 (1)
   66    29           2.1744312079          59.1692812741      DE        A1 (1)
   67   198           2.1744312079          59.1692812741      DE        A2 (4)
   68   154           2.2415133886          60.9946802130      PH        B2 (3)
   69   102           2.2415133886          60.9946802130      PH        B1 (2)
   70   103           2.3005050869          62.5999259334      PI        B1 (2)
   71   155           2.3005050869          62.5999259334      PI        B2 (3)
   72    30           2.3044308242          62.7067506768     SG+        A1 (1)
   73   156           2.3221089568          63.1877971205      PH        B2 (3)
   74   104           2.3221089568          63.1877971205      PH        B1 (2)
   75   199           2.3452588711          63.8177383145      DE        A2 (4)
   76    31           2.3452588711          63.8177383145      DE        A1 (1)
   77    32           2.4839306701          67.5911898038     SG+        A1 (1)
   78   157           2.5675525434          69.8666566578      PI        B2 (3)
   79   105           2.5675525434          69.8666566578      PI        B1 (2)
   80   158           2.7400687611          74.5610616002      PI        B2 (3)
   81   106           2.7400687611          74.5610616002      PI        B1 (2)
   82    33           2.7857220673          75.8033512178     SG+        A1 (1)
   83    34           2.9125110622          79.2534551698      DE        A1 (1)
   84   200           2.9125110622          79.2534551698      DE        A2 (4)
   85    35           3.4590915838          94.1266673033     SG+        A1 (1)
   86   159           3.6961173112         100.5764652466      PI        B2 (3)
   87   107           3.6961173112         100.5764652467      PI        B1 (2)
   88    36           3.7081667934         100.9043483258      PI        A1 (1)
   89   201           3.7081667934         100.9043483258      PI        A2 (4)
   90    37           3.9091947484         106.3745970846     SG+        A1 (1)
   91   108           4.0874453875         111.2250435655      PH        B1 (2)
   92   160           4.0874453875         111.2250435655      PH        B2 (3)
   93   161           4.1751026206         113.6103181428      PH        B2 (3)
   94   109           4.1751026206         113.6103181428      PH        B1 (2)
   95   202           4.1916215280         114.0598204654      DE        A2 (4)
   96    38           4.1916215280         114.0598204654      DE        A1 (1)
   97   110           4.1960047668         114.1790944578      PI        B1 (2)
   98   162           4.1960047668         114.1790944578      PI        B2 (3)
   99    39           4.2364114251         115.2786155276     SG+        A1 (1)
  100    40           4.3333256479         117.9157856014      DE        A1 (1)
  101   203           4.3333256479         117.9157856014      DE        A2 (4)
  102    41           4.4027044867         119.8036797858     SG+        A1 (1)
  103   163           4.8502572519         131.9822096703      PI        B2 (3)
  104   111           4.8502572519         131.9822096704      PI        B1 (2)
  105   164           4.9513820972         134.7339566057      PI        B2 (3)
  106   112           4.9513820972         134.7339566057      PI        B1 (2)
  107    42           5.0606492959         137.7072682435      DE        A1 (1)
  108   204           5.0606492959         137.7072682435      DE        A2 (4)
  109    43           5.1648771407         140.5434520900     SG+        A1 (1)
  110    44           5.4591934865         148.5522070147     SG+        A1 (1)
  111   165           5.6814409013         154.5998666303      PI        B2 (3)
  112   113           5.6814409013         154.5998666303      PI        B1 (2)
  113    45           5.8834548143         160.0969446694      PI        A1 (1)
  114   205           5.8834548143         160.0969446694      PI        A2 (4)
  115   166           6.0400577073         164.3583260327      PH        B2 (3)
  116   114           6.0400577073         164.3583260327      PH        B1 (2)
  117    46           6.2335653700         169.6239372328     SG+        A1 (1)
  118   206           6.2613451966         170.3798647445      DE        A2 (4)
  119    47           6.2613451966         170.3798647445      DE        A1 (1)
  120   167           6.2918362873         171.2095695041      PI        B2 (3)
  121   115           6.2918362873         171.2095695041      PI        B1 (2)
  122   116           6.4226076856         174.7680401610      PH        B1 (2)
  123   168           6.4226076856         174.7680401610      PH        B2 (3)
  124   207           6.5518025001         178.2836097908      DE        A2 (4)
  125    48           6.5518025001         178.2836097909      DE        A1 (1)
  126    49           6.7316704056         183.1780643294     SG+        A1 (1)
  127   208           6.9596477624         189.3816435912      DE        A2 (4)
  128    50           6.9596477624         189.3816435912      DE        A1 (1)
  129   169           7.2447426439         197.1394697169      PI        B2 (3)
  130   117           7.2447426439         197.1394697170      PI        B1 (2)
  131    51           7.5992048748         206.7848773831     SG+        A1 (1)
  132   170           8.1378843123         221.4430900857      PI        B2 (3)
  133   118           8.1378843123         221.4430900857      PI        B1 (2)
  134    52           8.1649060204         222.1783881449     SG+        A1 (1)
  135   171          10.1021858043         274.8944510978      PI        B2 (3)
  136   119          10.1021858043         274.8944510978      PI        B1 (2)
  137    53          10.3708017010         282.2038612517     SG+        A1 (1)
  138   209          10.6094746534         288.6984824665      PI        A2 (4)
  139    54          10.6094746534         288.6984824665      PI        A1 (1)
  140   172          10.8190994361         294.4026627983      PH        B2 (3)
  141   120          10.8190994361         294.4026627983      PH        B1 (2)
  142    55          10.9568475189         298.1509786928     SG+        A1 (1)
  143   210          11.0549682031         300.8209782487      DE        A2 (4)
  144    56          11.0549682031         300.8209782487      DE        A1 (1)
  145   173          11.2758365812         306.8311123675      PI        B2 (3)
  146   121          11.2758365812         306.8311123675      PI        B1 (2)
  147    57          11.5091860263         313.1808735840     SG+        A1 (1)
  148   122          11.8572545574         322.6522998317      PH        B1 (2)
  149   174          11.8572545574         322.6522998317      PH        B2 (3)
  150    58          12.1818183757         331.4841303299      DE        A1 (1)
  151   211          12.1818183757         331.4841303299      DE        A2 (4)
  152   175          12.5663662353         341.9482095736      PI        B2 (3)
  153   123          12.5663662353         341.9482095736      PI        B1 (2)
  154    59          12.8150709651         348.7158093306      DE        A1 (1)
  155   212          12.8150709651         348.7158093306      DE        A2 (4)
  156    60          13.0273138850         354.4912327968     SG+        A1 (1)
  157   176          13.6095138155         370.3336983211      PI        B2 (3)
  158   124          13.6095138155         370.3336983211      PI        B1 (2)
  159    61          14.8294514382         403.5298886954     SG+        A1 (1)
  160    62          17.8595155450         485.9821248337     SG+        A1 (1)
  161   125          19.1777898377         521.8541920395      PI        B1 (2)
  162   177          19.1777898377         521.8541920395      PI        B2 (3)
  163    63          20.5242100603         558.4921489323     SG+        A1 (1)
  164   213          26.4349496138         719.3315491015      DE        A2 (4)
  165    64          26.4349496138         719.3315491015      DE        A1 (1)
  166   178          26.8664014051         731.0719492116      PI        B2 (3)
  167   126          26.8664014051         731.0719492116      PI        B1 (2)
  168    65          27.7237603883         754.4018732157     SG+        A1 (1)
  169   179          33.7499569203         918.3830174931      PI        B2 (3)
  170   127          33.7499569204         918.3830174933      PI        B1 (2)
  171    66          34.7203814443         944.7896112748     SG+        A1 (1)
  172    67          36.4109362565         990.7919464286     SG+        A1 (1)
  173    68          47.0982830707        1281.6094381181      DE        A1 (1)
  174   214          47.0982830707        1281.6094381181      DE        A2 (4)
  175   180          47.4503434157        1291.1894871472      PI        B2 (3)
  176   128          47.4503434157        1291.1894871472      PI        B1 (2)
  177    69          48.2338983309        1312.5111003596     SG+        A1 (1)
  178    70          64.0757813060        1743.5906517727     SG+        A1 (1)
  179   129          66.6642940201        1814.0276636718      PI        B1 (2)
  180   181          66.6642940201        1814.0276636718      PI        B2 (3)
  181    71          67.6864075395        1841.8407865268     SG+        A1 (1)
  182   130          98.6241083974        2683.6984260857      PH        B1 (2)
  183   182          98.6241083974        2683.6984260857      PH        B2 (3)
  184   215          98.6404042189        2684.1418579305      DE        A2 (4)
  185    72          98.6404042189        2684.1418579305      DE        A1 (1)
  186   131          98.6854019473        2685.3663083709      PI        B1 (2)
  187   183          98.6854019473        2685.3663083709      PI        B2 (3)
  188    73          98.7048643157        2685.8959063408     SG+        A1 (1)
  189   132         103.2828361237        2810.4688524002      PH        B1 (2)
  190   184         103.2828361237        2810.4688524002      PH        B2 (3)
  191    74         103.3179485657        2811.4243105236      DE        A1 (1)
  192   216         103.3179485657        2811.4243105240      DE        A2 (4)
  193   133         103.3536317132        2812.3952983309      PI        B1 (2)
  194   185         103.3536317132        2812.3952983309      PI        B2 (3)
  195    75         103.3828564447        2813.1905437047     SG+        A1 (1)
  196    76         115.1095058245        3132.2888959743      DE        A1 (1)
  197   217         115.1095058245        3132.2888959743      DE        A2 (4)
  198   186         115.3199581044        3138.0155936498      PI        B2 (3)
  199   134         115.3199581044        3138.0155936498      PI        B1 (2)
  200    77         115.7454920446        3149.5949608473     SG+        A1 (1)
  201   187         117.0062957113        3183.9031728146      PI        B2 (3)
  202   135         117.0062957113        3183.9031728147      PI        B1 (2)
  203    78         117.7666305430        3204.5929354309     SG+        A1 (1)
  204    79         122.6243010978        3336.7768713295     SG+        A1 (1)
  205    80         198.5625390949        5403.1613801881      DE        A1 (1)
  206   218         198.5625390949        5403.1613801881      DE        A2 (4)
  207   136         198.7507718462        5408.2834537531      PI        B1 (2)
  208   188         198.7507718462        5408.2834537533      PI        B2 (3)
  209    81         199.1480675139        5419.0944184900     SG+        A1 (1)
  210    82         216.5701456979        5893.1732675804     SG+        A1 (1)
  211   137         225.0975460669        6125.2156284268      PI        B1 (2)
  212   189         225.0975460669        6125.2156284269      PI        B2 (3)
  213    83         225.9252102260        6147.7375151857     SG+        A1 (1)
  214   190         395.4651860405       10761.1547987010      PI        B2 (3)
  215   138         395.4651860405       10761.1547987012      PI        B1 (2)
  216    84         396.0882577083       10778.1094407386     SG+        A1 (1)
  217    85         509.2078541659       13856.2501500006     SG+        A1 (1)
  218    86         895.3993625114       24365.0553494137     SG+        A1 (1)


  VSCF finished.

 @CHECKOUT-I, Total execution time (CPU/WALL):       43.14/       7.58 seconds.
--executable xvscf finished with status     0 in        7.61 seconds (walltime).
 --invoking executable--
/nfs/workspaces/public/cfour_mpi/bin/xvtran
 @GETMEM-I,  Allocated    3814 MB of main memory.
  Full RHF integral transformation
  Transformation of IIII integrals :
  1 pass through the AO integral file was required.
     4549085 AO integrals were read.
     8777334 MO integrals were written to HF2.
  Transformation of IIJJ integrals :
  1 pass through the AO integral file was required.
    10304504 AO integrals were read.
    14574995 MO integrals were written to HF2.
  Transformation of IJIJ integrals :
  1 pass through the AO integral file was required.
    19555378 AO integrals were read.
    27315349 MO integrals were written to HF2.
  Transformation of IJKL integrals :
  1 pass through the AO integral file was required.
    14471085 AO integrals were read.
    18439034 MO integrals were written to HF2.
  Summary of active molecular orbitals: 
------------------------------------------------------------------------
 
  Index      Eigenvalue    Symmetry    Index      Eigenvalue    Symmetry
------------------------------------------------------------------------
     1       -20.6668510        1       110         4.1751026        2
     2       -11.4097130        1       111         4.1960048        2
     3        -1.4473974        1       112         4.8502573        2
     4        -0.7962501        1       113         4.9513821        2
     5        -0.5646013        1       114         5.6814409        2
     6        -0.5951056        2       115         6.0400577        2
     7        -0.5951056        3       116         6.2918363        2
     8         0.0623596        1       117         6.4226077        2
     9         0.0714178        1       118         7.2447426        2
    10         0.1569879        1       119         8.1378843        2
    11         0.2270012        1       120        10.1021858        2
    12         0.2283824        1       121        10.8190994        2
    13         0.2999450        1       122        11.2758366        2
    14         0.3857875        1       123        11.8572546        2
    15         0.5093650        1       124        12.5663662        2
    16         0.5411204        1       125        13.6095138        2
    17         0.5973273        1       126        19.1777898        2
    18         0.7627597        1       127        26.8664014        2
    19         0.7737247        1       128        33.7499569        2
    20         0.8453099        1       129        47.4503434        2
    21         0.8720971        1       130        66.6642940        2
    22         0.8841224        1       131        98.6241084        2
    23         1.1384527        1       132        98.6854019        2
    24         1.4368293        1       133       103.2828361        2
    25         1.5366181        1       134       103.3536317        2
    26         1.6623368        1       135       115.3199581        2
    27         1.7512695        1       136       117.0062957        2
    28         1.8135326        1       137       198.7507718        2
    29         2.0712527        1       138       225.0975461        2
    30         2.0972846        1       139       395.4651860        2
    31         2.1744312        1       140         0.0559898        3
    32         2.3044308        1       141         0.1132145        3
    33         2.3452589        1       142         0.1676800        3
    34         2.4839307        1       143         0.3092485        3
    35         2.7857221        1       144         0.3954650        3
    36         2.9125111        1       145         0.6258153        3
    37         3.4590916        1       146         0.7457220        3
    38         3.7081668        1       147         0.8094602        3
    39         3.9091947        1       148         0.8899834        3
    40         4.1916215        1       149         1.0532795        3
    41         4.2364114        1       150         1.4393723        3
    42         4.3333256        1       151         1.5680074        3
    43         4.4027045        1       152         1.7219421        3
    44         5.0606493        1       153         2.0230014        3
    45         5.1648771        1       154         2.2415134        3
    46         5.4591935        1       155         2.3005051        3
    47         5.8834548        1       156         2.3221090        3
    48         6.2335654        1       157         2.5675525        3
    49         6.2613452        1       158         2.7400688        3
    50         6.5518025        1       159         3.6961173        3
    51         6.7316704        1       160         4.0874454        3
    52         6.9596478        1       161         4.1751026        3
    53         7.5992049        1       162         4.1960048        3
    54         8.1649060        1       163         4.8502573        3
    55        10.3708017        1       164         4.9513821        3
    56        10.6094747        1       165         5.6814409        3
    57        10.9568475        1       166         6.0400577        3
    58        11.0549682        1       167         6.2918363        3
    59        11.5091860        1       168         6.4226077        3
    60        12.1818184        1       169         7.2447426        3
    61        12.8150710        1       170         8.1378843        3
    62        13.0273139        1       171        10.1021858        3
    63        14.8294514        1       172        10.8190994        3
    64        17.8595155        1       173        11.2758366        3
    65        20.5242101        1       174        11.8572546        3
    66        26.4349496        1       175        12.5663662        3
    67        27.7237604        1       176        13.6095138        3
    68        34.7203814        1       177        19.1777898        3
    69        36.4109363        1       178        26.8664014        3
    70        47.0982831        1       179        33.7499569        3
    71        48.2338983        1       180        47.4503434        3
    72        64.0757813        1       181        66.6642940        3
    73        67.6864075        1       182        98.6241084        3
    74        98.6404042        1       183        98.6854019        3
    75        98.7048643        1       184       103.2828361        3
    76       103.3179486        1       185       103.3536317        3
    77       103.3828564        1       186       115.3199581        3
    78       115.1095058        1       187       117.0062957        3
    79       115.7454920        1       188       198.7507718        3
    80       117.7666305        1       189       225.0975461        3
    81       122.6243011        1       190       395.4651860        3
    82       198.5625391        1       191         0.2270012        4
    83       199.1480675        1       192         0.5411204        4
    84       216.5701457        1       193         0.7627597        4
    85       225.9252102        1       194         0.8841224        4
    86       396.0882577        1       195         1.5366181        4
    87       509.2078542        1       196         1.7512695        4
    88       895.3993625        1       197         2.0972846        4
    89         0.0559898        2       198         2.1744312        4
    90         0.1132145        2       199         2.3452589        4
    91         0.1676800        2       200         2.9125111        4
    92         0.3092485        2       201         3.7081668        4
    93         0.3954650        2       202         4.1916215        4
    94         0.6258153        2       203         4.3333256        4
    95         0.7457220        2       204         5.0606493        4
    96         0.8094602        2       205         5.8834548        4
    97         0.8899834        2       206         6.2613452        4
    98         1.0532795        2       207         6.5518025        4
    99         1.4393723        2       208         6.9596478        4
   100         1.5680074        2       209        10.6094747        4
   101         1.7219421        2       210        11.0549682        4
   102         2.0230014        2       211        12.1818184        4
   103         2.2415134        2       212        12.8150710        4
   104         2.3005051        2       213        26.4349496        4
   105         2.3221090        2       214        47.0982831        4
   106         2.5675525        2       215        98.6404042        4
   107         2.7400688        2       216       103.3179486        4
   108         3.6961173        2       217       115.1095058        4
   109         4.0874454        2       218       198.5625391        4
------------------------------------------------------------------------
  -20.6668510106860       -11.4097129605047       -1.44739741091849     
 -0.796250098484225      -0.564601296301583      -0.595105622452547     
 -0.595105622452532       6.235957703780354E-002  7.141783904265307E-002
  0.156987861480068       0.227001223389128       0.228382431618526     
  0.299944994047703       0.385787507372954       0.509365007630413     
  0.541120350599926       0.597327332709843       0.762759660781520     
  0.773724674838921       0.845309901531039       0.872097144262443     
  0.884122369260459        1.13845266239881        1.43682929578402     
   1.53661809139040        1.66233679816993        1.75126950565002     
   1.81353263063961        2.07125266870888        2.09728461076183     
   2.17443120786179        2.30443082422605        2.34525887112912     
   2.48393067012680        2.78572206725050        2.91251106218334     
   3.45909158382877        3.70816679337953        3.90919474842106     
   4.19162152797349        4.23641142506539        4.33332564787511     
   4.40270448674649        5.06064929589457        5.16487714072031     
   5.45919348645591        5.88345481433179        6.23356537002871     
   6.26134519660352        6.55180250008402        6.73167040560678     
   6.95964776238645        7.59920487479220        8.16490602035531     
   10.3708017010155        10.6094746534092        10.9568475189248     
   11.0549682030745        11.5091860263162        12.1818183756846     
   12.8150709651402        13.0273138849987        14.8294514381567     
   17.8595155450173        20.5242100602767        26.4349496138271     
   27.7237603882988        34.7203814442891        36.4109362565019     
   47.0982830706846        48.2338983309319        64.0757813060215     
   67.6864075395311        98.6404042188645        98.7048643157473     
[...]
 Convergence information after     9 iterations: 
 Largest element of residual vector : -0.17057568E-04.
 Largest element of DIIS residual   : -0.69768723E-05.
 Convergence information after    10 iterations: 
 Largest element of residual vector : -0.77454819E-05.
 Largest element of DIIS residual   : -0.56998314E-05.
 Convergence information after    11 iterations: 
 Largest element of residual vector : -0.36677439E-05.
 Largest element of DIIS residual   : -0.11388909E-05.
 Convergence information after    12 iterations: 
 Largest element of residual vector : -0.17317435E-05.
 Largest element of DIIS residual   :  0.65407446E-06.
 Convergence information after    13 iterations: 
 Largest element of residual vector :  0.54765039E-06.
 Largest element of DIIS residual   :  0.17830496E-06.
 Convergence information after    14 iterations: 
 Largest element of residual vector :  0.21363953E-06.
 Largest element of DIIS residual   :  0.88123628E-07.
 Perturbed amplitude equations converged in    14 iterations.
  Dominant contributions to perturbed wavefunction:
    7    7  141   28   0.2327336005 ABAB
    7    7   28  141   0.2327336005 ABAB
    7    7  141   39   0.1782493697 ABAB
    7    7   39  141   0.1782493697 ABAB
    7    7  140   28   0.1772022554 ABAB
    7    7   28  140   0.1772022554 ABAB
    7    7  141   37  -0.1671724832 ABAB
    7    7   37  141  -0.1671724832 ABAB
    7    6   28   90   0.1502268460 ABAB
    6    7   90   28   0.1502268460 ABAB
    7    7  141   45   0.1387691430 ABAB
    7    7   45  141   0.1387691430 ABAB
    7    0   45    0  -0.1316317926 AA  
    7    7  141   54  -0.1316152884 ABAB
    7    7   54  141  -0.1316152884 ABAB
    7    7  140   39   0.1300258489 ABAB
    7    7   39  140   0.1300258489 ABAB
    7    7  141   20   0.1274031939 ABAB
    7    7   20  141   0.1274031939 ABAB
    7    7  140   37  -0.1240689876 ABAB
  norm of converged amps    2.17964368804002     
 Starting iterative solution of the perturbed Lambda equations.
 The DIIS procedure is used to accelerate convergence.
 Convergence criterion is 10**(-7).
 Maximum number of iterations is 100.
 Convergence information after     1 iterations: 
 Largest element of residual vector :  0.59272268E-01.
 Largest element of DIIS residual   :  0.59272268E-01.
 Convergence information after     2 iterations: 
 Largest element of residual vector : -0.99105866E-02.
 Largest element of DIIS residual   : -0.61892342E-02.
 Convergence information after     3 iterations: 
 Largest element of residual vector : -0.50008356E-02.
 Largest element of DIIS residual   : -0.44138435E-02.
 Convergence information after     4 iterations: 
 Largest element of residual vector : -0.30914265E-02.
 Largest element of DIIS residual   : -0.25361890E-02.
 Convergence information after     5 iterations: 
 Largest element of residual vector : -0.19924483E-02.
 Largest element of DIIS residual   : -0.10247829E-02.
 Convergence information after     6 iterations: 
 Largest element of residual vector : -0.69498951E-03.
 Largest element of DIIS residual   : -0.20974417E-03.
 Convergence information after     7 iterations: 
 Largest element of residual vector : -0.18833039E-03.
 Largest element of DIIS residual   :  0.84472567E-04.
 Convergence information after     8 iterations: 
 Largest element of residual vector :  0.51244982E-04.
 Largest element of DIIS residual   : -0.27211820E-04.
 Convergence information after     9 iterations: 
 Largest element of residual vector :  0.14378917E-04.
 Largest element of DIIS residual   : -0.66011688E-05.
 Convergence information after    10 iterations: 
 Largest element of residual vector : -0.57580360E-05.
 Largest element of DIIS residual   : -0.47973172E-05.
 Convergence information after    11 iterations: 
 Largest element of residual vector : -0.26774898E-05.
 Largest element of DIIS residual   : -0.10900129E-05.
 Convergence information after    12 iterations: 
 Largest element of residual vector : -0.14600910E-05.
 Largest element of DIIS residual   :  0.98107530E-06.
 Convergence information after    13 iterations: 
 Largest element of residual vector :  0.74761475E-06.
 Largest element of DIIS residual   :  0.43550745E-06.
 Convergence information after    14 iterations: 
 Largest element of residual vector :  0.41351129E-06.
 Largest element of DIIS residual   :  0.21253745E-06.
 Convergence information after    15 iterations: 
 Largest element of residual vector :  0.13997261E-06.
 Largest element of DIIS residual   :  0.67691314E-07.
 Perturbed Lambda equations converged in    15 iterations.
  Dominant contributions to perturbed wavefunction:
    7    7  141   28   0.2159868193 ABAB
    7    7   28  141   0.2159868193 ABAB
    7    7  140   28   0.1654637503 ABAB
    7    7   28  140   0.1654637503 ABAB
    7    7  141   39   0.1637766398 ABAB
    7    7   39  141   0.1637766398 ABAB
    7    7  141   37  -0.1567149756 ABAB
    7    7   37  141  -0.1567149756 ABAB
    7    6   28   90   0.1372462496 ABAB
    6    7   90   28   0.1372462496 ABAB
    7    7  141   45   0.1247943202 ABAB
    7    7   45  141   0.1247943202 ABAB
    7    7  141   54  -0.1240475411 ABAB
    7    7   54  141  -0.1240475411 ABAB
    7    7  140   39   0.1201756461 ABAB
    7    7   39  140   0.1201756461 ABAB
    7    7  140   37  -0.1169290270 ABAB
    7    7   37  140  -0.1169290270 ABAB
    7    7  141   20   0.1158265081 ABAB
    7    7   20  141   0.1158265081 ABAB
        The DBOC first-order density matrix is being calculated 
             (Symmetry block 3, perturbation   2)
 term   5.46817458508266     
 final tnorm  0.872176605868416     
  norm contr. I: |<0|L dT/dx|0>|^2   0.000000000000000E+000
  norm contr. II: <0|[nabla(1+L)e-T][nabla e^T]|0>   5.46817458508266     
  total norm contribution   5.46817458508266     
 oo  9.780169215877476E-003
 vv  -41.0296235176375     
 vo  5.444637300736888E-002
  Correlated perturbed 1-el contribution to DBOC  -40.9653969754142       cm**-1
  SUM_I |dc_I/dx|^2 contribution to DBOC   20.5860893954777       cm**-1
 
 
  The total diagonal Born-Oppenheimer correction (DBOC) is:      0.0040079423 a.u.
  The total diagonal Born-Oppenheimer correction (DBOC) is:        879.641662 cm-1
 
 Total CC energy including DBOC  -113.256421113842     
 First-order density matrix is being calculated  (Symmetry block 3, perturbation   2)
 Calculation of the contributions of <pq||rs> to dI(i,j)/dx required   1.4 seconds.
 Calculation of the contributions of <pq||rs> to dI(a,b)/dx required  13.0 seconds.
 Calculation of the contributions of <pq||rs> to dI(i,a)/dx required   8.7 seconds.
 First-order Z-vector equations are solved for 1 perturbation.
 Convergence reached after  18 iterations.
        U*G(pq,rs) contribution is being calculated
             (Symmetry block 3, perturbation   2)

 CCSD contribution to force constants 

        0.0000000000        0.0000000000        0.0000000000
        0.0000000000        0.0000000000        0.0000000000
        0.0000000000        0.0000000000        0.0000000000
        0.0000000000        0.0000000000        0.0000000000
        0.0000000000        0.0000000000        0.0000000000
        0.0000000000        0.0000000000        0.0000000000
        0.0000000000        0.0000000000        0.0000000000
        0.0000000000        0.0000000000        0.0000000000
        0.0000000000        0.0000000000        0.0000000000
        0.0000000000        0.0000000000        0.0000000000
        0.0000000000        0.0000000000        0.0000000000
        0.0000000000        1.4202684620       -1.4202684620

 CCSD contribution to dipole derivatives 

        0.0000000000        0.0000000000        0.0000000000
        0.0000000000        0.0000000000        0.0000000000
        0.0000000000        0.0000000000        0.0000000000
        0.0000000000        0.0000000000       -0.0491724546
        0.0000000000        0.0000000000        0.0000000000
        0.0000000000        0.0000000000        0.0000000000
 @CHECKOUT-I, Total execution time (CPU/WALL):      923.50/     192.07 seconds.
--executable xsdcc finished with status     0 in      192.12 seconds (walltime).
 --invoking executable--
/nfs/workspaces/public/cfour_mpi/bin/xanti
 @GETMEM-I,  Allocated    3814 MB of main memory.
 CCSD MO derivative gammas will be sorted to Mulliken order.
 @CHECKOUT-I, Total execution time (CPU/WALL):        8.82/      12.54 seconds.
--executable xanti finished with status     0 in       12.57 seconds (walltime).
 --invoking executable--
/nfs/workspaces/public/cfour_mpi/bin/xbcktrn
 @GETMEM-I,  Allocated    3814 MB of main memory.
 CCSD MO derivative gammas will be transformed to the AO basis.
 @CHECKOUT-I, Total execution time (CPU/WALL):       16.11/       3.56 seconds.
--executable xbcktrn finished with status     0 in        3.58 seconds (walltime).
 --invoking executable--
/nfs/workspaces/public/cfour_mpi/bin/xvdint
 @GETMEM-I,  Allocated    3814 MB of main memory.
 One- and two-electron integral derivatives are calculated
 for RHF-CC/MBPT hessians and dipole derivatives.
 Spherical gaussians are used.
  magnet F F
                    8722  records have been written to the Sort file.
  Total length of Sort file :             178609116  words.
 Evaluation of 2el integral derivatives

                      Two-electron integral gradient
                      ------------------------------

                         C #1 z     0.0000000000
                         O #2 z     0.0000000000


 C #1       0.0000000000           -0.3136276975            0.0000000000
 O #2       0.0000000000            0.3136276975            0.0000000000


 Evaluation of 2e integral derivatives required  264.66 seconds.
  contribution to Hessian
        0.0000000000        0.0000000000        0.0000000000
        0.0000000000       -0.3136276975        0.3136276975
 @CHECKOUT-I, Total execution time (CPU/WALL):      264.64/      61.18 seconds.
--executable xvdint finished with status     0 in       61.21 seconds (walltime).
 --invoking executable--
/nfs/workspaces/public/cfour_mpi/bin/xanti
 @GETMEM-I,  Allocated    3814 MB of main memory.
 CCSD MO gammas will be sorted to Mulliken order.
 @CHECKOUT-I, Total execution time (CPU/WALL):       10.41/       8.97 seconds.
--executable xanti finished with status     0 in        9.00 seconds (walltime).
 --invoking executable--
/nfs/workspaces/public/cfour_mpi/bin/xbcktrn
 @GETMEM-I,  Allocated    3814 MB of main memory.
 CCSD MO gammas will be transformed to the AO basis.
 @CHECKOUT-I, Total execution time (CPU/WALL):       25.07/       4.48 seconds.
--executable xbcktrn finished with status     0 in        4.51 seconds (walltime).
 --invoking executable--
/nfs/workspaces/public/cfour_mpi/bin/xvdint
 @GETMEM-I,  Allocated    3814 MB of main memory.
 One- and two-electron integral derivatives are calculated
 for RHF-CC/MBPT hessians and dipole derivatives.
 Spherical gaussians are used.
  magnet F F

                     Kinetic energy integral gradient
                     --------------------------------

                         C #1 z    -1.1790597729
                         O #2 z     1.1790597729


 C #1       0.0000000000            0.0000000000           -1.1790597729
 O #2       0.0000000000            0.0000000000            1.1790597729



                   Nuclear attraction integral gradient
                   ------------------------------------

                         C #1 z    20.7201777312
                         O #2 z   -20.7201777312


 C #1       0.0000000000            0.0000000000           20.7201777312
 O #2       0.0000000000            0.0000000000          -20.7201777312



                      Reorthonormalization gradient
                      -----------------------------

                         C #1 z     0.0000000000
                         O #2 z     0.0000000000


 C #1       0.0000000000            0.0000000000            0.0000000000
 O #2       0.0000000000            0.0000000000            0.0000000000



                     Kinetic energy integral Hessian
                     -------------------------------


           Symmetry 1

           C #1 z      O #2 z

 C #1 z    1.040079
 O #2 z   -1.040079    1.040079


           Symmetry 2

           C #1 x      O #2 x

 C #1 x   -1.335515
 O #2 x    1.335515   -1.335515


           Symmetry 3

           C #1 y      O #2 y

 C #1 y   -1.335515
 O #2 y    1.335515   -1.335515




           C #1 x      C #1 y      C #1 z      O #2 x      O #2 y      O #2 z

 C #1 x   -1.335515
 C #1 y    0.000000   -1.335515
 C #1 z    0.000000    0.000000    1.040079

 O #2 x    1.335515    0.000000    0.000000   -1.335515
 O #2 y    0.000000    1.335515    0.000000    0.000000   -1.335515
 O #2 z    0.000000    0.000000   -1.040079    0.000000    0.000000    1.040079




                   Nuclear attraction integral Hessian
                   -----------------------------------


           Symmetry 1

           C #1 z      O #2 z

 C #1 z  -12.463981
 O #2 z   12.463981  -12.463981


           Symmetry 2

           C #1 x      O #2 x

 C #1 x   16.058832
 O #2 x  -16.058832   16.058832


           Symmetry 3

           C #1 y      O #2 y

 C #1 y   16.058832
 O #2 y  -16.058832   16.058832




           C #1 x      C #1 y      C #1 z      O #2 x      O #2 y      O #2 z

 C #1 x   16.058832
 C #1 y    0.000000   16.058832
 C #1 z    0.000000    0.000000  -12.463981

 O #2 x  -16.058832    0.000000    0.000000   16.058832
 O #2 y    0.000000  -16.058832    0.000000    0.000000   16.058832
 O #2 z    0.000000    0.000000   12.463981    0.000000    0.000000  -12.463981




                Highest order reorthonormalization Hessian
                ------------------------------------------


           Symmetry 1

           C #1 z      O #2 z

 C #1 z    0.000000
 O #2 z    0.000000    0.000000


           Symmetry 2

           C #1 x      O #2 x

 C #1 x    0.000000
 O #2 x    0.000000    0.000000


           Symmetry 3

           C #1 y      O #2 y

 C #1 y    0.000000
 O #2 y    0.000000    0.000000




           C #1 x      C #1 y      C #1 z      O #2 x      O #2 y      O #2 z




                Electronic contributions to dipole moment
                -----------------------------------------

                               au             Debye

                    z      0.74136443      1.88436074

  Conversion factor used: 1 a.u. =   2.54174691 Debye 



   Electronic contributions to static part of dipole moment derivatives
   --------------------------------------------------------------------


                     Total dipole moment derivatives
                     -------------------------------


           Symmetry 1
                              Ez

               C #1 z    -5.70581772
               O #2 z    -8.29418228

           Symmetry 2
                              Ex

               C #1 x    -5.73378477
               O #2 x    -8.26621523

           Symmetry 3
                              Ey

               C #1 y    -5.73378477
               O #2 y    -8.26621523



                       Ex          Ey          Ez

      C #1    x   -5.733785    0.000000    0.000000
      C #1    y    0.000000   -5.733785    0.000000
      C #1    z    0.000000    0.000000   -5.705818

      O #2    x   -8.266215    0.000000    0.000000
      O #2    y    0.000000   -8.266215    0.000000
      O #2    z    0.000000    0.000000   -8.294182

 Evaluation of 1e integral derivatives required    1.65 seconds.
                    8815  records have been written to the Sort file.
  Total length of Sort file :             180513570  words.
 Evaluation of 2el integral derivatives

                      Two-electron integral gradient
                      ------------------------------

                         C #1 z   -10.1813984759
                         O #2 z    10.1813984759


 C #1       0.0000000000            0.0000000000          -10.1813984759
 O #2       0.0000000000            0.0000000000           10.1813984759


 Evaluation of 2e integral derivatives required  546.10 seconds.

                            Molecular gradient
                            ------------------

                         C #1 z     0.6373532951
                         O #2 z    -0.6373532951


 C #1       0.0000000000            0.0000000000            0.6373532951
 O #2       0.0000000000            0.0000000000           -0.6373532951


  Molecular gradient norm 0.901E+00

                            Molecular hessian
                            -----------------


           Symmetry 1

           C #1 z      O #2 z

 C #1 z   48.569929
 O #2 z  -48.569929   48.569929


           Symmetry 2

           C #1 x      O #2 x

 C #1 x   -0.845885
 O #2 x    0.845885   -0.845885


           Symmetry 3

           C #1 y      O #2 y

 C #1 y   -0.845885
 O #2 y    0.845885   -0.845885




           C #1 x      C #1 y      C #1 z      O #2 x      O #2 y      O #2 z

 C #1 x   -0.845885
 C #1 y    0.000000   -0.845885
 C #1 z    0.000000    0.000000   48.569929

 O #2 x    0.845885    0.000000    0.000000   -0.845885
 O #2 y    0.000000    0.845885    0.000000    0.000000   -0.845885
 O #2 z    0.000000    0.000000  -48.569929    0.000000    0.000000   48.569929




                           Total dipole moment
                           -------------------

                               au             Debye

                    z      0.08955047      0.22761463

  Conversion factor used: 1 a.u. =   2.54174691 Debye 



                     Total dipole moment derivatives
                     -------------------------------


           Symmetry 1
                              Ez

               C #1 z     0.71108224
               O #2 z    -0.71108224

           Symmetry 2
                              Ex

               C #1 x     0.03847987
               O #2 x    -0.03847987

           Symmetry 3
                              Ey

               C #1 y     0.03847987
               O #2 y    -0.03847987



                       Ex          Ey          Ez

      C #1    x    0.038480    0.000000    0.000000
      C #1    y    0.000000    0.038480    0.000000
      C #1    z    0.000000    0.000000    0.711082

      O #2    x   -0.038480    0.000000    0.000000
      O #2    y    0.000000   -0.038480    0.000000
      O #2    z    0.000000    0.000000   -0.711082

 @CHECKOUT-I, Total execution time (CPU/WALL):      547.73/      95.62 seconds.
--executable xvdint finished with status     0 in       95.66 seconds (walltime).
 --invoking executable--
/nfs/workspaces/public/cfour_mpi/bin/xjoda
  @GTFLGS-I, Hessian will be transformed to curvilinear coordinates.
  @GTFLGS-I, Hessian will be transformed to curvilinear coordinates.
  igrd and ihes are                      0                     1
  gradient from JOBARC 
   0.000000000000000   0.000000000000000   0.637353295050942
   0.000000000000000   0.000000000000000  -0.637353295050942
 
  @PROJFCM-I, Projecting force constant matrix onto totally symmetric subspace.
  Largest difference between matrix elements of symmetrized
  and unsymmetrized FCM :    -0.4988787161E-10.
  read isotopes from ZMAT file 
 
  Summary of diagonal Born-Oppenheimer correction at the correlated level
  The total diagonal Born-Oppenheimer correction (DBOC) is:      0.0040079423 a.u.
  The total diagonal Born-Oppenheimer correction (DBOC) is:        879.641662 cm-1
  The total diagonal Born-Oppenheimer correction (DBOC) is:            10.523 kJ/mole
  hellooooooo 
  readis is  F
 
 @CHECKOUT-I, Total execution time (CPU/WALL):        0.01/       0.01 seconds.
--executable xjoda finished with status     0 in        0.04 seconds (walltime).
  The final electronic energy is      -113.256421113842293 a.u. 
  This computation required                         2061.11 seconds (walltime).
