 --invoking executable--
/nfs/workspaces/public/cfour_mpi/bin/xjoda


   *************************************************************************
         <<<     CCCCCC     CCCCCC   |||     CCCCCC     CCCCCC   >>>
       <<<      CCC        CCC       |||    CCC        CCC         >>>
      <<<      CCC        CCC        |||   CCC        CCC            >>>
    <<<        CCC        CCC        |||   CCC        CCC              >>>
      <<<      CCC        CCC        |||   CCC        CCC            >>>
       <<<      CCC        CCC       |||    CCC        CCC         >>>
         <<<     CCCCCC     CCCCCC   |||     CCCCCC     CCCCCC   >>>
   *************************************************************************

     ****************************************************************
     * CFOUR Coupled-Cluster techniques for Computational Chemistry *
     ****************************************************************
 

   Department of Chemistry                Institut fuer Physikalische Chemie
   University of Florida                  Universitaet Mainz
   Gainesville, FL 32611, USA             D-55099 Mainz, Germany

   Department of Chemistry                Fakultaet fuer Chemie und Biowiss.
   Johns Hopkins University               Karlsruher Institut fuer Technologie
   Baltimore, MD 21218, USA               D-76131 Karlsruhe, Germany

   Department of Chemistry                Department of Physical Chemistry
   Southern Methodist University          Eotvos Lorand University
   Dallas, TX 75275, USA                  H-1053 Budapest, Hungary

 
                       Version 2.1
 
                     vincent.theory.phys.ucl.ac.uk                     
                     Tue  4 Mar 13:33:16 GMT 2025                      
                     integer*8 version is running
 
********************************************************************************
*                          Input from ZMAT file                                *
********************************************************************************
Carbon Monoxide DBOC calculation                                                
C                                                                               
O 1 r                                                                           
                                                                                
r=1.8                                                                           
                                                                                
                                                                                
*CFOUR(CALC=CCSD,BASIS=AUG-PCVQZ,SCF_CONV=10                                    
CC_CONV=14,DBOC=ON,MEMORY=500000000                                             
ZFIELD=200)                                                                     
                                                                                
%isotopes                                                                       
13                                                                              
16                                                                              
********************************************************************************
  @GTFLGS-I, Hessian will be transformed to curvilinear coordinates.
    -------------------------------------------------------------------
                    CFOUR Control Parameters 
    -------------------------------------------------------------------
        External           Internal           Value            Units
          Name               Name
    -------------------------------------------------------------------
       ABCDTYPE             IABCDT         STANDARD    [  0]    ***   
       ANHARMONIC           IANHAR         OFF         [  0]    ***   
       ANH_ALGORIT          IANALG         STANDARD    [  0]    ***   
       ANH_DERIVAT          IANDER         SECOND      [  1]    ***   
       ANH_MODE             ANHMOD         VIBRATION   [  0]    ***   
       ANH_STEPSIZ          ICUBST             50000          x 10-6  
       ANH_SYMMETR          IANHSM         ABELIAN     [  0]    ***   
       AO_LADDERS           IAOLAD         SINGLEPASS  [  1]    ***   
       AV_SCF               IAVSCF         OFF         [  0]    ***   
       BASIS                IBASIS         AUG-PCVQZ   [ 52]    ***   
       BOTHVECTORS          BOTHVC         OFF         [  0]    ***   
       BOX_POTENT           IPIAB          OFF         [  0]    ***   
       BREIT                IBREIT         OFF         [  0]    ***   
       BRUCK_CONV           IBRTOL          10D-  4             ***   
       BRUECKNER            IBRKNR         OFF         [  0]    ***   
       BUFFERSIZE           IBUFFS              4096            ***   
       CACHE_RECS           ICHREC             10               ***   
       CALCLEVEL            ICLLVL         CCSD        [ 10]    ***   
       CCORBOPT             ICCORB         OFF         [  0]  x 0.01  
       CC_CONV              ICCCNV          10D- 14             ***   
       CC_EXPORDER          ICCEOR              5               ***   
       CC_EXTRAPOL          ICCEXT         DIIS        [  1]    ***   
       CC_GUESS             ICCGES         MP2         [  0]    ***   
       CC_MAXCYC            ICCCYC            100              cycles 
       CC_PROGRAM           ICCPRO         VCC         [  0]    ***   
       CHARGE               ICHRGE              0               ***   
       CHOLESKY             ICHOLE         OFF         [  0]    ***   
       CIS_CONV             ICISTL              5               ***   
       COMM_SIZE            IPSIZE            ***               ***   
       CONSTANT             ICONST         OLD         [  1]    ***   
       CONTINUUM            ICONTU         NONE        [  0]    ***   
       CONTRACTION          ICNTYP         GENERAL     [  1]    ***   
       COORDINATES          ICOORD         INTERNAL    [  0]    ***   
       CPHF_CONVER          ICPHFT          10D- 16             ***   
       CPHF_MAXCYC          ICPHFC             64              cycles 
       CUBIC                ICUBIC         OFF         [  0]    ***   
       CURVILINEAR          ICURVY         ON          [  1]    ***   
       DBOC                 IDBOC          ON          [  1]    ***   
       DCT                  IDCT           OFF         [  0]    ***   
       DERIV_LEV            IDRLVL         SECOND      [  2]    ***   
       DEVMEM_SIZE          IDVMEM          50000000           MByte  
       DIAG_MRCC            IEOMST          10D-  0             ***   
       DIFF_TYPE            IDIFTY         RELAXED     [  0]    ***   
       DIRECT               IDIRCT         OFF         [  0]    ***   
       DROPMO               IDRPMO      NONE         
       ECP                  IECP           OFF         [  0]    ***   
       EIGENVECTOR          IVEC                1               ***   
       EL_ANHARM            IELANH         OFF         [  0]    ***   
       EOMFOLLOW            IEOMSR         ENERGY      [  0]    ***   
       EOMIP                IEOMIP         OFF         [  0]    ***   
       EOMLEVEL             HBARFM         SAME        [  0]    ***   
       EOM_MRCC             IMRCCE         NEW         [  1]    ***   
       EOM_NONIT            EOMNON         OFF         [  0]    ***   
       EOM_NSING            IEOMSI          10D-  0             ***   
       EOM_NSTATES          IMRCCD         DAVIDSON    [  0]    ***   
       EOM_NTRIP            IEOMTR          10D-  0             ***   
       EOM_ORDER            IEXORD         ENERGY      [  0]    ***   
       EOM_PROPSTA          IEOMST              0               ***   
       ESTATE_CONV          IEXTOL          10D-  5             ***   
       ESTATE_DIAG          IEXDIG         ITERATIVE   [  0]    ***   
       ESTATE_LOCK          IESLOC         ON          [  1]    ***   
       ESTATE_MAXC          IEXMXC             40               ***   
       ESTATE_PROP          IEXPRP         OFF         [  0]    ***   
       EVAL_HESS            IRECAL              0            # of cyc.
       EXCITATION           IEXCIT              0               ***   
       EXCITE               IEXCIT         NONE        [  0]    ***   
       EXTERN_POT           IEXPOT         OFF         [  0]    ***   
       FCGRADNEW            IFCGNW         OFF         [  0]    ***   
       FC_FIELD             IFINFC              0             x 10-6  
       FD_CALTYPE           IFDCAL         GRADONLY    [  0]    ***   
       FD_PROJECT           IFDPRJ         OFF         [  1]    ***   
       FD_STEPSIZE          IDISFD              0            10-4 bohr
       FD_USEGROUP          IFDGRP         FULL        [  0]    ***   
       FILE_RECSIZ          IFLREC              4096           words  
       FINITE_PERT          IFIPER              0             x 10-6  
       FIXGEOM              IFIXGM         OFF         [  0]    ***   
       FOCK                 IFOCK          AO          [  1]    ***   
       FREQ_ALGORI          IVIALG         STANDARD    [  0]    ***   
       FROZEN_CORE          IFROCO         OFF         [  0]    ***   
       GAMMA_ABCD           IGABCD         STORE       [  0]    ***   
       GAMMA_ABCI           IGABCI         STORE       [  0]    ***   
       GENBAS_1             IGNBS1              0               ***   
       GENBAS_2             IGNBS2              0               ***   
       GENBAS_3             IGNBS3              0               ***   
       GENBAS_4             IGNBS4              0               ***   
       GEO_CONV             ICONTL              5              H/bohr 
       GEO_MAXCYC           IOPTCY             50               ***   
       GEO_MAXSTEP          IMXSTP            300            millibohr
       GEO_METHOD           INR            SINGLE_POINT[  5]    ***   
       GIAO                 IGIAO          OFF         [  1]    ***   
       GIMIC                IGIMIC         OFF         [  0]    ***   
       GRID                 IGRID          OFF         [  0]    ***   
       GRID_ALGO            IGALGO         SERIAL      [  0]    ***   
       GUESS                IGUESS         MOREAD      [  0]    ***   
       HBAR                 IHBAR          OFF         [  0]    ***   
       HESS_TYPE            IHESTP         SCF         [  0]    ***   
       HF2_FILE             IHF2Fl         USE         [  1]    ***   
       HFSTABILITY          ISTABL         OFF         [  0]    ***   
       INCORE               INCORE         OFF         [  0]    ***   
       INPUT_MRCC           IMRCC          ON          [  1]    ***   
       INTEGRALS            INTTYP         VMOL        [  1]    ***   
       JODA_PRINT           IJPRNT              0               ***   
       KEYWORD_OUT          IDMPKW         NO          [  0]    ***   
       LINDEP_TOL           ILINDP              8               ***   
       LINEQ_CONV           IZTACN          10D-  7           cycles  
       LINEQ_EXPOR          ILMAXD              5               ***   
       LINEQ_MAXCY          ILMAXC            100               ***   
       LINEQ_TYPE           ILTYPE         DIIS        [  1]    ***   
       LOCK_ORBOCC          ILOCOC         OFF         [  0]    ***   
       MEMORY_SIZE          IMEMSZ         500000000           words  
       MEM_UNIT             IMEMU          INTEGERWORDS[  0]    ***   
       MRCC                 IMRCCC         OFF         [  0]    ***   
       MULTIPLICTY          IMULTP              1               ***   
       NACOUPLING           IVCOUP         OFF         [  0]    ***   
       NEGEVAL              IDIE           ABORT       [  0]    ***   
       NEWNORM              INEWNO         OFF         [  0]    ***   
       NON-HF               INONHF         OFF         [  0]    ***   
       NTOP_TAMP            ITOPT2             15               ***   
       NUC_MODEL            INUCMO         POINT       [  0]    ***   
       OCCUPATION           IOCCU   ESTIMATED BY SCF 
       OPEN-SHELL           IOPEN          SPIN-ORBITAL[  0]    ***   
       OPTVIB               IOPTVB         OFF         [  0]    ***   
       ORBITALS             IORBTP         STANDARD    [  0]    ***   
       PARALLEL             IPARAL         ON          [  1]    ***   
       PARA_INT             IPINTS         ON          [  1]    ***   
       PARA_PRINT           IPPRIN              0               ***   
       PERT_ORB             IPTORB         STANDARD    [  0]    ***   
       POINTS               IGRDFD              0               ***   
       PRINT                IPRNT               0               ***   
       PROPS                IPROPS         OFF         [  0]    ***   
       PROP_INTEGR          IINTYP         INTERNAL    [  0]    ***   
       PSI                  IPSI           OFF         [  0]    ***   
       QC_ALG               IQCALG         FLM         [  0]    ***   
       QC_LINALG            IQCLIN         TRIDIAG     [  2]    ***   
       QC_MAXCYC            IQCMAX          10D-100           cycles  
       QC_MAXSCFCY          IQCMSC          10D- 15           cycles  
       QC_RTRUST            IQCRTR          10D-  0           x 10-3  
       QC_SKIPSCF           IQCSKI         OFF         [  0]    ***   
       QC_START             IQCSTA          10D-  1             ***   
       QRHFGUESS            IQGUES         OFF         [  0]    ***   
       QUARTIC              IQUART         OFF         [  0]    ***   
       RAMAN_INT            IRAMIN         OFF         [  0]    ***   
       RAMAN_ORB            IRAMRE         UNRELAXED   [  0]    ***   
       RDO                  IRDOFM         ON          [  1]    ***   
       REDUCE_REPR          REDREP         Ir          [  0]    ***   
       REFERENCE            IREFNC         RHF         [  0]    ***   
       RELATIVIST           IRELAT         OFF         [  0]    ***   
       RELAX_DENS           IRDENS         ON          [  1]    ***   
       RESET_FLAGS          IRESET         OFF         [  0]    ***   
       RESTART_CC           ICCRES         OFF         [  0]    ***   
       ROT_EVEC             ROTVEC              0               ***   
       SAVE_INTS            ISVINT         OFF         [  0]    ***   
       SCALE_ON             ISTCRT              0               ***   
       SCF_CONV             ISCFCV          10D- 10             ***   
       SCF_DAMPING          IDAMP               0             x 10-3  
       SCF_EXPORDE          IRPPOR              6               ***   
       SCF_EXPSTAR          IRPPLS              8               ***   
       SCF_EXTRAPO          IRPP           ON          [  1]    ***   
       SCF_MAXCYC           ISCFCY            150              cycles 
       SCF_NOSTOP           ISCFST         OFF         [  0]    ***   
       SCF_PRINT            ISCFPR              0               ***   
       SCF_PROG             ISCFPR         SCF         [  0]    ***   
       SD_FIELD             IFINSD              0             x 10-6  
       SOPERT               IPERSO         OFF         [  0]    ***   
       SPHERICAL            IDFGHI         ON          [  1]    ***   
       SPINORBIT            ISOCAL         OFF         [  0]    ***   
       SPINROTATIO          ISRCON         OFF         [  0]    ***   
       SPIN_FLIP            ISPFLP         OFF         [  0]    ***   
       SPIN_ORBIT           ISPORB         OFF         [  0]    ***   
       SPIN_SCAL            ISCSMP         OFF         [  0]    ***   
       STEEPSCALE           ISTPSC              1000          x 10-3  
       SUBGROUP             ISUBGP         DEFAULT     [  0]    ***   
       SUBGRPAXIS           ISBXYZ         X           [  0]    ***   
       SYMMETRY             ISYM           ON          [  0]    ***   
       SYM_CHECK            ISYMCK         OVERRIDE    [  1]    ***   
       T3_EXTRAPOL          IT3EXT         OFF         [  0]    ***   
       T4_EXTRAPOL          IT4EXP         OFF         [  0]    ***   
       TAMP_SUM             IEVERY              5               ***   
       TESTSUITE            ITESTS         OFF         [  0]    ***   
       THERMOCH             ITHERM         OFF         [  0]    ***   
       TOL_CHOLESK          ITOLCH          10D-  4             ***   
       TRANGRAD             IRESRM         OFF         [  0]    ***   
       TRANS_INV            ITRAIN         IGNORE      [  1]    ***   
       TREAT_PERT           ITREAT         SIMULTANEOUS[  0]    ***   
       TRIP_ALGORI          ITRALG         NORMAL      [  0]    ***   
       UIJ_THRESHO          IUIJTH              1               ***   
       UNITS                IUNITS         ANGSTROM    [  0]    ***   
       UNOS                 IUNOS          OFF         [  0]    ***   
       UPDATE_HESS          IHUPDT         ON          [  1]    ***   
       VIBPHASE             ISETPH         STANDARD    [  0]    ***   
       VIBRATION            IVIB           ANALYTIC    [  1]    ***   
       VIB_ALGORIT          IGEALG         STANDARD    [  0]    ***   
       VNATORB              IVNORB         OFF         [  0]    ***   
       VTRAN                IVTRAN         FULL/PARTIAL[  0]    ***   
       XFIELD               IXEFLD              0             x 10-6  
       XFORM_TOL            IXFTOL          10D- 11             ***   
       YFIELD               IYEFLD              0             x 10-6  
       ZFIELD               IZEFLD            200             x 10-6  
       ZSCALE_EXP           IZEXPS         OFF         [  0]    ***   
    -------------------------------------------------------------------
   2 entries found in Z-matrix 
   Job Title : Carbon Monoxide DBOC calculation                                                
   There are  1 unique internal coordinates.
   Of these,  0 will be optimized.
   User supplied Z-matrix: 
--------------------------------------------------------------------------------
       SYMBOL    BOND      LENGTH    ANGLE     ANGLE     DIHED     ANGLE
                  TO      (ANGST)    WRT      (DEG)      WRT      (DEG)
--------------------------------------------------------------------------------
        C    
        O          1         r    
                  *Initial values for internal coordinates* 
                      Name             Value
                        r               1.8000000000
--------------------------------------------------------------------------------
  read isotopes from ZMAT file 
   Rotational constants (in cm-1): 
          0.7254145900             0.7254145900
   Rotational constants (in MHz): 
      21747.3853476923         21747.3853476923
********************************************************************************
   The full molecular point group is CXv .
   The largest Abelian subgroup of the full molecular point group is C2v .
   The computational point group is C2v .
********************************************************************************
--------------------------------------------------------------------------------
   Analysis of internal coordinates specified by Z-matrix 
--------------------------------------------------------------------------------
   *The nuclear repulsion energy is   14.111389333333332 a.u.
   *There is   1 degree of freedom within the tot. symm. molecular subspace.
   *Z-matrix requests optimization of   0 coordinates.
   *The optimization is constrained.
   *The following   1 parameters can have non-zero 
    derivatives within the totally symmetric subspace:
             r    [ 1]
   *The following   0 parameters are to be optimized:

   *The following coordinates must be varied in an  unconstrained optimization.
             r    [ 1]
--------------------------------------------------------------------------------


 ----------------------------------------------------------------
         Coordinates used in calculation (QCOMP) 
 ----------------------------------------------------------------
 Z-matrix   Atomic            Coordinates (in bohr)
  Symbol    Number           X              Y              Z
 ----------------------------------------------------------------
     C         6        -0.00000000     0.00000000     1.87620940
     O         8         0.00000000     0.00000000    -1.52529833
 ----------------------------------------------------------------
 
   Interatomic distance matrix (Angstroms) 
 
                 C             O    
                [ 1]        [ 2]
  C    [ 1]     0.00000
  O    [ 2]     1.80000     0.00000
 rotcon2
   Rotational constants (in cm-1): 
          0.7254145900             0.0000000000
   Rotational constants (in MHz): 
      21747.3853476923             0.0000000000
  ECPDATA file not present.   Using default ECPDATA. 
  @GTFLGS-I, Hessian will be transformed to curvilinear coordinates.
  There are  218 basis functions.
 @CHECKOUT-I, Total execution time (CPU/WALL):        0.24/       0.89 seconds.
--executable xjoda finished with status     0 in        0.92 seconds (walltime).
 --invoking executable--
/nfs/workspaces/public/cfour_mpi/bin/xvmol
 SERIAL VERSION OF MOLECULE STARTED
********************************************************************************
                    INPUT FROM MOL FILE
********************************************************************************
INTGRL        1    0    1    0    0    0    0    0    0                         
         *** CFOUR Program System (Release V0.1) ***                            
Carbon Monoxide DBOC calculation                                                
    2    2 X  Y       0.10E-08              0    0                              
   9999.00      3.00                                                            
          6.00000000    1    5    1    1    1    1    1                         
C #1  -0.000000000000000   0.000000000000000   1.876209404577751                
   16    9                                                                      
   33980.0000000000       9.100000000000000E-005 -1.900000000000000E-005        
  0.000000000000000E+000  0.000000000000000E+000  0.000000000000000E+000        
  0.000000000000000E+000  0.000000000000000E+000  0.000000000000000E+000        
  0.000000000000000E+000                                                        
   5089.00000000000       7.040000000000000E-004 -1.510000000000000E-004        
  0.000000000000000E+000  0.000000000000000E+000  0.000000000000000E+000        
  0.000000000000000E+000  0.000000000000000E+000  0.000000000000000E+000        
  0.000000000000000E+000                                                        
   1157.00000000000       3.693000000000000E-003 -7.850000000000000E-004        
  0.000000000000000E+000  0.000000000000000E+000  0.000000000000000E+000        
  0.000000000000000E+000  0.000000000000000E+000  0.000000000000000E+000        
  0.000000000000000E+000                                                        
   326.600000000000       1.536000000000000E-002 -3.324000000000000E-003        
  0.000000000000000E+000  0.000000000000000E+000  0.000000000000000E+000        
  0.000000000000000E+000  0.000000000000000E+000  0.000000000000000E+000        
  0.000000000000000E+000                                                        
   106.100000000000       5.292900000000000E-002 -1.151200000000000E-002        
  0.000000000000000E+000  0.000000000000000E+000  0.000000000000000E+000        
  0.000000000000000E+000  0.000000000000000E+000  0.000000000000000E+000        
  0.000000000000000E+000                                                        
   38.1100000000000       0.147043000000000      -3.416000000000000E-002        
  0.000000000000000E+000  0.000000000000000E+000  0.000000000000000E+000        
  0.000000000000000E+000  0.000000000000000E+000  0.000000000000000E+000        
  0.000000000000000E+000                                                        
   14.7500000000000       0.305631000000000      -7.717300000000001E-002        
  0.000000000000000E+000  0.000000000000000E+000  0.000000000000000E+000        
  0.000000000000000E+000  0.000000000000000E+000  0.000000000000000E+000        
  0.000000000000000E+000                                                        
   6.03500000000000       0.399345000000000      -0.141493000000000             
  0.000000000000000E+000  0.000000000000000E+000  0.000000000000000E+000        
  0.000000000000000E+000  0.000000000000000E+000  0.000000000000000E+000        
  0.000000000000000E+000                                                        
   2.53000000000000       0.217051000000000      -0.118019000000000             
  0.000000000000000E+000  0.000000000000000E+000  0.000000000000000E+000        
  0.000000000000000E+000  0.000000000000000E+000  0.000000000000000E+000        
  0.000000000000000E+000                                                        
  0.735500000000000       1.589400000000000E-002  0.273806000000000             
   1.00000000000000       0.000000000000000E+000  0.000000000000000E+000        
  0.000000000000000E+000  0.000000000000000E+000  0.000000000000000E+000        
  0.000000000000000E+000                                                        
  0.290500000000000      -3.084000000000000E-003  0.586510000000000             
  0.000000000000000E+000   1.00000000000000       0.000000000000000E+000        
  0.000000000000000E+000  0.000000000000000E+000  0.000000000000000E+000        
  0.000000000000000E+000                                                        
  0.111100000000000       9.779999999999999E-004  0.285430000000000             
  0.000000000000000E+000  0.000000000000000E+000   1.00000000000000             
  0.000000000000000E+000  0.000000000000000E+000  0.000000000000000E+000        
  0.000000000000000E+000                                                        
   7.21600000000000       0.000000000000000E+000  0.000000000000000E+000        
  0.000000000000000E+000  0.000000000000000E+000  0.000000000000000E+000        
   1.00000000000000       0.000000000000000E+000  0.000000000000000E+000        
  0.000000000000000E+000                                                        
   19.5700000000000       0.000000000000000E+000  0.000000000000000E+000        
  0.000000000000000E+000  0.000000000000000E+000  0.000000000000000E+000        
  0.000000000000000E+000   1.00000000000000       0.000000000000000E+000        
  0.000000000000000E+000                                                        
   53.0730000000000       0.000000000000000E+000  0.000000000000000E+000        
  0.000000000000000E+000  0.000000000000000E+000  0.000000000000000E+000        
  0.000000000000000E+000  0.000000000000000E+000   1.00000000000000             
  0.000000000000000E+000                                                        
  4.145000000000000E-002  0.000000000000000E+000  0.000000000000000E+000        
  0.000000000000000E+000  0.000000000000000E+000  0.000000000000000E+000        
  0.000000000000000E+000  0.000000000000000E+000  0.000000000000000E+000        
   1.00000000000000                                                             
   10    8                                                                      
   34.5100000000000       5.378000000000000E-003  0.000000000000000E+000        
  0.000000000000000E+000  0.000000000000000E+000  0.000000000000000E+000        
  0.000000000000000E+000  0.000000000000000E+000  0.000000000000000E+000        
   7.91500000000000       3.613200000000000E-002  0.000000000000000E+000        
  0.000000000000000E+000  0.000000000000000E+000  0.000000000000000E+000        
  0.000000000000000E+000  0.000000000000000E+000  0.000000000000000E+000        
   2.36800000000000       0.142493000000000       0.000000000000000E+000        
  0.000000000000000E+000  0.000000000000000E+000  0.000000000000000E+000        
  0.000000000000000E+000  0.000000000000000E+000  0.000000000000000E+000        
  0.813200000000000       0.342150000000000        1.00000000000000             
  0.000000000000000E+000  0.000000000000000E+000  0.000000000000000E+000        
  0.000000000000000E+000  0.000000000000000E+000  0.000000000000000E+000        
  0.289000000000000       0.463864000000000       0.000000000000000E+000        
   1.00000000000000       0.000000000000000E+000  0.000000000000000E+000        
  0.000000000000000E+000  0.000000000000000E+000  0.000000000000000E+000        
  0.100700000000000       0.250028000000000       0.000000000000000E+000        
  0.000000000000000E+000   1.00000000000000       0.000000000000000E+000        
  0.000000000000000E+000  0.000000000000000E+000  0.000000000000000E+000        
   8.18200000000000       0.000000000000000E+000  0.000000000000000E+000        
  0.000000000000000E+000  0.000000000000000E+000   1.00000000000000             
  0.000000000000000E+000  0.000000000000000E+000  0.000000000000000E+000        
   24.1860000000000       0.000000000000000E+000  0.000000000000000E+000        
  0.000000000000000E+000  0.000000000000000E+000  0.000000000000000E+000        
   1.00000000000000       0.000000000000000E+000  0.000000000000000E+000        
   71.4940000000000       0.000000000000000E+000  0.000000000000000E+000        
  0.000000000000000E+000  0.000000000000000E+000  0.000000000000000E+000        
  0.000000000000000E+000   1.00000000000000       0.000000000000000E+000        
  3.218000000000000E-002  0.000000000000000E+000  0.000000000000000E+000        
  0.000000000000000E+000  0.000000000000000E+000  0.000000000000000E+000        
  0.000000000000000E+000  0.000000000000000E+000   1.00000000000000             
    6    6                                                                      
   1.84800000000000        1.00000000000000       0.000000000000000E+000        
  0.000000000000000E+000  0.000000000000000E+000  0.000000000000000E+000        
  0.000000000000000E+000                                                        
  0.649000000000000       0.000000000000000E+000   1.00000000000000             
  0.000000000000000E+000  0.000000000000000E+000  0.000000000000000E+000        
  0.000000000000000E+000                                                        
  0.228000000000000       0.000000000000000E+000  0.000000000000000E+000        
   1.00000000000000       0.000000000000000E+000  0.000000000000000E+000        
  0.000000000000000E+000                                                        
   8.65600000000000       0.000000000000000E+000  0.000000000000000E+000        
  0.000000000000000E+000   1.00000000000000       0.000000000000000E+000        
  0.000000000000000E+000                                                        
   33.2130000000000       0.000000000000000E+000  0.000000000000000E+000        
  0.000000000000000E+000  0.000000000000000E+000   1.00000000000000             
  0.000000000000000E+000                                                        
  7.660000000000000E-002  0.000000000000000E+000  0.000000000000000E+000        
  0.000000000000000E+000  0.000000000000000E+000  0.000000000000000E+000        
   1.00000000000000                                                             
    4    4                                                                      
   1.41900000000000        1.00000000000000       0.000000000000000E+000        
  0.000000000000000E+000  0.000000000000000E+000                                
  0.485000000000000       0.000000000000000E+000   1.00000000000000             
  0.000000000000000E+000  0.000000000000000E+000                                
   24.6940000000000       0.000000000000000E+000  0.000000000000000E+000        
   1.00000000000000       0.000000000000000E+000                                
  0.187000000000000       0.000000000000000E+000  0.000000000000000E+000        
  0.000000000000000E+000   1.00000000000000                                     
    2    2                                                                      
   1.01100000000000        1.00000000000000       0.000000000000000E+000        
  0.424000000000000       0.000000000000000E+000   1.00000000000000             
          8.00000000    1    5    1    1    1    1    1                         
O #2   0.000000000000000   0.000000000000000  -1.525298332624029                
   16    9                                                                      
   61420.0000000000       9.000000000000001E-005 -2.000000000000000E-005        
  0.000000000000000E+000  0.000000000000000E+000  0.000000000000000E+000        
  0.000000000000000E+000  0.000000000000000E+000  0.000000000000000E+000        
  0.000000000000000E+000                                                        
   9199.00000000000       6.980000000000001E-004 -1.590000000000000E-004        
  0.000000000000000E+000  0.000000000000000E+000  0.000000000000000E+000        
  0.000000000000000E+000  0.000000000000000E+000  0.000000000000000E+000        
  0.000000000000000E+000                                                        
   2091.00000000000       3.664000000000000E-003 -8.290000000000000E-004        
  0.000000000000000E+000  0.000000000000000E+000  0.000000000000000E+000        
  0.000000000000000E+000  0.000000000000000E+000  0.000000000000000E+000        
  0.000000000000000E+000                                                        
   590.900000000000       1.521800000000000E-002 -3.508000000000000E-003        
  0.000000000000000E+000  0.000000000000000E+000  0.000000000000000E+000        
  0.000000000000000E+000  0.000000000000000E+000  0.000000000000000E+000        
  0.000000000000000E+000                                                        
   192.300000000000       5.242300000000000E-002 -1.215600000000000E-002        
  0.000000000000000E+000  0.000000000000000E+000  0.000000000000000E+000        
  0.000000000000000E+000  0.000000000000000E+000  0.000000000000000E+000        
  0.000000000000000E+000                                                        
   69.3200000000000       0.145921000000000      -3.626100000000000E-002        
  0.000000000000000E+000  0.000000000000000E+000  0.000000000000000E+000        
  0.000000000000000E+000  0.000000000000000E+000  0.000000000000000E+000        
  0.000000000000000E+000                                                        
   26.9700000000000       0.305258000000000      -8.299200000000000E-002        
  0.000000000000000E+000  0.000000000000000E+000  0.000000000000000E+000        
  0.000000000000000E+000  0.000000000000000E+000  0.000000000000000E+000        
  0.000000000000000E+000                                                        
   11.1000000000000       0.398508000000000      -0.152090000000000             
  0.000000000000000E+000  0.000000000000000E+000  0.000000000000000E+000        
  0.000000000000000E+000  0.000000000000000E+000  0.000000000000000E+000        
  0.000000000000000E+000                                                        
   4.68200000000000       0.216980000000000      -0.115331000000000             
  0.000000000000000E+000  0.000000000000000E+000  0.000000000000000E+000        
  0.000000000000000E+000  0.000000000000000E+000  0.000000000000000E+000        
  0.000000000000000E+000                                                        
   1.42800000000000       1.759400000000000E-002  0.288979000000000             
   1.00000000000000       0.000000000000000E+000  0.000000000000000E+000        
  0.000000000000000E+000  0.000000000000000E+000  0.000000000000000E+000        
  0.000000000000000E+000                                                        
  0.554700000000000      -2.502000000000000E-003  0.586128000000000             
  0.000000000000000E+000   1.00000000000000       0.000000000000000E+000        
  0.000000000000000E+000  0.000000000000000E+000  0.000000000000000E+000        
  0.000000000000000E+000                                                        
  0.206700000000000       9.540000000000000E-004  0.277624000000000             
  0.000000000000000E+000  0.000000000000000E+000   1.00000000000000             
  0.000000000000000E+000  0.000000000000000E+000  0.000000000000000E+000        
  0.000000000000000E+000                                                        
   12.9740000000000       0.000000000000000E+000  0.000000000000000E+000        
  0.000000000000000E+000  0.000000000000000E+000  0.000000000000000E+000        
   1.00000000000000       0.000000000000000E+000  0.000000000000000E+000        
  0.000000000000000E+000                                                        
   34.9000000000000       0.000000000000000E+000  0.000000000000000E+000        
  0.000000000000000E+000  0.000000000000000E+000  0.000000000000000E+000        
  0.000000000000000E+000   1.00000000000000       0.000000000000000E+000        
  0.000000000000000E+000                                                        
   93.8810000000000       0.000000000000000E+000  0.000000000000000E+000        
  0.000000000000000E+000  0.000000000000000E+000  0.000000000000000E+000        
  0.000000000000000E+000  0.000000000000000E+000   1.00000000000000             
  0.000000000000000E+000                                                        
  6.959000000000000E-002  0.000000000000000E+000  0.000000000000000E+000        
  0.000000000000000E+000  0.000000000000000E+000  0.000000000000000E+000        
  0.000000000000000E+000  0.000000000000000E+000  0.000000000000000E+000        
   1.00000000000000                                                             
   10    8                                                                      
   63.4200000000000       6.044000000000000E-003  0.000000000000000E+000        
  0.000000000000000E+000  0.000000000000000E+000  0.000000000000000E+000        
  0.000000000000000E+000  0.000000000000000E+000  0.000000000000000E+000        
   14.6600000000000       4.179900000000000E-002  0.000000000000000E+000        
  0.000000000000000E+000  0.000000000000000E+000  0.000000000000000E+000        
  0.000000000000000E+000  0.000000000000000E+000  0.000000000000000E+000        
   4.45900000000000       0.161143000000000       0.000000000000000E+000        
  0.000000000000000E+000  0.000000000000000E+000  0.000000000000000E+000        
  0.000000000000000E+000  0.000000000000000E+000  0.000000000000000E+000        
   1.53100000000000       0.356731000000000        1.00000000000000             
  0.000000000000000E+000  0.000000000000000E+000  0.000000000000000E+000        
  0.000000000000000E+000  0.000000000000000E+000  0.000000000000000E+000        
  0.530200000000000       0.448309000000000       0.000000000000000E+000        
   1.00000000000000       0.000000000000000E+000  0.000000000000000E+000        
  0.000000000000000E+000  0.000000000000000E+000  0.000000000000000E+000        
  0.175000000000000       0.244940000000000       0.000000000000000E+000        
  0.000000000000000E+000   1.00000000000000       0.000000000000000E+000        
  0.000000000000000E+000  0.000000000000000E+000  0.000000000000000E+000        
   14.4750000000000       0.000000000000000E+000  0.000000000000000E+000        
  0.000000000000000E+000  0.000000000000000E+000   1.00000000000000             
  0.000000000000000E+000  0.000000000000000E+000  0.000000000000000E+000        
   42.7300000000000       0.000000000000000E+000  0.000000000000000E+000        
  0.000000000000000E+000  0.000000000000000E+000  0.000000000000000E+000        
   1.00000000000000       0.000000000000000E+000  0.000000000000000E+000        
   126.140000000000       0.000000000000000E+000  0.000000000000000E+000        
  0.000000000000000E+000  0.000000000000000E+000  0.000000000000000E+000        
  0.000000000000000E+000   1.00000000000000       0.000000000000000E+000        
  5.348000000000000E-002  0.000000000000000E+000  0.000000000000000E+000        
  0.000000000000000E+000  0.000000000000000E+000  0.000000000000000E+000        
  0.000000000000000E+000  0.000000000000000E+000   1.00000000000000             
    6    6                                                                      
   3.77500000000000        1.00000000000000       0.000000000000000E+000        
  0.000000000000000E+000  0.000000000000000E+000  0.000000000000000E+000        
  0.000000000000000E+000                                                        
   1.30000000000000       0.000000000000000E+000   1.00000000000000             
  0.000000000000000E+000  0.000000000000000E+000  0.000000000000000E+000        
  0.000000000000000E+000                                                        
  0.444000000000000       0.000000000000000E+000  0.000000000000000E+000        
   1.00000000000000       0.000000000000000E+000  0.000000000000000E+000        
  0.000000000000000E+000                                                        
   14.9270000000000       0.000000000000000E+000  0.000000000000000E+000        
  0.000000000000000E+000   1.00000000000000       0.000000000000000E+000        
  0.000000000000000E+000                                                        
   57.5440000000000       0.000000000000000E+000  0.000000000000000E+000        
  0.000000000000000E+000  0.000000000000000E+000   1.00000000000000             
  0.000000000000000E+000                                                        
  0.154000000000000       0.000000000000000E+000  0.000000000000000E+000        
  0.000000000000000E+000  0.000000000000000E+000  0.000000000000000E+000        
   1.00000000000000                                                             
    4    4                                                                      
   2.66600000000000        1.00000000000000       0.000000000000000E+000        
  0.000000000000000E+000  0.000000000000000E+000                                
  0.859000000000000       0.000000000000000E+000   1.00000000000000             
  0.000000000000000E+000  0.000000000000000E+000                                
   26.4830000000000       0.000000000000000E+000  0.000000000000000E+000        
   1.00000000000000       0.000000000000000E+000                                
  0.324000000000000       0.000000000000000E+000  0.000000000000000E+000        
  0.000000000000000E+000   1.00000000000000                                     
    2    2                                                                      
   1.84600000000000        1.00000000000000       0.000000000000000E+000        
  0.714000000000000       0.000000000000000E+000   1.00000000000000             
FINISH                                                                          
 
********************************************************************************
 ONE- AND TWO-ELECTRON INTEGRALS OVER SYMMETRY-ADAPTED AOS ARE CALCULATED.

  SPHERICAL HARMONICS ARE USED.
  
  INTEGRALS LESS THAN  0.10E-13 ARE NEGLECTED.

  NUCLEAR REPULSION ENERGY :   14.1113893333 A.U.
  @MOLECU-I, ONE ELECTRON INTEGRALS (CPU/WALL):        0.06/       0.06 SECONDS.
  @TWOEL-I,    4349471 INTEGRALS OF SYMMETRY TYPE  I I I I
  @TWOEL-I,   18763779 INTEGRALS OF SYMMETRY TYPE  I J I J
  @TWOEL-I,    9883543 INTEGRALS OF SYMMETRY TYPE  I I J J
  @TWOEL-I,   13837210 INTEGRALS OF SYMMETRY TYPE  I J K L
  @TWOEL-I, TOTAL NUMBER OF 2-E INTEGRALS   46834003.
  @MOLECU-I, TWO ELECTRON INTEGRALS (CPU/WALL):      205.71/      28.93 SECONDS.
 @CHECKOUT-I, Total execution time (CPU/WALL):      205.78/      29.01 seconds.

Running with 14 threads/proc

--executable xvmol finished with status     0 in       29.05 seconds (walltime).
 --invoking executable--
/nfs/workspaces/public/cfour_mpi/bin/xvmol2ja
 @GETMEM-I,  Allocated    3814 MB of main memory.
 @CHECKOUT-I, Total execution time (CPU/WALL):        0.18/       0.04 seconds.
--executable xvmol2ja finished with status     0 in        0.06 seconds (walltime).
 --invoking executable--
/nfs/workspaces/public/cfour_mpi/bin/xvprop
 @GETMEM-I,  Allocated    3814 MB of main memory.
   Property integrals will be calculated.
    --------------------------------------------------------------
                                   Property evaluated at 
    Property type                X             Y             Z
    --------------------------------------------------------------
    Dipole moment               ----          ----          ----  
    Quadrupole moment           ----          ----          ----  
    Octopole moment             ----          ----          ----  
    Relativisitic corr.         ----          ----          ----  
    Second moment            0.0000000     0.0000000     0.0000000
    Electron density         0.0000000     0.0000000     1.8762094
    Electron density         0.0000000     0.0000000    -1.5252983
    Field gradient           0.0000000     0.0000000     1.8762094
    Field gradient           0.0000000     0.0000000    -1.5252983
    Potential                0.0000000     0.0000000     1.8762094
    Potential                0.0000000     0.0000000    -1.5252983
    --------------------------------------------------------------
 @CHECKOUT-I, Total execution time (CPU/WALL):        1.41/       1.41 seconds.
--executable xvprop finished with status     0 in        1.44 seconds (walltime).
 --invoking executable--
/nfs/workspaces/public/cfour_mpi/bin/xvscf
  There are  218 functions in the AO basis.

  There are 4 irreducible representations.

       Irrep        # of functions
         1                 86
         2                 52
         3                 52
         4                 28


  Parameters for SCF calculation: 
        SCF reference function:  RHF  
  Maximum number of iterations:  150
     Full symmetry point group: CXv 
     Computational point group: C2v 
        Initial density matrix: MOREAD                 
     SCF convergence tolerance: 10**(-10)
  DIIS convergence acceleration:  ON
          Latest start for DIIS:   8
                     DIIS order:   6

  Memory information:    2523578 words required.
  Fock matrices are constructed from AO integral file.
 @GETMEM-I,  Allocated      19 MB of main memory.
  Initialization and symmetry analysis required      0.002 seconds.

  Adding electric field perturbation to one-electron Hamiltonian.
  Field direction     : Z
  Field strength      :  0.0002000 a.u.

  @INITGES-I, Occupancies from core Hamiltonian:

          Alpha population by irrep:   5    1    1    0
           Beta population by irrep:   5    1    1    0


 total no. of electrons in initial guess :  0.000000000000000E+000
  --------------------------------------------------------------------
  Iteration         Total Energy            Largest Density Difference
  --------------------------------------------------------------------
       0            14.111578359379559              0.0000000000D+00
   current occupation vector 
     5  1  1  0
     5  1  1  0
       1           -93.762564852377437              0.1756643452D+02
   current occupation vector 
     5  1  1  0
     5  1  1  0
       2           -97.501537212263187              0.1756643012D+02
   current occupation vector 
     5  1  1  0
     5  1  1  0
       3           -99.671874476443890              0.7020446018D+01
   current occupation vector 
     5  1  1  0
     5  1  1  0
       4           -93.991237007476471              0.7019170882D+01
   current occupation vector 
     5  1  1  0
     5  1  1  0
       5           -99.700985015300205              0.7081541211D+01
   current occupation vector 
     5  1  1  0
     5  1  1  0
       6           -93.907683919710536              0.7081521287D+01
   current occupation vector 
     5  1  1  0
     5  1  1  0
       7           -99.699437854614104              0.7083990978D+01
   current occupation vector 
     5  1  1  0
     5  1  1  0
       8           -93.905928385867881              0.7083990940D+01
   current occupation vector 
     5  1  1  0
     5  1  1  0
       9          -106.478943125371657              0.6164356396D+01
   current occupation vector 
     5  1  1  0
     5  1  1  0
      10          -110.495278258117821              0.1439298769D+01
   current occupation vector 
     5  1  1  0
     5  1  1  0
      11          -112.043355050014441              0.9055334776D+00
   current occupation vector 
     5  1  1  0
     5  1  1  0
      12          -112.209742117107623              0.8247283676D+00
   current occupation vector 
     5  1  1  0
     5  1  1  0
      13          -112.380035053310095              0.1760470822D+00
   current occupation vector 
     5  1  1  0
     5  1  1  0
      14          -112.422555256688725              0.1832804837D+00
   current occupation vector 
     5  1  1  0
     5  1  1  0
      15          -112.425245138535544              0.6453971116D-01
   current occupation vector 
     5  1  1  0
     5  1  1  0
      16          -112.428608282765694              0.1100081743D+00
   current occupation vector 
     5  1  1  0
     5  1  1  0
      17          -112.431474235346485              0.1398769134D+00
   current occupation vector 
     5  1  1  0
     5  1  1  0
      18          -112.432101502688937              0.8249735215D-01
   current occupation vector 
     5  1  1  0
     5  1  1  0
      19          -112.432103194906631              0.7968115002D-02
   current occupation vector 
     5  1  1  0
     5  1  1  0
      20          -112.432104984263674              0.6141930258D-02
   current occupation vector 
     5  1  1  0
     5  1  1  0
      21          -112.432105066366589              0.1399326440D-02
   current occupation vector 
     5  1  1  0
     5  1  1  0
      22          -112.432105074265280              0.3488468817D-03
   current occupation vector 
     5  1  1  0
     5  1  1  0
      23          -112.432105074288629              0.1026189006D-04
   current occupation vector 
     5  1  1  0
     5  1  1  0
      24          -112.432105074288941              0.4636910956D-05
   current occupation vector 
     5  1  1  0
     5  1  1  0
      25          -112.432105074288671              0.1412557925D-05
   current occupation vector 
     5  1  1  0
     5  1  1  0
      26          -112.432105074290277              0.8130718756D-06
   current occupation vector 
     5  1  1  0
     5  1  1  0
      27          -112.432105074289666              0.1774529281D-06
   current occupation vector 
     5  1  1  0
     5  1  1  0
      28          -112.432105074289879              0.4890609961D-07
   current occupation vector 
     5  1  1  0
     5  1  1  0
      29          -112.432105074289197              0.3769136780D-08
   current occupation vector 
     5  1  1  0
     5  1  1  0
      30          -112.432105074289595              0.1630142465D-08
   current occupation vector 
     5  1  1  0
     5  1  1  0

  SCF has converged.

 Density matrix saved to file den.dat
 total electron number:   14.0000000000002     
     E(SCF)=      -112.432105074289936              0.9033751525D-10

  Eigenvector printing suppressed.

 @PUTMOS-I, Writing converged MOs to NEWMOS. 
 @PUTMOS-I, Symmetry   1 Full Blocks 21 Partial Blocksize   2
 @PUTMOS-I, Symmetry   2 Full Blocks 13 Partial Blocksize   0
 @PUTMOS-I, Symmetry   3 Full Blocks 13 Partial Blocksize   0
 @PUTMOS-I, Symmetry   4 Full Blocks  7 Partial Blocksize   0
 @PUTFOCK-I, Writing converged Fock matrix to NEWFOCK. 
 @PUTFOCK-I, Symmetry   1 Full Blocks 21 Partial Blocksize   2
 @PUTFOCK-I, Symmetry   2 Full Blocks 13 Partial Blocksize   0
 @PUTFOCK-I, Symmetry   3 Full Blocks 13 Partial Blocksize   0
 @PUTFOCK-I, Symmetry   4 Full Blocks  7 Partial Blocksize   0


 
  ORBITAL EIGENVALUES (ALPHA)  (1H = 27.2113834 eV)

       MO #        E(hartree)               E(eV)           FULLSYM    COMPSYM
       ----   --------------------   --------------------   -------   ---------
    1     1         -20.6205547979        -561.1138225252     SG+        A1 (1)
    2     2         -11.5320700031        -313.8035782511     SG+        A1 (1)
    3     3          -1.2188748981         -33.1672721684     SG+        A1 (1)
    4     4          -0.8137179268         -22.1423904852     SG+        A1 (1)
    5     5          -0.4815005565         -13.1022962497     SG+        A1 (1)
    6   139          -0.4767858951         -12.9740037908      PI        B2 (3)
    7    87          -0.4767858951         -12.9740037908      PI        B1 (2)
  +++++++++++++++++++++++++++++++++++++++++++++++++++++++++++++++++++++++++++++
    8    88          -0.0282067268          -0.7675440572      PI        B1 (2)
    9   140          -0.0282067268          -0.7675440572      PI        B2 (3)
   10     6           0.0573381282           1.5602497887     SG+        A1 (1)
   11     7           0.0682749025           1.8578545493     SG+        A1 (1)
   12   141           0.0815503640           2.2190982220      PI        B2 (3)
   13    89           0.0815503640           2.2190982220      PI        B1 (2)
   14     8           0.1425430981           3.8787948929     SG+        A1 (1)
   15     9           0.1611215009           4.3843389341     SG+        A1 (1)
   16    90           0.1840678049           5.0087396095      PI        B1 (2)
   17   142           0.1840678049           5.0087396095      PI        B2 (3)
   18   191           0.2189888035           5.9589882934      DE        A2 (4)
   19    10           0.2189888035           5.9589882934      DE        A1 (1)
   20   143           0.2783025529           7.5729974685      PI        B2 (3)
   21    91           0.2783025529           7.5729974685      PI        B1 (2)
   22    11           0.2846678610           7.7462063071     SG+        A1 (1)
   23    12           0.3060636546           8.3284154508     SG+        A1 (1)
   24    13           0.4084346623          11.1140721896     SG+        A1 (1)
   25   144           0.4128446968          11.2340753300      PI        B2 (3)
   26    92           0.4128446968          11.2340753300      PI        B1 (2)
   27    14           0.5174840568          14.0814570742     SG+        A1 (1)
   28   192           0.5501086041          14.9692161377      DE        A2 (4)
   29    15           0.5501086041          14.9692161377      DE        A1 (1)
   30   145           0.6247186170          16.9994578049      PI        B2 (3)
   31    93           0.6247186170          16.9994578049      PI        B1 (2)
   32    16           0.6951971240          18.9172754798     SG+        A1 (1)
   33   146           0.7225931226          19.6627585006      PH        B2 (3)
   34    94           0.7225931226          19.6627585006      PH        B1 (2)
   35   193           0.7296152661          19.8538407401      DE        A2 (4)
   36    17           0.7296152661          19.8538407401      DE        A1 (1)
   37   147           0.7642671437          20.7967662682      PI        B2 (3)
   38    95           0.7642671437          20.7967662682      PI        B1 (2)
   39    18           0.8011162382          21.7994811068     SG+        A1 (1)
   40   194           0.8418073943          22.9067437556      DE        A2 (4)
   41    19           0.8418073943          22.9067437556      DE        A1 (1)
   42   148           0.8526534077          23.2018787855      PI        B2 (3)
   43    96           0.8526534077          23.2018787855      PI        B1 (2)
   44    20           0.9166641564          24.9436998098     SG+        A1 (1)
   45   149           1.0638905309          28.9499331308      PI        B2 (3)
   46    97           1.0638905309          28.9499331308      PI        B1 (2)
   47    21           1.1610793887          31.5945764045     SG+        A1 (1)
   48    22           1.3000406323          35.3759040821     SG+        A1 (1)
   49    98           1.4171738852          38.5632619360      PH        B1 (2)
   50   150           1.4171738852          38.5632619360      PH        B2 (3)
   51    99           1.4441985959          39.2986416995      PI        B1 (2)
   52   151           1.4441985959          39.2986416995      PI        B2 (3)
   53    23           1.5761086597          42.8880970190     SG+        A1 (1)
   54   195           1.5808350686          43.0167091438      DE        A2 (4)
   55    24           1.5808350686          43.0167091438      DE        A1 (1)
   56   152           1.6428143863          44.7032521193      PI        B2 (3)
   57   100           1.6428143863          44.7032521193      PI        B1 (2)
   58   196           1.6522074451          44.9588502459      DE        A2 (4)
   59    25           1.6522074451          44.9588502459      DE        A1 (1)
   60    26           1.8163110264          49.4243357120     SG+        A1 (1)
   61    27           1.9241099300          52.3576930081     SG+        A1 (1)
   62   153           1.9861114407          54.0448398877      PI        B2 (3)
   63   101           1.9861114407          54.0448398877      PI        B1 (2)
   64   197           2.0512543623          55.8174689024      PI        A2 (4)
   65    28           2.0512543623          55.8174689024      PI        A1 (1)
   66   198           2.1109809015          57.4427106605      DE        A2 (4)
   67    29           2.1109809015          57.4427106605      DE        A1 (1)
   68   102           2.1494781566          58.4902742291      PH        B1 (2)
   69   154           2.1494781566          58.4902742291      PH        B2 (3)
   70   155           2.1917761827          59.6412620343      PH        B2 (3)
   71   103           2.1917761827          59.6412620343      PH        B1 (2)
   72   156           2.1922522999          59.6542178420      PI        B2 (3)
   73   104           2.1922522999          59.6542178420      PI        B1 (2)
   74    30           2.2257793374          60.5665349142     SG+        A1 (1)
   75   199           2.2613366874          61.5340995979      DE        A2 (4)
   76    31           2.2613366874          61.5340995979      DE        A1 (1)
   77    32           2.3459536497          63.8366442001     SG+        A1 (1)
   78   157           2.4445049150          66.5183604663      PI        B2 (3)
   79   105           2.4445049150          66.5183604663      PI        B1 (2)
   80   200           2.5079347152          68.2443730772      DE        A2 (4)
   81    33           2.5079347152          68.2443730772      DE        A1 (1)
   82    34           2.6116703138          71.0671622235     SG+        A1 (1)
   83   158           2.6723032817          72.7170691587      PI        B2 (3)
   84   106           2.6723032817          72.7170691588      PI        B1 (2)
   85    35           2.8021382009          76.2500569239     SG+        A1 (1)
   86   159           3.1859007820          86.6927676529      PI        B2 (3)
   87   107           3.1859007820          86.6927676529      PI        B1 (2)
   88    36           3.7034096703         100.7749004266     SG+        A1 (1)
   89   201           3.7287203252         101.4636383601      PI        A2 (4)
   90    37           3.7287203252         101.4636383601      PI        A1 (1)
   91   108           3.8348011107         104.3502432855      PH        B1 (2)
   92   160           3.8348011107         104.3502432855      PH        B2 (3)
   93    38           4.0537151235         110.3071964196     SG+        A1 (1)
   94   202           4.1000949252         111.5692549859      DE        A2 (4)
   95    39           4.1000949252         111.5692549859      DE        A1 (1)
   96   161           4.1236430443         112.2100318843      PI        B2 (3)
   97   109           4.1236430443         112.2100318843      PI        B1 (2)
   98   162           4.1582642175         113.1521219020      PH        B2 (3)
   99   110           4.1582642175         113.1521219020      PH        B1 (2)
  100    40           4.2693639075         116.1752981625     SG+        A1 (1)
  101   203           4.3138907403         117.3869348787      DE        A2 (4)
  102    41           4.3138907403         117.3869348787      DE        A1 (1)
  103   163           4.4453599843         120.9643948829      PI        B2 (3)
  104   111           4.4453599843         120.9643948829      PI        B1 (2)
  105   204           4.5253531229         123.1411188469      DE        A2 (4)
  106    42           4.5253531229         123.1411188469      DE        A1 (1)
  107    43           4.7985931987         130.5763593098     SG+        A1 (1)
  108   164           4.9433737619         134.5160387251      PI        B2 (3)
  109   112           4.9433737619         134.5160387251      PI        B1 (2)
  110    44           5.1199142071         139.3199484640     SG+        A1 (1)
  111   113           5.3457818544         145.4661196115      PI        B1 (2)
  112   165           5.3457818544         145.4661196115      PI        B2 (3)
  113   205           5.8002857962         157.8338006292      PI        A2 (4)
  114    45           5.8002857962         157.8338006292      PI        A1 (1)
  115   166           5.8726850031         159.8038832064      PH        B2 (3)
  116   114           5.8726850031         159.8038832064      PH        B1 (2)
  117    46           5.8728640508         159.8087553433     SG+        A1 (1)
  118   206           6.0097899338         163.5346980425      DE        A2 (4)
  119    47           6.0097899338         163.5346980425      DE        A1 (1)
  120   115           6.0909038119         165.7419188780      PI        B1 (2)
  121   167           6.0909038119         165.7419188780      PI        B2 (3)
  122    48           6.1081553954         166.2113583305     SG+        A1 (1)
  123   207           6.2268837607         169.4421213996      DE        A2 (4)
  124    49           6.2268837607         169.4421213996      DE        A1 (1)
  125   168           6.3252391762         172.1185083213      PH        B2 (3)
  126   116           6.3252391762         172.1185083213      PH        B1 (2)
  127   208           6.4483716274         175.4691126584      DE        A2 (4)
  128    50           6.4483716274         175.4691126585      DE        A1 (1)
  129   169           6.6281938728         180.3623247226      PI        B2 (3)
  130   117           6.6281938728         180.3623247226      PI        B1 (2)
  131   170           6.8623371050         186.7336859836      PI        B2 (3)
  132   118           6.8623371050         186.7336859836      PI        B1 (2)
  133    51           6.9999149694         190.4773699998     SG+        A1 (1)
  134    52           7.3050645309         198.7809117124     SG+        A1 (1)
  135    53           9.1842628383         249.9164973387     SG+        A1 (1)
  136   119           9.5441775103         259.7102734717      PI        B1 (2)
  137   171           9.5441775103         259.7102734718      PI        B2 (3)
  138    54          10.5853005601         288.0406719462     SG+        A1 (1)
  139   209          10.6965685183         291.0684270161      PI        A2 (4)
  140    55          10.6965685183         291.0684270161      PI        A1 (1)
  141   120          10.7199520554         291.7047254081      PH        B1 (2)
  142   172          10.7199520554         291.7047254081      PH        B2 (3)
  143   210          10.8869726957         296.2495880886      DE        A2 (4)
  144    56          10.8869726957         296.2495880886      DE        A1 (1)
  145   173          11.0077073364         299.5349446864      PI        B2 (3)
  146   121          11.0077073364         299.5349446864      PI        B1 (2)
  147    57          11.0405022683         300.4273401515     SG+        A1 (1)
  148   174          11.9301910289         324.6370021226      PH        B2 (3)
  149   122          11.9301910289         324.6370021226      PH        B1 (2)
  150   211          11.9698986146         325.7175004613      DE        A2 (4)
  151    58          11.9698986146         325.7175004613      DE        A1 (1)
  152   123          12.1131747500         329.6162423135      PI        B1 (2)
  153   175          12.1131747500         329.6162423135      PI        B2 (3)
  154    59          12.3858959826         337.0373643339     SG+        A1 (1)
  155   212          12.7264913826         346.3054363481      DE        A2 (4)
  156    60          12.7264913826         346.3054363481      DE        A1 (1)
  157   176          13.0567005268         355.2908839749      PI        B2 (3)
  158   124          13.0567005268         355.2908839749      PI        B1 (2)
  159    61          13.2885704133         361.6003843534     SG+        A1 (1)
  160    62          17.0882103846         464.9938443951     SG+        A1 (1)
  161   125          18.6394084855         507.2040906487      PI        B1 (2)
  162   177          18.6394084855         507.2040906488      PI        B2 (3)
  163    63          19.2762200782         524.5326150498     SG+        A1 (1)
  164   213          26.2295862739         713.7433285230      DE        A2 (4)
  165    64          26.2295862739         713.7433285230      DE        A1 (1)
  166   178          26.3984889780         718.3394047601      PI        B2 (3)
  167   126          26.3984889780         718.3394047601      PI        B1 (2)
  168    65          26.7729784865         728.5297823570     SG+        A1 (1)
  169   127          33.2996349075         906.1291325475      PI        B1 (2)
  170   179          33.2996349075         906.1291325480      PI        B2 (3)
  171    66          33.9869684662         924.8324295378     SG+        A1 (1)
  172    67          35.4761310089         965.3546024312     SG+        A1 (1)
  173    68          47.0926180757        1281.4552857667      DE        A1 (1)
  174   214          47.0926180757        1281.4552857667      DE        A2 (4)
  175   180          47.2466511532        1285.6467388957      PI        B2 (3)
  176   128          47.2466511532        1285.6467388958      PI        B1 (2)
  177    69          47.3764965128        1289.1800107585     SG+        A1 (1)
  178    70          63.5649455879        1729.6901051923     SG+        A1 (1)
  179   129          66.2417503712        1802.5296664387      PI        B1 (2)
  180   181          66.2417503712        1802.5296664388      PI        B2 (3)
  181    71          66.7224566760        1815.6103499999     SG+        A1 (1)
  182   182          98.4931474848        2680.1347984828      PH        B2 (3)
  183   130          98.4931474848        2680.1347984828      PH        B1 (2)
  184   215          98.5101530110        2680.5975423760      DE        A2 (4)
  185    72          98.5101530110        2680.5975423761      DE        A1 (1)
  186   131          98.5255915306        2681.0176458516      PI        B1 (2)
  187   183          98.5255915306        2681.0176458517      PI        B2 (3)
  188    73          98.5314375401        2681.1767238578     SG+        A1 (1)
  189   132         103.3312726211        2811.7868765034      PI        B1 (2)
  190   184         103.3312726211        2811.7868765034      PI        B2 (3)
  191    74         103.3320520175        2811.8080849580      DE        A1 (1)
  192   216         103.3320520176        2811.8080849606      DE        A2 (4)
  193    75         103.3420348343        2812.0797312109     SG+        A1 (1)
  194   185         103.3502549144        2812.3034109622      PH        B2 (3)
  195   133         103.3502549144        2812.3034109622      PH        B1 (2)
  196   217         114.9422830502        3127.7385329517      DE        A2 (4)
  197    76         114.9422830502        3127.7385329517      DE        A1 (1)
  198   186         115.0253179801        3129.9980282638      PI        B2 (3)
  199   134         115.0253179801        3129.9980282638      PI        B1 (2)
  200    77         115.1844486436        3134.3281937577     SG+        A1 (1)
  201   135         116.6309401062        3173.6892275314      PI        B1 (2)
  202   187         116.6309401062        3173.6892275319      PI        B2 (3)
  203    78         117.2232103879        3189.8057212429     SG+        A1 (1)
  204    79         121.7315701689        3312.4844277507     SG+        A1 (1)
  205   218         198.5785624400        5403.5973975762      DE        A2 (4)
  206    80         198.5785624400        5403.5973975762      DE        A1 (1)
  207   188         198.6622147964        5405.8736939187      PI        B2 (3)
  208   136         198.6622147964        5405.8736939188      PI        B1 (2)
  209    81         198.7322077834        5407.7782999222     SG+        A1 (1)
  210    82         216.1092714827        5880.6322426116     SG+        A1 (1)
  211   137         224.7362189100        6115.3834166252      PI        B1 (2)
  212   189         224.7362189100        6115.3834166252      PI        B2 (3)
  213    83         225.1140704434        6125.6652795708     SG+        A1 (1)
  214   138         395.1927059461       10753.7402383818      PI        B1 (2)
  215   190         395.1927059461       10753.7402383824      PI        B2 (3)
  216    84         395.6511880511       10766.2161707253     SG+        A1 (1)
  217    85         508.4973310225       13836.9158323304     SG+        A1 (1)
  218    86         894.9208118612       24352.0333241947     SG+        A1 (1)


  VSCF finished.

 @CHECKOUT-I, Total execution time (CPU/WALL):       53.25/       9.63 seconds.
--executable xvscf finished with status     0 in        9.67 seconds (walltime).
 --invoking executable--
/nfs/workspaces/public/cfour_mpi/bin/xvtran
 @GETMEM-I,  Allocated    3814 MB of main memory.
  Full RHF integral transformation
  Transformation of IIII integrals :
  1 pass through the AO integral file was required.
     4349471 AO integrals were read.
     8454964 MO integrals were written to HF2.
  Transformation of IIJJ integrals :
  1 pass through the AO integral file was required.
     9883543 AO integrals were read.
    14216803 MO integrals were written to HF2.
  Transformation of IJIJ integrals :
  1 pass through the AO integral file was required.
    18763779 AO integrals were read.
    26285375 MO integrals were written to HF2.
  Transformation of IJKL integrals :
  1 pass through the AO integral file was required.
    13837210 AO integrals were read.
    17854650 MO integrals were written to HF2.
  Summary of active molecular orbitals: 
------------------------------------------------------------------------
 
  Index      Eigenvalue    Symmetry    Index      Eigenvalue    Symmetry
------------------------------------------------------------------------
     1       -20.6205548        1       110         4.1236430        2
     2       -11.5320700        1       111         4.1582642        2
     3        -1.2188749        1       112         4.4453600        2
     4        -0.8137179        1       113         4.9433738        2
     5        -0.4815006        1       114         5.3457819        2
     6        -0.4767859        2       115         5.8726850        2
     7        -0.4767859        3       116         6.0909038        2
     8         0.0573381        1       117         6.3252392        2
     9         0.0682749        1       118         6.6281939        2
    10         0.1425431        1       119         6.8623371        2
    11         0.1611215        1       120         9.5441775        2
    12         0.2189888        1       121        10.7199521        2
    13         0.2846679        1       122        11.0077073        2
    14         0.3060637        1       123        11.9301910        2
    15         0.4084347        1       124        12.1131748        2
    16         0.5174841        1       125        13.0567005        2
    17         0.5501086        1       126        18.6394085        2
    18         0.6951971        1       127        26.3984890        2
    19         0.7296153        1       128        33.2996349        2
    20         0.8011162        1       129        47.2466512        2
    21         0.8418074        1       130        66.2417504        2
    22         0.9166642        1       131        98.4931475        2
    23         1.1610794        1       132        98.5255915        2
    24         1.3000406        1       133       103.3312726        2
    25         1.5761087        1       134       103.3502549        2
    26         1.5808351        1       135       115.0253180        2
    27         1.6522074        1       136       116.6309401        2
    28         1.8163110        1       137       198.6622148        2
    29         1.9241099        1       138       224.7362189        2
    30         2.0512544        1       139       395.1927059        2
    31         2.1109809        1       140        -0.0282067        3
    32         2.2257793        1       141         0.0815504        3
    33         2.2613367        1       142         0.1840678        3
    34         2.3459536        1       143         0.2783026        3
    35         2.5079347        1       144         0.4128447        3
    36         2.6116703        1       145         0.6247186        3
    37         2.8021382        1       146         0.7225931        3
    38         3.7034097        1       147         0.7642671        3
    39         3.7287203        1       148         0.8526534        3
    40         4.0537151        1       149         1.0638905        3
    41         4.1000949        1       150         1.4171739        3
    42         4.2693639        1       151         1.4441986        3
    43         4.3138907        1       152         1.6428144        3
    44         4.5253531        1       153         1.9861114        3
    45         4.7985932        1       154         2.1494782        3
    46         5.1199142        1       155         2.1917762        3
    47         5.8002858        1       156         2.1922523        3
    48         5.8728641        1       157         2.4445049        3
    49         6.0097899        1       158         2.6723033        3
    50         6.1081554        1       159         3.1859008        3
    51         6.2268838        1       160         3.8348011        3
    52         6.4483716        1       161         4.1236430        3
    53         6.9999150        1       162         4.1582642        3
    54         7.3050645        1       163         4.4453600        3
    55         9.1842628        1       164         4.9433738        3
    56        10.5853006        1       165         5.3457819        3
    57        10.6965685        1       166         5.8726850        3
    58        10.8869727        1       167         6.0909038        3
    59        11.0405023        1       168         6.3252392        3
    60        11.9698986        1       169         6.6281939        3
    61        12.3858960        1       170         6.8623371        3
    62        12.7264914        1       171         9.5441775        3
    63        13.2885704        1       172        10.7199521        3
    64        17.0882104        1       173        11.0077073        3
    65        19.2762201        1       174        11.9301910        3
    66        26.2295863        1       175        12.1131748        3
    67        26.7729785        1       176        13.0567005        3
    68        33.9869685        1       177        18.6394085        3
    69        35.4761310        1       178        26.3984890        3
    70        47.0926181        1       179        33.2996349        3
    71        47.3764965        1       180        47.2466512        3
    72        63.5649456        1       181        66.2417504        3
    73        66.7224567        1       182        98.4931475        3
    74        98.5101530        1       183        98.5255915        3
    75        98.5314375        1       184       103.3312726        3
    76       103.3320520        1       185       103.3502549        3
    77       103.3420348        1       186       115.0253180        3
    78       114.9422831        1       187       116.6309401        3
    79       115.1844486        1       188       198.6622148        3
    80       117.2232104        1       189       224.7362189        3
    81       121.7315702        1       190       395.1927059        3
    82       198.5785624        1       191         0.2189888        4
    83       198.7322078        1       192         0.5501086        4
    84       216.1092715        1       193         0.7296153        4
    85       225.1140704        1       194         0.8418074        4
    86       395.6511881        1       195         1.5808351        4
    87       508.4973310        1       196         1.6522074        4
    88       894.9208119        1       197         2.0512544        4
    89        -0.0282067        2       198         2.1109809        4
    90         0.0815504        2       199         2.2613367        4
    91         0.1840678        2       200         2.5079347        4
    92         0.2783026        2       201         3.7287203        4
    93         0.4128447        2       202         4.1000949        4
    94         0.6247186        2       203         4.3138907        4
    95         0.7225931        2       204         4.5253531        4
    96         0.7642671        2       205         5.8002858        4
    97         0.8526534        2       206         6.0097899        4
    98         1.0638905        2       207         6.2268838        4
    99         1.4171739        2       208         6.4483716        4
   100         1.4441986        2       209        10.6965685        4
   101         1.6428144        2       210        10.8869727        4
   102         1.9861114        2       211        11.9698986        4
   103         2.1494782        2       212        12.7264914        4
   104         2.1917762        2       213        26.2295863        4
   105         2.1922523        2       214        47.0926181        4
   106         2.4445049        2       215        98.5101530        4
   107         2.6723033        2       216       103.3320520        4
   108         3.1859008        2       217       114.9422831        4
   109         3.8348011        2       218       198.5785624        4
------------------------------------------------------------------------
  -20.6205547978562       -11.5320700031419       -1.21887489808336     
 -0.813717926783426      -0.481500556479451      -0.476785895082979     
 -0.476785895082997       5.733812815806879E-002  6.827490252706088E-002
  0.142543098082010       0.161121500866896       0.218988803539529     
  0.284667860989952       0.306063654626347       0.408434662294853     
  0.517484056845306       0.550108604097093       0.695197124002728     
  0.729615266090249       0.801116238241774       0.841807394314216     
  0.916664156434993        1.16107938872687        1.30004063233540     
   1.57610865969406        1.58083506859989        1.65220744513368     
   1.81631102636254        1.92410992996800        2.05125436225928     
   2.11098090148782        2.22577933741442        2.26133668742257     
   2.34595364968016        2.50793471519134        2.61167031381059     
   2.80213820087804        3.70340967032817        3.72872032518905     
   4.05371512348782        4.10009492519421        4.26936390754956     
   4.31389074025223        4.52535312287430        4.79859319867657     
   5.11991420708230        5.80028579617037        5.87286405083266     
[...]
 Perturbed amplitude equations converged in    23 iterations.
  Dominant contributions to perturbed wavefunction:
    7    0   46    0   0.3885956867 AA  
    7    0   22    0   0.3279711586 AA  
    7    0   32    0   0.2636281370 AA  
    7    0   36    0   0.2457741407 AA  
    7    0   28    0   0.2415677420 AA  
    7    7  140   46  -0.2344232943 ABAB
    7    7   46  140  -0.2344232943 ABAB
    7    0   54    0  -0.2314347956 AA  
    7    0   16    0  -0.2302937732 AA  
    7    7  140   22  -0.2242885321 ABAB
    7    7   22  140  -0.2242885321 ABAB
    7    0   25    0   0.2124218765 AA  
    7    0   37    0   0.2083179250 AA  
    7    0   56    0   0.2022084092 AA  
    7    0   24    0   0.1952450499 AA  
    7    7  140   32  -0.1877926954 ABAB
    7    7   32  140  -0.1877926954 ABAB
    7    0   63    0   0.1845752908 AA  
    7    0   38    0   0.1747391907 AA  
    7    0   40    0   0.1695275205 AA  
  norm of converged amps    1.57381141026599     
 Starting iterative solution of the perturbed Lambda equations.
 The DIIS procedure is used to accelerate convergence.
 Convergence criterion is 10**(-7).
 Maximum number of iterations is 100.
 Convergence information after     1 iterations: 
 Largest element of residual vector :  0.74581479E-01.
 Largest element of DIIS residual   :  0.74581479E-01.
 Convergence information after     2 iterations: 
 Largest element of residual vector :  0.20529912E-01.
 Largest element of DIIS residual   :  0.14788235E-01.
 Convergence information after     3 iterations: 
 Largest element of residual vector :  0.70657307E-02.
 Largest element of DIIS residual   :  0.56689027E-02.
 Convergence information after     4 iterations: 
 Largest element of residual vector :  0.27832057E-02.
 Largest element of DIIS residual   :  0.27008439E-02.
 Convergence information after     5 iterations: 
 Largest element of residual vector :  0.28018951E-02.
 Largest element of DIIS residual   :  0.24978286E-02.
 Convergence information after     6 iterations: 
 Largest element of residual vector :  0.17590273E-02.
 Largest element of DIIS residual   :  0.10098263E-02.
 Convergence information after     7 iterations: 
 Largest element of residual vector :  0.10811464E-02.
 Largest element of DIIS residual   :  0.51623996E-03.
 Convergence information after     8 iterations: 
 Largest element of residual vector :  0.40543945E-03.
 Largest element of DIIS residual   :  0.19251697E-03.
 Convergence information after     9 iterations: 
 Largest element of residual vector :  0.15602088E-03.
 Largest element of DIIS residual   :  0.99915161E-04.
 Convergence information after    10 iterations: 
 Largest element of residual vector :  0.11927642E-03.
 Largest element of DIIS residual   :  0.90133868E-04.
 Convergence information after    11 iterations: 
 Largest element of residual vector :  0.50690550E-04.
 Largest element of DIIS residual   : -0.23802292E-04.
 Convergence information after    12 iterations: 
 Largest element of residual vector :  0.37708233E-04.
 Largest element of DIIS residual   :  0.19401276E-04.
 Convergence information after    13 iterations: 
 Largest element of residual vector :  0.11843092E-04.
 Largest element of DIIS residual   :  0.83622625E-05.
 Convergence information after    14 iterations: 
 Largest element of residual vector :  0.10158000E-04.
 Largest element of DIIS residual   :  0.48221734E-05.
 Convergence information after    15 iterations: 
 Largest element of residual vector :  0.57493195E-05.
 Largest element of DIIS residual   :  0.31716437E-05.
 Convergence information after    16 iterations: 
 Largest element of residual vector :  0.23594736E-05.
 Largest element of DIIS residual   :  0.75274538E-06.
 Convergence information after    17 iterations: 
 Largest element of residual vector :  0.14618234E-05.
 Largest element of DIIS residual   :  0.74134456E-06.
 Convergence information after    18 iterations: 
 Largest element of residual vector :  0.38480470E-06.
 Largest element of DIIS residual   :  0.22269985E-06.
 Convergence information after    19 iterations: 
 Largest element of residual vector :  0.35001566E-06.
 Largest element of DIIS residual   :  0.18583206E-06.
 Convergence information after    20 iterations: 
 Largest element of residual vector :  0.14040057E-06.
 Largest element of DIIS residual   :  0.10472961E-06.
 Convergence information after    21 iterations: 
 Largest element of residual vector :  0.12020986E-06.
 Largest element of DIIS residual   :  0.46413048E-07.
 Perturbed Lambda equations converged in    21 iterations.
  Dominant contributions to perturbed wavefunction:
    7    7  140   46  -0.1406653762 ABAB
    7    7   46  140  -0.1406653762 ABAB
    7    7  140   22  -0.1384619885 ABAB
    7    7   22  140  -0.1384619885 ABAB
    7    0   46    0   0.1186721575 AA  
    7    7  140   32  -0.1167130932 ABAB
    7    7   32  140  -0.1167130932 ABAB
    7    0   22    0   0.0945452347 AA  
    7    7  140   36  -0.0933815770 ABAB
    7    7   36  140  -0.0933815770 ABAB
    7    6   46   89  -0.0913249441 ABAB
    6    7   89   46  -0.0913249441 ABAB
    7    6   22   89  -0.0888533904 ABAB
    6    7   89   22  -0.0888533904 ABAB
    7    7  140   16   0.0873238368 ABAB
    7    7   16  140   0.0873238368 ABAB
    7    5   46   10  -0.0826886395 ABAB
    5    7   10   46  -0.0826886395 ABAB
    7    7  140   56  -0.0823788169 ABAB
    7    7   56  140  -0.0823788169 ABAB
        The DBOC first-order density matrix is being calculated 
             (Symmetry block 3, perturbation   2)
 term   2.65521258965515     
 final tnorm  0.593439247319839     
  norm contr. I: |<0|L dT/dx|0>|^2   0.000000000000000E+000
  norm contr. II: <0|[nabla(1+L)e-T][nabla e^T]|0>   2.65521258965515     
  total norm contribution   2.65521258965515     
 oo  1.461528422601853E-002
 vv  -19.8259826796371     
 vo -5.991263631499998E-002
  Correlated perturbed 1-el contribution to DBOC  -19.8712800317261       cm**-1
  SUM_I |dc_I/dx|^2 contribution to DBOC   9.99610434600132       cm**-1
 
 
  The total diagonal Born-Oppenheimer correction (DBOC) is:      0.0040013519 a.u.
  The total diagonal Born-Oppenheimer correction (DBOC) is:        878.195223 cm-1
 
 Total CC energy including DBOC  -112.990468028542     
 First-order density matrix is being calculated  (Symmetry block 3, perturbation   2)
 Calculation of the contributions of <pq||rs> to dI(i,j)/dx required   2.7 seconds.
 Calculation of the contributions of <pq||rs> to dI(a,b)/dx required  16.0 seconds.
 Calculation of the contributions of <pq||rs> to dI(i,a)/dx required   9.5 seconds.
 First-order Z-vector equations are solved for 1 perturbation.
 Convergence reached after  20 iterations.
        U*G(pq,rs) contribution is being calculated
             (Symmetry block 3, perturbation   2)

 CCSD contribution to force constants 

        0.0000000000        0.0000000000        0.0000000000
        0.0000000000        0.0000000000        0.0000000000
        0.0000000000        0.0000000000        0.0000000000
        0.0000000000        0.0000000000        0.0000000000
        0.0000000000        0.0000000000        0.0000000000
        0.0000000000        0.0000000000        0.0000000000
        0.0000000000        0.0000000000        0.0000000000
        0.0000000000        0.0000000000        0.0000000000
        0.0000000000        0.0000000000        0.0000000000
        0.0000000000        0.0000000000        0.0000000000
        0.0000000000        0.0000000000        0.0000000000
        0.0000000000      -12.4466612045       12.4466612045

 CCSD contribution to dipole derivatives 

        0.0000000000        0.0000000000        0.0000000000
        0.0000000000        0.0000000000        0.0000000000
        0.0000000000        0.0000000000        0.0000000000
        0.0000000000        0.0000000000       -0.0538114262
        0.0000000000        0.0000000000        0.0000000000
        0.0000000000        0.0000000000        0.0000000000
 @CHECKOUT-I, Total execution time (CPU/WALL):     1462.32/     480.25 seconds.
--executable xsdcc finished with status     0 in      480.47 seconds (walltime).
 --invoking executable--
/nfs/workspaces/public/cfour_mpi/bin/xanti
 @GETMEM-I,  Allocated    3814 MB of main memory.
 CCSD MO derivative gammas will be sorted to Mulliken order.
 @CHECKOUT-I, Total execution time (CPU/WALL):       18.62/      43.89 seconds.
--executable xanti finished with status     0 in       44.08 seconds (walltime).
 --invoking executable--
/nfs/workspaces/public/cfour_mpi/bin/xbcktrn
 @GETMEM-I,  Allocated    3814 MB of main memory.
 CCSD MO derivative gammas will be transformed to the AO basis.
 @CHECKOUT-I, Total execution time (CPU/WALL):       21.38/       3.45 seconds.
--executable xbcktrn finished with status     0 in        3.51 seconds (walltime).
 --invoking executable--
/nfs/workspaces/public/cfour_mpi/bin/xvdint
 @GETMEM-I,  Allocated    3814 MB of main memory.
 One- and two-electron integral derivatives are calculated
 for RHF-CC/MBPT hessians and dipole derivatives.
 Spherical gaussians are used.
  magnet F F
                    8722  records have been written to the Sort file.
  Total length of Sort file :             178609116  words.
 Evaluation of 2el integral derivatives

                      Two-electron integral gradient
                      ------------------------------

                         C #1 z     0.0000000000
                         O #2 z     0.0000000000


 C #1       0.0000000000            0.0493165424            0.0000000000
 O #2       0.0000000000           -0.0493165424            0.0000000000


 Evaluation of 2e integral derivatives required  342.93 seconds.
  contribution to Hessian
        0.0000000000        0.0000000000        0.0000000000
        0.0000000000        0.0493165424       -0.0493165424
 @CHECKOUT-I, Total execution time (CPU/WALL):      342.91/      69.25 seconds.
--executable xvdint finished with status     0 in       69.45 seconds (walltime).
 --invoking executable--
/nfs/workspaces/public/cfour_mpi/bin/xanti
 @GETMEM-I,  Allocated    3814 MB of main memory.
 CCSD MO gammas will be sorted to Mulliken order.
 @CHECKOUT-I, Total execution time (CPU/WALL):       17.11/      54.11 seconds.
--executable xanti finished with status     0 in       54.27 seconds (walltime).
 --invoking executable--
/nfs/workspaces/public/cfour_mpi/bin/xbcktrn
 @GETMEM-I,  Allocated    3814 MB of main memory.
 CCSD MO gammas will be transformed to the AO basis.
 @CHECKOUT-I, Total execution time (CPU/WALL):       70.09/      23.31 seconds.
--executable xbcktrn finished with status     0 in       23.38 seconds (walltime).
 --invoking executable--
/nfs/workspaces/public/cfour_mpi/bin/xvdint
 @GETMEM-I,  Allocated    3814 MB of main memory.
 One- and two-electron integral derivatives are calculated
 for RHF-CC/MBPT hessians and dipole derivatives.
 Spherical gaussians are used.
  magnet F F

                     Kinetic energy integral gradient
                     --------------------------------

                         C #1 z    -0.3461282799
                         O #2 z     0.3461282799


 C #1       0.0000000000            0.0000000000           -0.3461282799
 O #2       0.0000000000            0.0000000000            0.3461282799



                   Nuclear attraction integral gradient
                   ------------------------------------

                         C #1 z    11.0705818579
                         O #2 z   -11.0705818579


 C #1       0.0000000000            0.0000000000           11.0705818579
 O #2       0.0000000000            0.0000000000          -11.0705818579



                      Reorthonormalization gradient
                      -----------------------------

                         C #1 z     0.0000000000
                         O #2 z     0.0000000000


 C #1       0.0000000000            0.0000000000            0.0000000000
 O #2       0.0000000000            0.0000000000            0.0000000000



                     Kinetic energy integral Hessian
                     -------------------------------


           Symmetry 1

           C #1 z      O #2 z

 C #1 z    0.370576
 O #2 z   -0.370576    0.370576


           Symmetry 2

           C #1 x      O #2 x

 C #1 x   -0.217467
 O #2 x    0.217467   -0.217467


           Symmetry 3

           C #1 y      O #2 y

 C #1 y   -0.217467
 O #2 y    0.217467   -0.217467




           C #1 x      C #1 y      C #1 z      O #2 x      O #2 y      O #2 z

 C #1 x   -0.217467
 C #1 y    0.000000   -0.217467
 C #1 z    0.000000    0.000000    0.370576

 O #2 x    0.217467    0.000000    0.000000   -0.217467
 O #2 y    0.000000    0.217467    0.000000    0.000000   -0.217467
 O #2 z    0.000000    0.000000   -0.370576    0.000000    0.000000    0.370576




                   Nuclear attraction integral Hessian
                   -----------------------------------


           Symmetry 1

           C #1 z      O #2 z

 C #1 z   -6.480452
 O #2 z    6.480452   -6.480452


           Symmetry 2

           C #1 x      O #2 x

 C #1 x    4.948632
 O #2 x   -4.948632    4.948632


           Symmetry 3

           C #1 y      O #2 y

 C #1 y    4.948632
 O #2 y   -4.948632    4.948632




           C #1 x      C #1 y      C #1 z      O #2 x      O #2 y      O #2 z

 C #1 x    4.948632
 C #1 y    0.000000    4.948632
 C #1 z    0.000000    0.000000   -6.480452

 O #2 x   -4.948632    0.000000    0.000000    4.948632
 O #2 y    0.000000   -4.948632    0.000000    0.000000    4.948632
 O #2 z    0.000000    0.000000    6.480452    0.000000    0.000000   -6.480452




                Highest order reorthonormalization Hessian
                ------------------------------------------


           Symmetry 1

           C #1 z      O #2 z

 C #1 z    0.000000
 O #2 z    0.000000    0.000000


           Symmetry 2

           C #1 x      O #2 x

 C #1 x    0.000000
 O #2 x    0.000000    0.000000


           Symmetry 3

           C #1 y      O #2 y

 C #1 y    0.000000
 O #2 y    0.000000    0.000000




           C #1 x      C #1 y      C #1 z      O #2 x      O #2 y      O #2 z




                Electronic contributions to dipole moment
                -----------------------------------------

                               au             Debye

                    z      1.55627268      3.95565127

  Conversion factor used: 1 a.u. =   2.54174691 Debye 



   Electronic contributions to static part of dipole moment derivatives
   --------------------------------------------------------------------


                     Total dipole moment derivatives
                     -------------------------------


           Symmetry 1
                              Ez

               C #1 z    -5.71402411
               O #2 z    -8.28597589

           Symmetry 2
                              Ex

               C #1 x    -5.70275512
               O #2 x    -8.29724488

           Symmetry 3
                              Ey

               C #1 y    -5.70275512
               O #2 y    -8.29724488



                       Ex          Ey          Ez

      C #1    x   -5.702755    0.000000    0.000000
      C #1    y    0.000000   -5.702755    0.000000
      C #1    z    0.000000    0.000000   -5.714024

      O #2    x   -8.297245    0.000000    0.000000
      O #2    y    0.000000   -8.297245    0.000000
      O #2    z    0.000000    0.000000   -8.285976

 Evaluation of 1e integral derivatives required    1.92 seconds.
                    8815  records have been written to the Sort file.
  Total length of Sort file :             180513570  words.
 Evaluation of 2el integral derivatives

                      Two-electron integral gradient
                      ------------------------------

                         C #1 z    -6.1007737480
                         O #2 z     6.1007737480


 C #1       0.0000000000            0.0000000000           -6.1007737480
 O #2       0.0000000000            0.0000000000            6.1007737480


 Evaluation of 2e integral derivatives required  680.49 seconds.

                            Molecular gradient
                            ------------------

                         C #1 z     0.4751108942
                         O #2 z    -0.4751108942


 C #1       0.0000000000            0.0000000000            0.4751108942
 O #2       0.0000000000            0.0000000000           -0.4751108942


  Molecular gradient norm 0.672E+00

                            Molecular hessian
                            -----------------


           Symmetry 1

           C #1 z      O #2 z

 C #1 z    5.531502
 O #2 z   -5.531502    5.531502


           Symmetry 2

           C #1 x      O #2 x

 C #1 x   12.613699
 O #2 x  -12.613699   12.613699


           Symmetry 3

           C #1 y      O #2 y

 C #1 y   12.613699
 O #2 y  -12.613699   12.613699




           C #1 x      C #1 y      C #1 z      O #2 x      O #2 y      O #2 z

 C #1 x   12.613699
 C #1 y    0.000000   12.613699
 C #1 z    0.000000    0.000000    5.531502

 O #2 x  -12.613699    0.000000    0.000000   12.613699
 O #2 y    0.000000  -12.613699    0.000000    0.000000   12.613699
 O #2 z    0.000000    0.000000   -5.531502    0.000000    0.000000    5.531502




                           Total dipole moment
                           -------------------

                               au             Debye

                    z      0.61114244      1.55336942

  Conversion factor used: 1 a.u. =   2.54174691 Debye 



                     Total dipole moment derivatives
                     -------------------------------


           Symmetry 1
                              Ez

               C #1 z     0.28979939
               O #2 z    -0.28979939

           Symmetry 2
                              Ex

               C #1 x     0.19644511
               O #2 x    -0.19644511

           Symmetry 3
                              Ey

               C #1 y     0.19644511
               O #2 y    -0.19644511



                       Ex          Ey          Ez

      C #1    x    0.196445    0.000000    0.000000
      C #1    y    0.000000    0.196445    0.000000
      C #1    z    0.000000    0.000000    0.289799

      O #2    x   -0.196445    0.000000    0.000000
      O #2    y    0.000000   -0.196445    0.000000
      O #2    z    0.000000    0.000000   -0.289799

 @CHECKOUT-I, Total execution time (CPU/WALL):      682.39/     122.82 seconds.
--executable xvdint finished with status     0 in      123.11 seconds (walltime).
 --invoking executable--
/nfs/workspaces/public/cfour_mpi/bin/xjoda
  @GTFLGS-I, Hessian will be transformed to curvilinear coordinates.
  @GTFLGS-I, Hessian will be transformed to curvilinear coordinates.
  igrd and ihes are                      0                     1
  gradient from JOBARC 
   0.000000000000000   0.000000000000000   0.475110894166535
   0.000000000000000   0.000000000000000  -0.475110894166535
 
  @PROJFCM-I, Projecting force constant matrix onto totally symmetric subspace.
  Largest difference between matrix elements of symmetrized
  and unsymmetrized FCM :     0.1243449788E-12.
  read isotopes from ZMAT file 
 
  Summary of diagonal Born-Oppenheimer correction at the correlated level
  The total diagonal Born-Oppenheimer correction (DBOC) is:      0.0040013519 a.u.
  The total diagonal Born-Oppenheimer correction (DBOC) is:        878.195223 cm-1
  The total diagonal Born-Oppenheimer correction (DBOC) is:            10.506 kJ/mole
  hellooooooo 
  readis is  F
 
 @CHECKOUT-I, Total execution time (CPU/WALL):        0.01/       0.06 seconds.
--executable xjoda finished with status     0 in        0.13 seconds (walltime).
  The final electronic energy is      -112.990468028541613 a.u. 
  This computation required                         4196.01 seconds (walltime).
