 --invoking executable--
/nfs/workspaces/public/cfour_mpi/bin/xjoda


   *************************************************************************
         <<<     CCCCCC     CCCCCC   |||     CCCCCC     CCCCCC   >>>
       <<<      CCC        CCC       |||    CCC        CCC         >>>
      <<<      CCC        CCC        |||   CCC        CCC            >>>
    <<<        CCC        CCC        |||   CCC        CCC              >>>
      <<<      CCC        CCC        |||   CCC        CCC            >>>
       <<<      CCC        CCC       |||    CCC        CCC         >>>
         <<<     CCCCCC     CCCCCC   |||     CCCCCC     CCCCCC   >>>
   *************************************************************************

     ****************************************************************
     * CFOUR Coupled-Cluster techniques for Computational Chemistry *
     ****************************************************************
 

   Department of Chemistry                Institut fuer Physikalische Chemie
   University of Florida                  Universitaet Mainz
   Gainesville, FL 32611, USA             D-55099 Mainz, Germany

   Department of Chemistry                Fakultaet fuer Chemie und Biowiss.
   Johns Hopkins University               Karlsruher Institut fuer Technologie
   Baltimore, MD 21218, USA               D-76131 Karlsruhe, Germany

   Department of Chemistry                Department of Physical Chemistry
   Southern Methodist University          Eotvos Lorand University
   Dallas, TX 75275, USA                  H-1053 Budapest, Hungary

 
                       Version 2.1
 
                     vincent.theory.phys.ucl.ac.uk                     
                     Fri 28 Feb 04:16:49 GMT 2025                      
                     integer*8 version is running
 
********************************************************************************
*                          Input from ZMAT file                                *
********************************************************************************
Carbon Monoxide DBOC calculation                                                
C                                                                               
O 1 r                                                                           
                                                                                
r=1.5206896551724138                                                            
                                                                                
                                                                                
*CFOUR(CALC=CCSD,BASIS=AUG-PCVQZ,SCF_CONV=10                                    
CC_CONV=14,DBOC=ON,MEMORY=500000000                                             
ZFIELD=-200)                                                                    
                                                                                
%isotopes                                                                       
13                                                                              
16                                                                              
********************************************************************************
  @GTFLGS-I, Hessian will be transformed to curvilinear coordinates.
    -------------------------------------------------------------------
                    CFOUR Control Parameters 
    -------------------------------------------------------------------
        External           Internal           Value            Units
          Name               Name
    -------------------------------------------------------------------
       ABCDTYPE             IABCDT         STANDARD    [  0]    ***   
       ANHARMONIC           IANHAR         OFF         [  0]    ***   
       ANH_ALGORIT          IANALG         STANDARD    [  0]    ***   
       ANH_DERIVAT          IANDER         SECOND      [  1]    ***   
       ANH_MODE             ANHMOD         VIBRATION   [  0]    ***   
       ANH_STEPSIZ          ICUBST             50000          x 10-6  
       ANH_SYMMETR          IANHSM         ABELIAN     [  0]    ***   
       AO_LADDERS           IAOLAD         SINGLEPASS  [  1]    ***   
       AV_SCF               IAVSCF         OFF         [  0]    ***   
       BASIS                IBASIS         AUG-PCVQZ   [ 52]    ***   
       BOTHVECTORS          BOTHVC         OFF         [  0]    ***   
       BOX_POTENT           IPIAB          OFF         [  0]    ***   
       BREIT                IBREIT         OFF         [  0]    ***   
       BRUCK_CONV           IBRTOL          10D-  4             ***   
       BRUECKNER            IBRKNR         OFF         [  0]    ***   
       BUFFERSIZE           IBUFFS              4096            ***   
       CACHE_RECS           ICHREC             10               ***   
       CALCLEVEL            ICLLVL         CCSD        [ 10]    ***   
       CCORBOPT             ICCORB         OFF         [  0]  x 0.01  
       CC_CONV              ICCCNV          10D- 14             ***   
       CC_EXPORDER          ICCEOR              5               ***   
       CC_EXTRAPOL          ICCEXT         DIIS        [  1]    ***   
       CC_GUESS             ICCGES         MP2         [  0]    ***   
       CC_MAXCYC            ICCCYC            100              cycles 
       CC_PROGRAM           ICCPRO         VCC         [  0]    ***   
       CHARGE               ICHRGE              0               ***   
       CHOLESKY             ICHOLE         OFF         [  0]    ***   
       CIS_CONV             ICISTL              5               ***   
       COMM_SIZE            IPSIZE            ***               ***   
       CONSTANT             ICONST         OLD         [  1]    ***   
       CONTINUUM            ICONTU         NONE        [  0]    ***   
       CONTRACTION          ICNTYP         GENERAL     [  1]    ***   
       COORDINATES          ICOORD         INTERNAL    [  0]    ***   
       CPHF_CONVER          ICPHFT          10D- 16             ***   
       CPHF_MAXCYC          ICPHFC             64              cycles 
       CUBIC                ICUBIC         OFF         [  0]    ***   
       CURVILINEAR          ICURVY         ON          [  1]    ***   
       DBOC                 IDBOC          ON          [  1]    ***   
       DCT                  IDCT           OFF         [  0]    ***   
       DERIV_LEV            IDRLVL         SECOND      [  2]    ***   
       DEVMEM_SIZE          IDVMEM          50000000           MByte  
       DIAG_MRCC            IEOMST          10D-  0             ***   
       DIFF_TYPE            IDIFTY         RELAXED     [  0]    ***   
       DIRECT               IDIRCT         OFF         [  0]    ***   
       DROPMO               IDRPMO      NONE         
       ECP                  IECP           OFF         [  0]    ***   
       EIGENVECTOR          IVEC                1               ***   
       EL_ANHARM            IELANH         OFF         [  0]    ***   
       EOMFOLLOW            IEOMSR         ENERGY      [  0]    ***   
       EOMIP                IEOMIP         OFF         [  0]    ***   
       EOMLEVEL             HBARFM         SAME        [  0]    ***   
       EOM_MRCC             IMRCCE         NEW         [  1]    ***   
       EOM_NONIT            EOMNON         OFF         [  0]    ***   
       EOM_NSING            IEOMSI          10D-  0             ***   
       EOM_NSTATES          IMRCCD         DAVIDSON    [  0]    ***   
       EOM_NTRIP            IEOMTR          10D-  0             ***   
       EOM_ORDER            IEXORD         ENERGY      [  0]    ***   
       EOM_PROPSTA          IEOMST              0               ***   
       ESTATE_CONV          IEXTOL          10D-  5             ***   
       ESTATE_DIAG          IEXDIG         ITERATIVE   [  0]    ***   
       ESTATE_LOCK          IESLOC         ON          [  1]    ***   
       ESTATE_MAXC          IEXMXC             40               ***   
       ESTATE_PROP          IEXPRP         OFF         [  0]    ***   
       EVAL_HESS            IRECAL              0            # of cyc.
       EXCITATION           IEXCIT              0               ***   
       EXCITE               IEXCIT         NONE        [  0]    ***   
       EXTERN_POT           IEXPOT         OFF         [  0]    ***   
       FCGRADNEW            IFCGNW         OFF         [  0]    ***   
       FC_FIELD             IFINFC              0             x 10-6  
       FD_CALTYPE           IFDCAL         GRADONLY    [  0]    ***   
       FD_PROJECT           IFDPRJ         OFF         [  1]    ***   
       FD_STEPSIZE          IDISFD              0            10-4 bohr
       FD_USEGROUP          IFDGRP         FULL        [  0]    ***   
       FILE_RECSIZ          IFLREC              4096           words  
       FINITE_PERT          IFIPER              0             x 10-6  
       FIXGEOM              IFIXGM         OFF         [  0]    ***   
       FOCK                 IFOCK          AO          [  1]    ***   
       FREQ_ALGORI          IVIALG         STANDARD    [  0]    ***   
       FROZEN_CORE          IFROCO         OFF         [  0]    ***   
       GAMMA_ABCD           IGABCD         STORE       [  0]    ***   
       GAMMA_ABCI           IGABCI         STORE       [  0]    ***   
       GENBAS_1             IGNBS1              0               ***   
       GENBAS_2             IGNBS2              0               ***   
       GENBAS_3             IGNBS3              0               ***   
       GENBAS_4             IGNBS4              0               ***   
       GEO_CONV             ICONTL              5              H/bohr 
       GEO_MAXCYC           IOPTCY             50               ***   
       GEO_MAXSTEP          IMXSTP            300            millibohr
       GEO_METHOD           INR            SINGLE_POINT[  5]    ***   
       GIAO                 IGIAO          OFF         [  1]    ***   
       GIMIC                IGIMIC         OFF         [  0]    ***   
       GRID                 IGRID          OFF         [  0]    ***   
       GRID_ALGO            IGALGO         SERIAL      [  0]    ***   
       GUESS                IGUESS         MOREAD      [  0]    ***   
       HBAR                 IHBAR          OFF         [  0]    ***   
       HESS_TYPE            IHESTP         SCF         [  0]    ***   
       HF2_FILE             IHF2Fl         USE         [  1]    ***   
       HFSTABILITY          ISTABL         OFF         [  0]    ***   
       INCORE               INCORE         OFF         [  0]    ***   
       INPUT_MRCC           IMRCC          ON          [  1]    ***   
       INTEGRALS            INTTYP         VMOL        [  1]    ***   
       JODA_PRINT           IJPRNT              0               ***   
       KEYWORD_OUT          IDMPKW         NO          [  0]    ***   
       LINDEP_TOL           ILINDP              8               ***   
       LINEQ_CONV           IZTACN          10D-  7           cycles  
       LINEQ_EXPOR          ILMAXD              5               ***   
       LINEQ_MAXCY          ILMAXC            100               ***   
       LINEQ_TYPE           ILTYPE         DIIS        [  1]    ***   
       LOCK_ORBOCC          ILOCOC         OFF         [  0]    ***   
       MEMORY_SIZE          IMEMSZ         500000000           words  
       MEM_UNIT             IMEMU          INTEGERWORDS[  0]    ***   
       MRCC                 IMRCCC         OFF         [  0]    ***   
       MULTIPLICTY          IMULTP              1               ***   
       NACOUPLING           IVCOUP         OFF         [  0]    ***   
       NEGEVAL              IDIE           ABORT       [  0]    ***   
       NEWNORM              INEWNO         OFF         [  0]    ***   
       NON-HF               INONHF         OFF         [  0]    ***   
       NTOP_TAMP            ITOPT2             15               ***   
       NUC_MODEL            INUCMO         POINT       [  0]    ***   
       OCCUPATION           IOCCU   ESTIMATED BY SCF 
       OPEN-SHELL           IOPEN          SPIN-ORBITAL[  0]    ***   
       OPTVIB               IOPTVB         OFF         [  0]    ***   
       ORBITALS             IORBTP         STANDARD    [  0]    ***   
       PARALLEL             IPARAL         ON          [  1]    ***   
       PARA_INT             IPINTS         ON          [  1]    ***   
       PARA_PRINT           IPPRIN              0               ***   
       PERT_ORB             IPTORB         STANDARD    [  0]    ***   
       POINTS               IGRDFD              0               ***   
       PRINT                IPRNT               0               ***   
       PROPS                IPROPS         OFF         [  0]    ***   
       PROP_INTEGR          IINTYP         INTERNAL    [  0]    ***   
       PSI                  IPSI           OFF         [  0]    ***   
       QC_ALG               IQCALG         FLM         [  0]    ***   
       QC_LINALG            IQCLIN         TRIDIAG     [  2]    ***   
       QC_MAXCYC            IQCMAX          10D-100           cycles  
       QC_MAXSCFCY          IQCMSC          10D- 15           cycles  
       QC_RTRUST            IQCRTR          10D-  0           x 10-3  
       QC_SKIPSCF           IQCSKI         OFF         [  0]    ***   
       QC_START             IQCSTA          10D-  1             ***   
       QRHFGUESS            IQGUES         OFF         [  0]    ***   
       QUARTIC              IQUART         OFF         [  0]    ***   
       RAMAN_INT            IRAMIN         OFF         [  0]    ***   
       RAMAN_ORB            IRAMRE         UNRELAXED   [  0]    ***   
       RDO                  IRDOFM         ON          [  1]    ***   
       REDUCE_REPR          REDREP         Ir          [  0]    ***   
       REFERENCE            IREFNC         RHF         [  0]    ***   
       RELATIVIST           IRELAT         OFF         [  0]    ***   
       RELAX_DENS           IRDENS         ON          [  1]    ***   
       RESET_FLAGS          IRESET         OFF         [  0]    ***   
       RESTART_CC           ICCRES         OFF         [  0]    ***   
       ROT_EVEC             ROTVEC              0               ***   
       SAVE_INTS            ISVINT         OFF         [  0]    ***   
       SCALE_ON             ISTCRT              0               ***   
       SCF_CONV             ISCFCV          10D- 10             ***   
       SCF_DAMPING          IDAMP               0             x 10-3  
       SCF_EXPORDE          IRPPOR              6               ***   
       SCF_EXPSTAR          IRPPLS              8               ***   
       SCF_EXTRAPO          IRPP           ON          [  1]    ***   
       SCF_MAXCYC           ISCFCY            150              cycles 
       SCF_NOSTOP           ISCFST         OFF         [  0]    ***   
       SCF_PRINT            ISCFPR              0               ***   
       SCF_PROG             ISCFPR         SCF         [  0]    ***   
       SD_FIELD             IFINSD              0             x 10-6  
       SOPERT               IPERSO         OFF         [  0]    ***   
       SPHERICAL            IDFGHI         ON          [  1]    ***   
       SPINORBIT            ISOCAL         OFF         [  0]    ***   
       SPINROTATIO          ISRCON         OFF         [  0]    ***   
       SPIN_FLIP            ISPFLP         OFF         [  0]    ***   
       SPIN_ORBIT           ISPORB         OFF         [  0]    ***   
       SPIN_SCAL            ISCSMP         OFF         [  0]    ***   
       STEEPSCALE           ISTPSC              1000          x 10-3  
       SUBGROUP             ISUBGP         DEFAULT     [  0]    ***   
       SUBGRPAXIS           ISBXYZ         X           [  0]    ***   
       SYMMETRY             ISYM           ON          [  0]    ***   
       SYM_CHECK            ISYMCK         OVERRIDE    [  1]    ***   
       T3_EXTRAPOL          IT3EXT         OFF         [  0]    ***   
       T4_EXTRAPOL          IT4EXP         OFF         [  0]    ***   
       TAMP_SUM             IEVERY              5               ***   
       TESTSUITE            ITESTS         OFF         [  0]    ***   
       THERMOCH             ITHERM         OFF         [  0]    ***   
       TOL_CHOLESK          ITOLCH          10D-  4             ***   
       TRANGRAD             IRESRM         OFF         [  0]    ***   
       TRANS_INV            ITRAIN         IGNORE      [  1]    ***   
       TREAT_PERT           ITREAT         SIMULTANEOUS[  0]    ***   
       TRIP_ALGORI          ITRALG         NORMAL      [  0]    ***   
       UIJ_THRESHO          IUIJTH              1               ***   
       UNITS                IUNITS         ANGSTROM    [  0]    ***   
       UNOS                 IUNOS          OFF         [  0]    ***   
       UPDATE_HESS          IHUPDT         ON          [  1]    ***   
       VIBPHASE             ISETPH         STANDARD    [  0]    ***   
       VIBRATION            IVIB           ANALYTIC    [  1]    ***   
       VIB_ALGORIT          IGEALG         STANDARD    [  0]    ***   
       VNATORB              IVNORB         OFF         [  0]    ***   
       VTRAN                IVTRAN         FULL/PARTIAL[  0]    ***   
       XFIELD               IXEFLD              0             x 10-6  
       XFORM_TOL            IXFTOL          10D- 11             ***   
       YFIELD               IYEFLD              0             x 10-6  
       ZFIELD               IZEFLD            ***             x 10-6  
       ZSCALE_EXP           IZEXPS         OFF         [  0]    ***   
    -------------------------------------------------------------------
   2 entries found in Z-matrix 
   Job Title : Carbon Monoxide DBOC calculation                                                
   There are  1 unique internal coordinates.
   Of these,  0 will be optimized.
   User supplied Z-matrix: 
--------------------------------------------------------------------------------
       SYMBOL    BOND      LENGTH    ANGLE     ANGLE     DIHED     ANGLE
                  TO      (ANGST)    WRT      (DEG)      WRT      (DEG)
--------------------------------------------------------------------------------
        C    
        O          1         r    
                  *Initial values for internal coordinates* 
                      Name             Value
                        r               1.5206896552
--------------------------------------------------------------------------------
  read isotopes from ZMAT file 
   Rotational constants (in cm-1): 
          1.0163659645             1.0163659645
   Rotational constants (in MHz): 
      30469.8893417896         30469.8893417896
********************************************************************************
   The full molecular point group is CXv .
   The largest Abelian subgroup of the full molecular point group is C2v .
   The computational point group is C2v .
********************************************************************************
--------------------------------------------------------------------------------
   Analysis of internal coordinates specified by Z-matrix 
--------------------------------------------------------------------------------
   *The nuclear repulsion energy is   16.703277170068027 a.u.
   *There is   1 degree of freedom within the tot. symm. molecular subspace.
   *Z-matrix requests optimization of   0 coordinates.
   *The optimization is constrained.
   *The following   1 parameters can have non-zero 
    derivatives within the totally symmetric subspace:
             r    [ 1]
   *The following   0 parameters are to be optimized:

   *The following coordinates must be varied in an  unconstrained optimization.
             r    [ 1]
--------------------------------------------------------------------------------


 ----------------------------------------------------------------
         Coordinates used in calculation (QCOMP) 
 ----------------------------------------------------------------
 Z-matrix   Atomic            Coordinates (in bohr)
  Symbol    Number           X              Y              Z
 ----------------------------------------------------------------
     C         6        -0.00000000     0.00000000     1.58507346
     O         8         0.00000000     0.00000000    -1.28861411
 ----------------------------------------------------------------
 
   Interatomic distance matrix (Angstroms) 
 
                 C             O    
                [ 1]        [ 2]
  C    [ 1]     0.00000
  O    [ 2]     1.52069     0.00000
 rotcon2
   Rotational constants (in cm-1): 
          1.0163659645             0.0000000000
   Rotational constants (in MHz): 
      30469.8893417896             0.0000000000
  ECPDATA file not present.   Using default ECPDATA. 
  @GTFLGS-I, Hessian will be transformed to curvilinear coordinates.
  There are  218 basis functions.
 @CHECKOUT-I, Total execution time (CPU/WALL):        0.26/       0.34 seconds.
--executable xjoda finished with status     0 in        0.39 seconds (walltime).
 --invoking executable--
/nfs/workspaces/public/cfour_mpi/bin/xvmol
 SERIAL VERSION OF MOLECULE STARTED
********************************************************************************
                    INPUT FROM MOL FILE
********************************************************************************
INTGRL        1    0    1    0    0    0    0    0    0                         
         *** CFOUR Program System (Release V0.1) ***                            
Carbon Monoxide DBOC calculation                                                
    2    2 X  Y       0.10E-08              0    0                              
   9999.00      3.00                                                            
          6.00000000    1    5    1    1    1    1    1                         
C #1  -0.000000000000000   0.000000000000000   1.585073462488100                
   16    9                                                                      
   33980.0000000000       9.100000000000000E-005 -1.900000000000000E-005        
  0.000000000000000E+000  0.000000000000000E+000  0.000000000000000E+000        
  0.000000000000000E+000  0.000000000000000E+000  0.000000000000000E+000        
  0.000000000000000E+000                                                        
   5089.00000000000       7.040000000000000E-004 -1.510000000000000E-004        
  0.000000000000000E+000  0.000000000000000E+000  0.000000000000000E+000        
  0.000000000000000E+000  0.000000000000000E+000  0.000000000000000E+000        
  0.000000000000000E+000                                                        
   1157.00000000000       3.693000000000000E-003 -7.850000000000000E-004        
  0.000000000000000E+000  0.000000000000000E+000  0.000000000000000E+000        
  0.000000000000000E+000  0.000000000000000E+000  0.000000000000000E+000        
  0.000000000000000E+000                                                        
   326.600000000000       1.536000000000000E-002 -3.324000000000000E-003        
  0.000000000000000E+000  0.000000000000000E+000  0.000000000000000E+000        
  0.000000000000000E+000  0.000000000000000E+000  0.000000000000000E+000        
  0.000000000000000E+000                                                        
   106.100000000000       5.292900000000000E-002 -1.151200000000000E-002        
  0.000000000000000E+000  0.000000000000000E+000  0.000000000000000E+000        
  0.000000000000000E+000  0.000000000000000E+000  0.000000000000000E+000        
  0.000000000000000E+000                                                        
   38.1100000000000       0.147043000000000      -3.416000000000000E-002        
  0.000000000000000E+000  0.000000000000000E+000  0.000000000000000E+000        
  0.000000000000000E+000  0.000000000000000E+000  0.000000000000000E+000        
  0.000000000000000E+000                                                        
   14.7500000000000       0.305631000000000      -7.717300000000001E-002        
  0.000000000000000E+000  0.000000000000000E+000  0.000000000000000E+000        
  0.000000000000000E+000  0.000000000000000E+000  0.000000000000000E+000        
  0.000000000000000E+000                                                        
   6.03500000000000       0.399345000000000      -0.141493000000000             
  0.000000000000000E+000  0.000000000000000E+000  0.000000000000000E+000        
  0.000000000000000E+000  0.000000000000000E+000  0.000000000000000E+000        
  0.000000000000000E+000                                                        
   2.53000000000000       0.217051000000000      -0.118019000000000             
  0.000000000000000E+000  0.000000000000000E+000  0.000000000000000E+000        
  0.000000000000000E+000  0.000000000000000E+000  0.000000000000000E+000        
  0.000000000000000E+000                                                        
  0.735500000000000       1.589400000000000E-002  0.273806000000000             
   1.00000000000000       0.000000000000000E+000  0.000000000000000E+000        
  0.000000000000000E+000  0.000000000000000E+000  0.000000000000000E+000        
  0.000000000000000E+000                                                        
  0.290500000000000      -3.084000000000000E-003  0.586510000000000             
  0.000000000000000E+000   1.00000000000000       0.000000000000000E+000        
  0.000000000000000E+000  0.000000000000000E+000  0.000000000000000E+000        
  0.000000000000000E+000                                                        
  0.111100000000000       9.779999999999999E-004  0.285430000000000             
  0.000000000000000E+000  0.000000000000000E+000   1.00000000000000             
  0.000000000000000E+000  0.000000000000000E+000  0.000000000000000E+000        
  0.000000000000000E+000                                                        
   7.21600000000000       0.000000000000000E+000  0.000000000000000E+000        
  0.000000000000000E+000  0.000000000000000E+000  0.000000000000000E+000        
   1.00000000000000       0.000000000000000E+000  0.000000000000000E+000        
  0.000000000000000E+000                                                        
   19.5700000000000       0.000000000000000E+000  0.000000000000000E+000        
  0.000000000000000E+000  0.000000000000000E+000  0.000000000000000E+000        
  0.000000000000000E+000   1.00000000000000       0.000000000000000E+000        
  0.000000000000000E+000                                                        
   53.0730000000000       0.000000000000000E+000  0.000000000000000E+000        
  0.000000000000000E+000  0.000000000000000E+000  0.000000000000000E+000        
  0.000000000000000E+000  0.000000000000000E+000   1.00000000000000             
  0.000000000000000E+000                                                        
  4.145000000000000E-002  0.000000000000000E+000  0.000000000000000E+000        
  0.000000000000000E+000  0.000000000000000E+000  0.000000000000000E+000        
  0.000000000000000E+000  0.000000000000000E+000  0.000000000000000E+000        
   1.00000000000000                                                             
   10    8                                                                      
   34.5100000000000       5.378000000000000E-003  0.000000000000000E+000        
  0.000000000000000E+000  0.000000000000000E+000  0.000000000000000E+000        
  0.000000000000000E+000  0.000000000000000E+000  0.000000000000000E+000        
   7.91500000000000       3.613200000000000E-002  0.000000000000000E+000        
  0.000000000000000E+000  0.000000000000000E+000  0.000000000000000E+000        
  0.000000000000000E+000  0.000000000000000E+000  0.000000000000000E+000        
   2.36800000000000       0.142493000000000       0.000000000000000E+000        
  0.000000000000000E+000  0.000000000000000E+000  0.000000000000000E+000        
  0.000000000000000E+000  0.000000000000000E+000  0.000000000000000E+000        
  0.813200000000000       0.342150000000000        1.00000000000000             
  0.000000000000000E+000  0.000000000000000E+000  0.000000000000000E+000        
  0.000000000000000E+000  0.000000000000000E+000  0.000000000000000E+000        
  0.289000000000000       0.463864000000000       0.000000000000000E+000        
   1.00000000000000       0.000000000000000E+000  0.000000000000000E+000        
  0.000000000000000E+000  0.000000000000000E+000  0.000000000000000E+000        
  0.100700000000000       0.250028000000000       0.000000000000000E+000        
  0.000000000000000E+000   1.00000000000000       0.000000000000000E+000        
  0.000000000000000E+000  0.000000000000000E+000  0.000000000000000E+000        
   8.18200000000000       0.000000000000000E+000  0.000000000000000E+000        
  0.000000000000000E+000  0.000000000000000E+000   1.00000000000000             
  0.000000000000000E+000  0.000000000000000E+000  0.000000000000000E+000        
   24.1860000000000       0.000000000000000E+000  0.000000000000000E+000        
  0.000000000000000E+000  0.000000000000000E+000  0.000000000000000E+000        
   1.00000000000000       0.000000000000000E+000  0.000000000000000E+000        
   71.4940000000000       0.000000000000000E+000  0.000000000000000E+000        
  0.000000000000000E+000  0.000000000000000E+000  0.000000000000000E+000        
  0.000000000000000E+000   1.00000000000000       0.000000000000000E+000        
  3.218000000000000E-002  0.000000000000000E+000  0.000000000000000E+000        
  0.000000000000000E+000  0.000000000000000E+000  0.000000000000000E+000        
  0.000000000000000E+000  0.000000000000000E+000   1.00000000000000             
    6    6                                                                      
   1.84800000000000        1.00000000000000       0.000000000000000E+000        
  0.000000000000000E+000  0.000000000000000E+000  0.000000000000000E+000        
  0.000000000000000E+000                                                        
  0.649000000000000       0.000000000000000E+000   1.00000000000000             
  0.000000000000000E+000  0.000000000000000E+000  0.000000000000000E+000        
  0.000000000000000E+000                                                        
  0.228000000000000       0.000000000000000E+000  0.000000000000000E+000        
   1.00000000000000       0.000000000000000E+000  0.000000000000000E+000        
  0.000000000000000E+000                                                        
   8.65600000000000       0.000000000000000E+000  0.000000000000000E+000        
  0.000000000000000E+000   1.00000000000000       0.000000000000000E+000        
  0.000000000000000E+000                                                        
   33.2130000000000       0.000000000000000E+000  0.000000000000000E+000        
  0.000000000000000E+000  0.000000000000000E+000   1.00000000000000             
  0.000000000000000E+000                                                        
  7.660000000000000E-002  0.000000000000000E+000  0.000000000000000E+000        
  0.000000000000000E+000  0.000000000000000E+000  0.000000000000000E+000        
   1.00000000000000                                                             
    4    4                                                                      
   1.41900000000000        1.00000000000000       0.000000000000000E+000        
  0.000000000000000E+000  0.000000000000000E+000                                
  0.485000000000000       0.000000000000000E+000   1.00000000000000             
  0.000000000000000E+000  0.000000000000000E+000                                
   24.6940000000000       0.000000000000000E+000  0.000000000000000E+000        
   1.00000000000000       0.000000000000000E+000                                
  0.187000000000000       0.000000000000000E+000  0.000000000000000E+000        
  0.000000000000000E+000   1.00000000000000                                     
    2    2                                                                      
   1.01100000000000        1.00000000000000       0.000000000000000E+000        
  0.424000000000000       0.000000000000000E+000   1.00000000000000             
          8.00000000    1    5    1    1    1    1    1                         
O #2   0.000000000000000   0.000000000000000  -1.288614108596162                
   16    9                                                                      
   61420.0000000000       9.000000000000001E-005 -2.000000000000000E-005        
  0.000000000000000E+000  0.000000000000000E+000  0.000000000000000E+000        
  0.000000000000000E+000  0.000000000000000E+000  0.000000000000000E+000        
  0.000000000000000E+000                                                        
   9199.00000000000       6.980000000000001E-004 -1.590000000000000E-004        
  0.000000000000000E+000  0.000000000000000E+000  0.000000000000000E+000        
  0.000000000000000E+000  0.000000000000000E+000  0.000000000000000E+000        
  0.000000000000000E+000                                                        
   2091.00000000000       3.664000000000000E-003 -8.290000000000000E-004        
  0.000000000000000E+000  0.000000000000000E+000  0.000000000000000E+000        
  0.000000000000000E+000  0.000000000000000E+000  0.000000000000000E+000        
  0.000000000000000E+000                                                        
   590.900000000000       1.521800000000000E-002 -3.508000000000000E-003        
  0.000000000000000E+000  0.000000000000000E+000  0.000000000000000E+000        
  0.000000000000000E+000  0.000000000000000E+000  0.000000000000000E+000        
  0.000000000000000E+000                                                        
   192.300000000000       5.242300000000000E-002 -1.215600000000000E-002        
  0.000000000000000E+000  0.000000000000000E+000  0.000000000000000E+000        
  0.000000000000000E+000  0.000000000000000E+000  0.000000000000000E+000        
  0.000000000000000E+000                                                        
   69.3200000000000       0.145921000000000      -3.626100000000000E-002        
  0.000000000000000E+000  0.000000000000000E+000  0.000000000000000E+000        
  0.000000000000000E+000  0.000000000000000E+000  0.000000000000000E+000        
  0.000000000000000E+000                                                        
   26.9700000000000       0.305258000000000      -8.299200000000000E-002        
  0.000000000000000E+000  0.000000000000000E+000  0.000000000000000E+000        
  0.000000000000000E+000  0.000000000000000E+000  0.000000000000000E+000        
  0.000000000000000E+000                                                        
   11.1000000000000       0.398508000000000      -0.152090000000000             
  0.000000000000000E+000  0.000000000000000E+000  0.000000000000000E+000        
  0.000000000000000E+000  0.000000000000000E+000  0.000000000000000E+000        
  0.000000000000000E+000                                                        
   4.68200000000000       0.216980000000000      -0.115331000000000             
  0.000000000000000E+000  0.000000000000000E+000  0.000000000000000E+000        
  0.000000000000000E+000  0.000000000000000E+000  0.000000000000000E+000        
  0.000000000000000E+000                                                        
   1.42800000000000       1.759400000000000E-002  0.288979000000000             
   1.00000000000000       0.000000000000000E+000  0.000000000000000E+000        
  0.000000000000000E+000  0.000000000000000E+000  0.000000000000000E+000        
  0.000000000000000E+000                                                        
  0.554700000000000      -2.502000000000000E-003  0.586128000000000             
  0.000000000000000E+000   1.00000000000000       0.000000000000000E+000        
  0.000000000000000E+000  0.000000000000000E+000  0.000000000000000E+000        
  0.000000000000000E+000                                                        
  0.206700000000000       9.540000000000000E-004  0.277624000000000             
  0.000000000000000E+000  0.000000000000000E+000   1.00000000000000             
  0.000000000000000E+000  0.000000000000000E+000  0.000000000000000E+000        
  0.000000000000000E+000                                                        
   12.9740000000000       0.000000000000000E+000  0.000000000000000E+000        
  0.000000000000000E+000  0.000000000000000E+000  0.000000000000000E+000        
   1.00000000000000       0.000000000000000E+000  0.000000000000000E+000        
  0.000000000000000E+000                                                        
   34.9000000000000       0.000000000000000E+000  0.000000000000000E+000        
  0.000000000000000E+000  0.000000000000000E+000  0.000000000000000E+000        
  0.000000000000000E+000   1.00000000000000       0.000000000000000E+000        
  0.000000000000000E+000                                                        
   93.8810000000000       0.000000000000000E+000  0.000000000000000E+000        
  0.000000000000000E+000  0.000000000000000E+000  0.000000000000000E+000        
  0.000000000000000E+000  0.000000000000000E+000   1.00000000000000             
  0.000000000000000E+000                                                        
  6.959000000000000E-002  0.000000000000000E+000  0.000000000000000E+000        
  0.000000000000000E+000  0.000000000000000E+000  0.000000000000000E+000        
  0.000000000000000E+000  0.000000000000000E+000  0.000000000000000E+000        
   1.00000000000000                                                             
   10    8                                                                      
   63.4200000000000       6.044000000000000E-003  0.000000000000000E+000        
  0.000000000000000E+000  0.000000000000000E+000  0.000000000000000E+000        
  0.000000000000000E+000  0.000000000000000E+000  0.000000000000000E+000        
   14.6600000000000       4.179900000000000E-002  0.000000000000000E+000        
  0.000000000000000E+000  0.000000000000000E+000  0.000000000000000E+000        
  0.000000000000000E+000  0.000000000000000E+000  0.000000000000000E+000        
   4.45900000000000       0.161143000000000       0.000000000000000E+000        
  0.000000000000000E+000  0.000000000000000E+000  0.000000000000000E+000        
  0.000000000000000E+000  0.000000000000000E+000  0.000000000000000E+000        
   1.53100000000000       0.356731000000000        1.00000000000000             
  0.000000000000000E+000  0.000000000000000E+000  0.000000000000000E+000        
  0.000000000000000E+000  0.000000000000000E+000  0.000000000000000E+000        
  0.530200000000000       0.448309000000000       0.000000000000000E+000        
   1.00000000000000       0.000000000000000E+000  0.000000000000000E+000        
  0.000000000000000E+000  0.000000000000000E+000  0.000000000000000E+000        
  0.175000000000000       0.244940000000000       0.000000000000000E+000        
  0.000000000000000E+000   1.00000000000000       0.000000000000000E+000        
  0.000000000000000E+000  0.000000000000000E+000  0.000000000000000E+000        
   14.4750000000000       0.000000000000000E+000  0.000000000000000E+000        
  0.000000000000000E+000  0.000000000000000E+000   1.00000000000000             
  0.000000000000000E+000  0.000000000000000E+000  0.000000000000000E+000        
   42.7300000000000       0.000000000000000E+000  0.000000000000000E+000        
  0.000000000000000E+000  0.000000000000000E+000  0.000000000000000E+000        
   1.00000000000000       0.000000000000000E+000  0.000000000000000E+000        
   126.140000000000       0.000000000000000E+000  0.000000000000000E+000        
  0.000000000000000E+000  0.000000000000000E+000  0.000000000000000E+000        
  0.000000000000000E+000   1.00000000000000       0.000000000000000E+000        
  5.348000000000000E-002  0.000000000000000E+000  0.000000000000000E+000        
  0.000000000000000E+000  0.000000000000000E+000  0.000000000000000E+000        
  0.000000000000000E+000  0.000000000000000E+000   1.00000000000000             
    6    6                                                                      
   3.77500000000000        1.00000000000000       0.000000000000000E+000        
  0.000000000000000E+000  0.000000000000000E+000  0.000000000000000E+000        
  0.000000000000000E+000                                                        
   1.30000000000000       0.000000000000000E+000   1.00000000000000             
  0.000000000000000E+000  0.000000000000000E+000  0.000000000000000E+000        
  0.000000000000000E+000                                                        
  0.444000000000000       0.000000000000000E+000  0.000000000000000E+000        
   1.00000000000000       0.000000000000000E+000  0.000000000000000E+000        
  0.000000000000000E+000                                                        
   14.9270000000000       0.000000000000000E+000  0.000000000000000E+000        
  0.000000000000000E+000   1.00000000000000       0.000000000000000E+000        
  0.000000000000000E+000                                                        
   57.5440000000000       0.000000000000000E+000  0.000000000000000E+000        
  0.000000000000000E+000  0.000000000000000E+000   1.00000000000000             
  0.000000000000000E+000                                                        
  0.154000000000000       0.000000000000000E+000  0.000000000000000E+000        
  0.000000000000000E+000  0.000000000000000E+000  0.000000000000000E+000        
   1.00000000000000                                                             
    4    4                                                                      
   2.66600000000000        1.00000000000000       0.000000000000000E+000        
  0.000000000000000E+000  0.000000000000000E+000                                
  0.859000000000000       0.000000000000000E+000   1.00000000000000             
  0.000000000000000E+000  0.000000000000000E+000                                
   26.4830000000000       0.000000000000000E+000  0.000000000000000E+000        
   1.00000000000000       0.000000000000000E+000                                
  0.324000000000000       0.000000000000000E+000  0.000000000000000E+000        
  0.000000000000000E+000   1.00000000000000                                     
    2    2                                                                      
   1.84600000000000        1.00000000000000       0.000000000000000E+000        
  0.714000000000000       0.000000000000000E+000   1.00000000000000             
FINISH                                                                          
 
********************************************************************************
 ONE- AND TWO-ELECTRON INTEGRALS OVER SYMMETRY-ADAPTED AOS ARE CALCULATED.

  SPHERICAL HARMONICS ARE USED.
  
  INTEGRALS LESS THAN  0.10E-13 ARE NEGLECTED.

  NUCLEAR REPULSION ENERGY :   16.7032771701 A.U.
  @MOLECU-I, ONE ELECTRON INTEGRALS (CPU/WALL):        0.06/       0.06 SECONDS.
  @TWOEL-I,    4462267 INTEGRALS OF SYMMETRY TYPE  I I I I
  @TWOEL-I,   19246498 INTEGRALS OF SYMMETRY TYPE  I J I J
  @TWOEL-I,   10134728 INTEGRALS OF SYMMETRY TYPE  I I J J
  @TWOEL-I,   14233273 INTEGRALS OF SYMMETRY TYPE  I J K L
  @TWOEL-I, TOTAL NUMBER OF 2-E INTEGRALS   48076766.
  @MOLECU-I, TWO ELECTRON INTEGRALS (CPU/WALL):      235.05/      32.33 SECONDS.
 @CHECKOUT-I, Total execution time (CPU/WALL):      235.13/      32.42 seconds.

Running with 14 threads/proc

--executable xvmol finished with status     0 in       32.49 seconds (walltime).
 --invoking executable--
/nfs/workspaces/public/cfour_mpi/bin/xvmol2ja
 @GETMEM-I,  Allocated    3814 MB of main memory.
 @CHECKOUT-I, Total execution time (CPU/WALL):        0.26/       0.12 seconds.
--executable xvmol2ja finished with status     0 in        0.17 seconds (walltime).
 --invoking executable--
/nfs/workspaces/public/cfour_mpi/bin/xvprop
 @GETMEM-I,  Allocated    3814 MB of main memory.
   Property integrals will be calculated.
    --------------------------------------------------------------
                                   Property evaluated at 
    Property type                X             Y             Z
    --------------------------------------------------------------
    Dipole moment               ----          ----          ----  
    Quadrupole moment           ----          ----          ----  
    Octopole moment             ----          ----          ----  
    Relativisitic corr.         ----          ----          ----  
    Second moment            0.0000000     0.0000000     0.0000000
    Electron density         0.0000000     0.0000000     1.5850735
    Electron density         0.0000000     0.0000000    -1.2886141
    Field gradient           0.0000000     0.0000000     1.5850735
    Field gradient           0.0000000     0.0000000    -1.2886141
    Potential                0.0000000     0.0000000     1.5850735
    Potential                0.0000000     0.0000000    -1.2886141
    --------------------------------------------------------------
 @CHECKOUT-I, Total execution time (CPU/WALL):        1.58/       1.63 seconds.
--executable xvprop finished with status     0 in        1.71 seconds (walltime).
 --invoking executable--
/nfs/workspaces/public/cfour_mpi/bin/xvscf
  There are  218 functions in the AO basis.

  There are 4 irreducible representations.

       Irrep        # of functions
         1                 86
         2                 52
         3                 52
         4                 28


  Parameters for SCF calculation: 
        SCF reference function:  RHF  
  Maximum number of iterations:  150
     Full symmetry point group: CXv 
     Computational point group: C2v 
        Initial density matrix: MOREAD                 
     SCF convergence tolerance: 10**(-10)
  DIIS convergence acceleration:  ON
          Latest start for DIIS:   8
                     DIIS order:   6

  Memory information:    2523578 words required.
  Fock matrices are constructed from AO integral file.
 @GETMEM-I,  Allocated      19 MB of main memory.
  Initialization and symmetry analysis required      0.001 seconds.

  Adding electric field perturbation to one-electron Hamiltonian.
  Field direction     : Z
  Field strength      : -0.0002000 a.u.

  @INITGES-I, Occupancies from core Hamiltonian:

          Alpha population by irrep:   5    1    1    0
           Beta population by irrep:   5    1    1    0


 total no. of electrons in initial guess :  0.000000000000000E+000
  --------------------------------------------------------------------
  Iteration         Total Energy            Largest Density Difference
  --------------------------------------------------------------------
       0            16.703117475649666              0.0000000000D+00
   current occupation vector 
     5  1  1  0
     5  1  1  0
       1           -93.462312307289139              0.1753477236D+02
   current occupation vector 
     5  1  1  0
     5  1  1  0
       2           -98.189520607177755              0.1753474730D+02
   current occupation vector 
     5  1  1  0
     5  1  1  0
       3          -101.313628266395298              0.6231141047D+01
   current occupation vector 
     5  1  1  0
     5  1  1  0
       4           -96.354223757753132              0.6223431337D+01
   current occupation vector 
     5  1  1  0
     5  1  1  0
       5          -100.619253891328484              0.6825878233D+01
   current occupation vector 
     5  1  1  0
     5  1  1  0
       6           -95.723754258238230              0.6826133927D+01
   current occupation vector 
     5  1  1  0
     5  1  1  0
       7          -100.592127031118409              0.6872192943D+01
   current occupation vector 
     5  1  1  0
     5  1  1  0
       8           -95.701016537232249              0.6872314988D+01
   current occupation vector 
     5  1  1  0
     5  1  1  0
       9          -107.474400911613785              0.5574939560D+01
   current occupation vector 
     5  1  1  0
     5  1  1  0
      10          -109.810943656367101              0.1094973231D+01
   current occupation vector 
     5  1  1  0
     5  1  1  0
      11          -112.357443696120384              0.1382452671D+01
   current occupation vector 
     5  1  1  0
     5  1  1  0
      12          -112.574121540718579              0.4917860873D+00
   current occupation vector 
     5  1  1  0
     5  1  1  0
      13          -112.580218999335443              0.1286026423D+00
   current occupation vector 
     5  1  1  0
     5  1  1  0
      14          -112.582347592810720              0.6171434005D-01
   current occupation vector 
     5  1  1  0
     5  1  1  0
      15          -112.582492207759771              0.1602124145D-01
   current occupation vector 
     5  1  1  0
     5  1  1  0
      16          -112.582575019746372              0.1577181797D-01
   current occupation vector 
     5  1  1  0
     5  1  1  0
      17          -112.582602591562505              0.1049722488D-01
   current occupation vector 
     5  1  1  0
     5  1  1  0
      18          -112.582607211118471              0.5620664199D-02
   current occupation vector 
     5  1  1  0
     5  1  1  0
      19          -112.582607241088766              0.4504829098D-03
   current occupation vector 
     5  1  1  0
     5  1  1  0
      20          -112.582607241530582              0.1494611751D-04
   current occupation vector 
     5  1  1  0
     5  1  1  0
      21          -112.582607241557241              0.7928308821D-05
   current occupation vector 
     5  1  1  0
     5  1  1  0
      22          -112.582607241558208              0.1000998456D-05
   current occupation vector 
     5  1  1  0
     5  1  1  0
      23          -112.582607241558833              0.1585236190D-06
   current occupation vector 
     5  1  1  0
     5  1  1  0
      24          -112.582607241557042              0.6022036936D-07
   current occupation vector 
     5  1  1  0
     5  1  1  0
      25          -112.582607241556872              0.1386168358D-07
   current occupation vector 
     5  1  1  0
     5  1  1  0
      26          -112.582607241557298              0.3613284338D-08
   current occupation vector 
     5  1  1  0
     5  1  1  0
      27          -112.582607241557355              0.2792911236D-08
   current occupation vector 
     5  1  1  0
     5  1  1  0
      28          -112.582607241557383              0.9392120415D-09
   current occupation vector 
     5  1  1  0
     5  1  1  0

  SCF has converged.

 Density matrix saved to file den.dat
 total electron number:   14.0000000000001     
     E(SCF)=      -112.582607241558009              0.6193401347D-10

  Eigenvector printing suppressed.

 @PUTMOS-I, Writing converged MOs to NEWMOS. 
 @PUTMOS-I, Symmetry   1 Full Blocks 21 Partial Blocksize   2
 @PUTMOS-I, Symmetry   2 Full Blocks 13 Partial Blocksize   0
 @PUTMOS-I, Symmetry   3 Full Blocks 13 Partial Blocksize   0
 @PUTMOS-I, Symmetry   4 Full Blocks  7 Partial Blocksize   0
 @PUTFOCK-I, Writing converged Fock matrix to NEWFOCK. 
 @PUTFOCK-I, Symmetry   1 Full Blocks 21 Partial Blocksize   2
 @PUTFOCK-I, Symmetry   2 Full Blocks 13 Partial Blocksize   0
 @PUTFOCK-I, Symmetry   3 Full Blocks 13 Partial Blocksize   0
 @PUTFOCK-I, Symmetry   4 Full Blocks  7 Partial Blocksize   0


 
  ORBITAL EIGENVALUES (ALPHA)  (1H = 27.2113834 eV)

       MO #        E(hartree)               E(eV)           FULLSYM    COMPSYM
       ----   --------------------   --------------------   -------   ---------
    1     1         -20.6527897159        -561.9909792384     SG+        A1 (1)
    2     2         -11.5045200042        -313.0539046674     SG+        A1 (1)
    3     3          -1.3065894750         -35.5541071515     SG+        A1 (1)
    4     4          -0.7993336222         -21.7509736582     SG+        A1 (1)
    5     5          -0.5461249096         -14.8608142987     SG+        A1 (1)
    6   139          -0.5134483906         -13.9716410138      PI        B2 (3)
    7    87          -0.5134483906         -13.9716410138      PI        B1 (2)
  +++++++++++++++++++++++++++++++++++++++++++++++++++++++++++++++++++++++++++++
    8   140           0.0079499077           0.2163279877      PI        B2 (3)
    9    88           0.0079499077           0.2163279877      PI        B1 (2)
   10     6           0.0611492311           1.6639551728     SG+        A1 (1)
   11     7           0.0686406847           1.8678079877     SG+        A1 (1)
   12   141           0.0833962539           2.2693274378      PI        B2 (3)
   13    89           0.0833962539           2.2693274378      PI        B1 (2)
   14     8           0.1574692032           4.2849548614     SG+        A1 (1)
   15   142           0.1773269720           4.8253122216      PI        B2 (3)
   16    90           0.1773269720           4.8253122216      PI        B1 (2)
   17     9           0.2129394120           5.7943759797     SG+        A1 (1)
   18   191           0.2231047194           6.0709880587      DE        A2 (4)
   19    10           0.2231047194           6.0709880587      DE        A1 (1)
   20   143           0.2889933378           7.8639085161      PI        B2 (3)
   21    91           0.2889933378           7.8639085161      PI        B1 (2)
   22    11           0.3002367006           8.1698559710     SG+        A1 (1)
   23    12           0.3349394895           9.1141668636     SG+        A1 (1)
   24   144           0.4025390041          10.9536431746      PI        B2 (3)
   25    92           0.4025390041          10.9536431746      PI        B1 (2)
   26    13           0.4358432175          11.8598968929     SG+        A1 (1)
   27    14           0.5127555998          13.9527892170     SG+        A1 (1)
   28   192           0.5491588117          14.9433709726      DE        A2 (4)
   29    15           0.5491588117          14.9433709726      DE        A1 (1)
   30    93           0.6239092829          16.9774347044      PI        B1 (2)
   31   145           0.6239092829          16.9774347044      PI        B2 (3)
   32    16           0.7129827374          19.4012466257     SG+        A1 (1)
   33   146           0.7348200430          19.9954699200      PH        B2 (3)
   34    94           0.7348200430          19.9954699200      PH        B1 (2)
   35    17           0.7434986965          20.2316280883      DE        A1 (1)
   36   193           0.7434986965          20.2316280883      DE        A2 (4)
   37   147           0.7818140492          21.2742418394      PI        B2 (3)
   38    95           0.7818140492          21.2742418394      PI        B1 (2)
   39    18           0.8234498138          22.4072085946     SG+        A1 (1)
   40   194           0.8651805493          23.5427596370      DE        A2 (4)
   41    19           0.8651805493          23.5427596370      DE        A1 (1)
   42    20           0.8755786903          23.8257074384     SG+        A1 (1)
   43    96           0.8922549398          24.2794912575      PI        B1 (2)
   44   148           0.8922549398          24.2794912575      PI        B2 (3)
   45    97           1.0342520870          28.1434300711      PI        B1 (2)
   46   149           1.0342520870          28.1434300711      PI        B2 (3)
   47    21           1.1271770423          30.6720466574     SG+        A1 (1)
   48    22           1.3766228099          37.4598110786     SG+        A1 (1)
   49    98           1.4234139905          38.7330638324      PH        B1 (2)
   50   150           1.4234139905          38.7330638324      PH        B2 (3)
   51   151           1.5142554161          41.2049846924      PI        B2 (3)
   52    99           1.5142554161          41.2049846924      PI        B1 (2)
   53    23           1.5784631025          42.9521646652      DE        A1 (1)
   54   195           1.5784631025          42.9521646652      DE        A2 (4)
   55    24           1.6053099795          43.6827053270     SG+        A1 (1)
   56   100           1.6383140740          44.5807923972      PI        B1 (2)
   57   152           1.6383140740          44.5807923972      PI        B2 (3)
   58   196           1.6914590518          46.0269407640      DE        A2 (4)
   59    25           1.6914590518          46.0269407640      DE        A1 (1)
   60    26           1.9114679253          52.0136865731     SG+        A1 (1)
   61    27           1.9765947141          53.7858765907     SG+        A1 (1)
   62    28           2.0740443267          56.4376153623      PI        A1 (1)
   63   197           2.0740443267          56.4376153623      PI        A2 (4)
   64   101           2.0868911553          56.7871953413      PI        B1 (2)
   65   153           2.0868911553          56.7871953413      PI        B2 (3)
   66    29           2.1343355041          58.0782217072      DE        A1 (1)
   67   198           2.1343355041          58.0782217072      DE        A2 (4)
   68   154           2.2130381274          60.2198289639      PH        B2 (3)
   69   102           2.2130381274          60.2198289639      PH        B1 (2)
   70   155           2.2292297573          60.6604256131      PH        B2 (3)
   71   103           2.2292297573          60.6604256131      PH        B1 (2)
   72    30           2.2364022837          60.8555999773     SG+        A1 (1)
   73   104           2.2378487706          60.8949608870      PI        B1 (2)
   74   156           2.2378487706          60.8949608870      PI        B2 (3)
   75   199           2.2949570000          62.4489548135      DE        A2 (4)
   76    31           2.2949570000          62.4489548135      DE        A1 (1)
   77    32           2.4355694212          66.2752133182     SG+        A1 (1)
   78   157           2.5188023736          68.5400970970      PI        B2 (3)
   79   105           2.5188023736          68.5400970970      PI        B1 (2)
   80   106           2.5985411991          70.7099008506      PI        B1 (2)
   81   158           2.5985411991          70.7099008506      PI        B2 (3)
   82    33           2.6117422246          71.0691190167     SG+        A1 (1)
   83   200           2.6889178865          73.1691755402      DE        A2 (4)
   84    34           2.6889178865          73.1691755402      DE        A1 (1)
   85    35           3.0354662413          82.5992356896     SG+        A1 (1)
   86   107           3.4571033366          94.0725643446      PI        B1 (2)
   87   159           3.4571033366          94.0725643446      PI        B2 (3)
   88   201           3.7045546012         100.8060555786      PI        A2 (4)
   89    36           3.7045546012         100.8060555786      PI        A1 (1)
   90    37           3.9048994663         106.2577165147     SG+        A1 (1)
   91   160           3.9494999026         107.4713560891      PH        B2 (3)
   92   108           3.9494999026         107.4713560891      PH        B1 (2)
   93   161           4.1332421665         112.4712372768      PH        B2 (3)
   94   109           4.1332421665         112.4712372768      PH        B1 (2)
   95   110           4.1600544292         113.2008360374      PI        B1 (2)
   96   162           4.1600544292         113.2008360374      PI        B2 (3)
   97    38           4.1645170239         113.3222694132     SG+        A1 (1)
   98   202           4.2041144403         114.3997698930      DE        A2 (4)
   99    39           4.2041144403         114.3997698930      DE        A1 (1)
  100    40           4.2813117330         116.5004150219      DE        A1 (1)
  101   203           4.2813117330         116.5004150219      DE        A2 (4)
  102    41           4.4390323261         120.7922105499     SG+        A1 (1)
  103   111           4.5869150707         124.8163046131      PI        B1 (2)
  104   163           4.5869150707         124.8163046131      PI        B2 (3)
  105   204           4.7442828586         129.0984998226      DE        A2 (4)
  106    42           4.7442828586         129.0984998226      DE        A1 (1)
  107    43           4.7512061117         129.2868911187     SG+        A1 (1)
  108   164           5.1853815545         141.1014055536      PI        B2 (3)
  109   112           5.1853815545         141.1014055536      PI        B1 (2)
  110    44           5.3115804758         144.5354527872     SG+        A1 (1)
  111   113           5.3544200634         145.7011772293      PI        B1 (2)
  112   165           5.3544200634         145.7011772295      PI        B2 (3)
  113    45           5.8380822701         158.8622949736      PI        A1 (1)
  114   205           5.8380822701         158.8622949736      PI        A2 (4)
  115   166           5.9140979647         160.9307871827      PH        B2 (3)
  116   114           5.9140979647         160.9307871827      PH        B1 (2)
  117    46           6.0807184706         165.4647616517     SG+        A1 (1)
  118   206           6.1351451499         166.9457868885      DE        A2 (4)
  119    47           6.1351451499         166.9457868885      DE        A1 (1)
  120   115           6.1546482567         167.4764934064      PI        B1 (2)
  121   167           6.1546482567         167.4764934064      PI        B2 (3)
  122    48           6.2117118920         169.0292738649     SG+        A1 (1)
  123   116           6.3669376458         173.2531813644      PH        B1 (2)
  124   168           6.3669376458         173.2531813644      PH        B2 (3)
  125   207           6.3778016003         173.5488045942      DE        A2 (4)
  126    49           6.3778016003         173.5488045942      DE        A1 (1)
  127   208           6.5016155110         176.9179523883      DE        A2 (4)
  128    50           6.5016155110         176.9179523884      DE        A1 (1)
  129   117           6.8464371300         186.3010256689      PI        B1 (2)
  130   169           6.8464371300         186.3010256689      PI        B2 (3)
  131    51           7.1349373414         194.1515155329     SG+        A1 (1)
  132   170           7.3995910966         201.3531103328      PI        B2 (3)
  133   118           7.3995910966         201.3531103328      PI        B1 (2)
  134    52           8.0220007104         218.2897369664     SG+        A1 (1)
  135    53           9.6344704556         262.1672694242     SG+        A1 (1)
  136   171           9.8142500694         267.0593214219      PI        B2 (3)
  137   119           9.8142500694         267.0593214220      PI        B1 (2)
  138    54          10.6443117904         289.6464491581      PI        A1 (1)
  139   209          10.6443117904         289.6464491581      PI        A2 (4)
  140    55          10.6994316137         291.1463358021     SG+        A1 (1)
  141   172          10.7455237824         292.4005674772      PH        B2 (3)
  142   120          10.7455237824         292.4005674772      PH        B1 (2)
  143   210          10.9779798616         298.7260189716      DE        A2 (4)
  144    56          10.9779798616         298.7260189716      DE        A1 (1)
  145   121          10.9838262200         298.8851064723      PI        B1 (2)
  146   173          10.9838262200         298.8851064723      PI        B2 (3)
  147    57          11.1916823617         304.5411596353     SG+        A1 (1)
  148   122          11.8828634726         323.3491538436      PH        B1 (2)
  149   174          11.8828634726         323.3491538436      PH        B2 (3)
  150    58          12.0092177468         326.7874284413      DE        A1 (1)
  151   211          12.0092177468         326.7874284413      DE        A2 (4)
  152   123          12.4493996616         338.7653872918      PI        B1 (2)
  153   175          12.4493996616         338.7653872918      PI        B2 (3)
  154    59          12.6799244404         345.0382854307     SG+        A1 (1)
  155   212          12.7357061101         346.5561818311      DE        A2 (4)
  156    60          12.7357061101         346.5561818311      DE        A1 (1)
  157   176          13.0922601070         356.2585093453      PI        B2 (3)
  158   124          13.0922601070         356.2585093453      PI        B1 (2)
  159    61          13.6536986953         371.5360300253     SG+        A1 (1)
  160    62          17.4025737319         473.5481059666     SG+        A1 (1)
  161   125          18.7678597496         510.6994272439      PI        B1 (2)
  162   177          18.7678597496         510.6994272443      PI        B2 (3)
  163    63          19.8825650949         541.0321017718     SG+        A1 (1)
  164   213          26.2799737877         715.1144424793      DE        A2 (4)
  165    64          26.2799737877         715.1144424793      DE        A1 (1)
  166   178          26.6245767040         724.4915645558      PI        B2 (3)
  167   126          26.6245767040         724.4915645558      PI        B1 (2)
  168    65          27.1090956050         737.6759941353     SG+        A1 (1)
  169   179          33.4929374924         911.3891632987      PI        B2 (3)
  170   127          33.4929374924         911.3891632988      PI        B1 (2)
  171    66          34.3300043719         934.1669110881     SG+        A1 (1)
  172    67          35.7010701163         971.4755067261     SG+        A1 (1)
  173    68          47.0729635944        1280.9204601423      DE        A1 (1)
  174   214          47.0729635944        1280.9204601423      DE        A2 (4)
  175   128          47.2576672497        1285.9465021202      PI        B1 (2)
  176   180          47.2576672497        1285.9465021202      PI        B2 (3)
  177    69          47.5840081864        1294.8266904687     SG+        A1 (1)
  178    70          63.8216364252        1736.6750179827     SG+        A1 (1)
  179   129          66.3430414704        1805.2859373731      PI        B1 (2)
  180   181          66.3430414704        1805.2859373733      PI        B2 (3)
  181    71          67.1502448842        1827.2510589468     SG+        A1 (1)
  182   130          98.5254350937        2681.0133889859      PH        B1 (2)
  183   182          98.5254350937        2681.0133889859      PH        B2 (3)
  184   215          98.5388486043        2681.3783891650      DE        A2 (4)
  185    72          98.5388486043        2681.3783891650      DE        A1 (1)
  186   183          98.5528945829        2681.7605996738      PI        B2 (3)
  187   131          98.5528945829        2681.7605996738      PI        B1 (2)
  188    73          98.5660493548        2682.1185592159     SG+        A1 (1)
  189   184         103.3021663813        2810.9948554519      PH        B2 (3)
  190   132         103.3021663813        2810.9948554519      PH        B1 (2)
  191   216         103.3073731083        2811.1365376968      DE        A2 (4)
  192    74         103.3073731085        2811.1365377011      DE        A1 (1)
  193   185         103.3422919463        2812.0867275856      PI        B2 (3)
  194   133         103.3422919463        2812.0867275856      PI        B1 (2)
  195    75         103.3466222377        2812.2045608040     SG+        A1 (1)
  196   217         114.9796093458        3128.7542330909      DE        A2 (4)
  197    76         114.9796093458        3128.7542330909      DE        A1 (1)
  198   186         115.1459346339        3133.2801742738      PI        B2 (3)
  199   134         115.1459346339        3133.2801742739      PI        B1 (2)
  200    77         115.3947740552        3140.0514391718     SG+        A1 (1)
  201   135         116.7859361058        3177.9068831024      PI        B1 (2)
  202   187         116.7859361058        3177.9068831025      PI        B2 (3)
  203    78         117.4624472455        3196.3156871003     SG+        A1 (1)
  204    79         121.9496455036        3318.4185592929     SG+        A1 (1)
  205    80         198.5522188262        5402.8805514010      DE        A1 (1)
  206   218         198.5522188262        5402.8805514011      DE        A2 (4)
  207   188         198.6528449742        5405.6187280932      PI        B2 (3)
  208   136         198.6528449742        5405.6187280934      PI        B1 (2)
  209    81         198.8214014034        5410.2053817127     SG+        A1 (1)
  210    82         216.3488092066        5887.1503954543     SG+        A1 (1)
  211   137         224.8192252619        6117.6421342931      PI        B1 (2)
  212   189         224.8192252619        6117.6421342933      PI        B2 (3)
  213    83         225.4501588612        6134.8107103643     SG+        A1 (1)
  214   138         395.2983781592       10756.6157254871      PI        B1 (2)
  215   190         395.2983781592       10756.6157254876      PI        B2 (3)
  216    84         395.8528674643       10771.7041465597     SG+        A1 (1)
  217    85         508.6565128387       13841.2473897621     SG+        A1 (1)
  218    86         895.1695879818       24358.8028665925     SG+        A1 (1)


  VSCF finished.

 @CHECKOUT-I, Total execution time (CPU/WALL):       54.74/      13.78 seconds.
--executable xvscf finished with status     0 in       13.81 seconds (walltime).
 --invoking executable--
/nfs/workspaces/public/cfour_mpi/bin/xvtran
 @GETMEM-I,  Allocated    3814 MB of main memory.
  Full RHF integral transformation
  Transformation of IIII integrals :
  1 pass through the AO integral file was required.
     4462267 AO integrals were read.
     8687762 MO integrals were written to HF2.
  Transformation of IIJJ integrals :
  1 pass through the AO integral file was required.
    10134728 AO integrals were read.
    14440743 MO integrals were written to HF2.
  Transformation of IJIJ integrals :
  1 pass through the AO integral file was required.
    19246498 AO integrals were read.
    26893419 MO integrals were written to HF2.
  Transformation of IJKL integrals :
  1 pass through the AO integral file was required.
    14233273 AO integrals were read.
    18200374 MO integrals were written to HF2.
  Summary of active molecular orbitals: 
------------------------------------------------------------------------
 
  Index      Eigenvalue    Symmetry    Index      Eigenvalue    Symmetry
------------------------------------------------------------------------
     1       -20.6527897        1       110         4.1332422        2
     2       -11.5045200        1       111         4.1600544        2
     3        -1.3065895        1       112         4.5869151        2
     4        -0.7993336        1       113         5.1853816        2
     5        -0.5461249        1       114         5.3544201        2
     6        -0.5134484        2       115         5.9140980        2
     7        -0.5134484        3       116         6.1546483        2
     8         0.0611492        1       117         6.3669376        2
     9         0.0686407        1       118         6.8464371        2
    10         0.1574692        1       119         7.3995911        2
    11         0.2129394        1       120         9.8142501        2
    12         0.2231047        1       121        10.7455238        2
    13         0.3002367        1       122        10.9838262        2
    14         0.3349395        1       123        11.8828635        2
    15         0.4358432        1       124        12.4493997        2
    16         0.5127556        1       125        13.0922601        2
    17         0.5491588        1       126        18.7678597        2
    18         0.7129827        1       127        26.6245767        2
    19         0.7434987        1       128        33.4929375        2
    20         0.8234498        1       129        47.2576672        2
    21         0.8651805        1       130        66.3430415        2
    22         0.8755787        1       131        98.5254351        2
    23         1.1271770        1       132        98.5528946        2
    24         1.3766228        1       133       103.3021664        2
    25         1.5784631        1       134       103.3422919        2
    26         1.6053100        1       135       115.1459346        2
    27         1.6914591        1       136       116.7859361        2
    28         1.9114679        1       137       198.6528450        2
    29         1.9765947        1       138       224.8192253        2
    30         2.0740443        1       139       395.2983782        2
    31         2.1343355        1       140         0.0079499        3
    32         2.2364023        1       141         0.0833963        3
    33         2.2949570        1       142         0.1773270        3
    34         2.4355694        1       143         0.2889933        3
    35         2.6117422        1       144         0.4025390        3
    36         2.6889179        1       145         0.6239093        3
    37         3.0354662        1       146         0.7348200        3
    38         3.7045546        1       147         0.7818140        3
    39         3.9048995        1       148         0.8922549        3
    40         4.1645170        1       149         1.0342521        3
    41         4.2041144        1       150         1.4234140        3
    42         4.2813117        1       151         1.5142554        3
    43         4.4390323        1       152         1.6383141        3
    44         4.7442829        1       153         2.0868912        3
    45         4.7512061        1       154         2.2130381        3
    46         5.3115805        1       155         2.2292298        3
    47         5.8380823        1       156         2.2378488        3
    48         6.0807185        1       157         2.5188024        3
    49         6.1351451        1       158         2.5985412        3
    50         6.2117119        1       159         3.4571033        3
    51         6.3778016        1       160         3.9494999        3
    52         6.5016155        1       161         4.1332422        3
    53         7.1349373        1       162         4.1600544        3
    54         8.0220007        1       163         4.5869151        3
    55         9.6344705        1       164         5.1853816        3
    56        10.6443118        1       165         5.3544201        3
    57        10.6994316        1       166         5.9140980        3
    58        10.9779799        1       167         6.1546483        3
    59        11.1916824        1       168         6.3669376        3
    60        12.0092177        1       169         6.8464371        3
    61        12.6799244        1       170         7.3995911        3
    62        12.7357061        1       171         9.8142501        3
    63        13.6536987        1       172        10.7455238        3
    64        17.4025737        1       173        10.9838262        3
    65        19.8825651        1       174        11.8828635        3
    66        26.2799738        1       175        12.4493997        3
    67        27.1090956        1       176        13.0922601        3
    68        34.3300044        1       177        18.7678597        3
    69        35.7010701        1       178        26.6245767        3
    70        47.0729636        1       179        33.4929375        3
    71        47.5840082        1       180        47.2576672        3
    72        63.8216364        1       181        66.3430415        3
    73        67.1502449        1       182        98.5254351        3
    74        98.5388486        1       183        98.5528946        3
    75        98.5660494        1       184       103.3021664        3
    76       103.3073731        1       185       103.3422919        3
    77       103.3466222        1       186       115.1459346        3
    78       114.9796093        1       187       116.7859361        3
    79       115.3947741        1       188       198.6528450        3
    80       117.4624472        1       189       224.8192253        3
    81       121.9496455        1       190       395.2983782        3
    82       198.5522188        1       191         0.2231047        4
    83       198.8214014        1       192         0.5491588        4
    84       216.3488092        1       193         0.7434987        4
    85       225.4501589        1       194         0.8651805        4
    86       395.8528675        1       195         1.5784631        4
    87       508.6565128        1       196         1.6914591        4
    88       895.1695880        1       197         2.0740443        4
    89         0.0079499        2       198         2.1343355        4
    90         0.0833963        2       199         2.2949570        4
    91         0.1773270        2       200         2.6889179        4
    92         0.2889933        2       201         3.7045546        4
    93         0.4025390        2       202         4.2041144        4
    94         0.6239093        2       203         4.2813117        4
    95         0.7348200        2       204         4.7442829        4
    96         0.7818140        2       205         5.8380823        4
    97         0.8922549        2       206         6.1351451        4
    98         1.0342521        2       207         6.3778016        4
    99         1.4234140        2       208         6.5016155        4
   100         1.5142554        2       209        10.6443118        4
   101         1.6383141        2       210        10.9779799        4
   102         2.0868912        2       211        12.0092177        4
   103         2.2130381        2       212        12.7357061        4
   104         2.2292298        2       213        26.2799738        4
   105         2.2378488        2       214        47.0729636        4
   106         2.5188024        2       215        98.5388486        4
   107         2.5985412        2       216       103.3073731        4
   108         3.4571033        2       217       114.9796093        4
   109         3.9494999        2       218       198.5522188        4
------------------------------------------------------------------------
  -20.6527897158790       -11.5045200042060       -1.30658947503150     
 -0.799333622198791      -0.546124909572079      -0.513448390639005     
 -0.513448390639016       6.114923112499191E-002  6.864068468158366E-002
  0.157469203180912       0.212939411957569       0.223104719426771     
  0.300236700608681       0.334939489465644       0.435843217472936     
  0.512755599810896       0.549158811698042       0.712982737428438     
  0.743498696514393       0.823449813822142       0.865180549291587     
  0.875578690292388        1.12717704228956        1.37662280994431     
   1.57846310251008        1.60530997946417        1.69145905180214     
   1.91146792533448        1.97659471406083        2.07404432669597     
   2.13433550413322        2.23640228366074        2.29495700000023     
   2.43556942122221        2.61174222464049        2.68891788648176     
   3.03546624129305        3.70455460116869        3.90489946625435     
   4.16451702389986        4.20411444032024        4.28131173301171     
   4.43903232607879        4.74428285857097        4.75120611173137     
   5.31158047581048        5.83808227014286        6.08071847062569     
   6.13514514989596        6.21171189204930        6.37780160027484     
   6.50161551096870        7.13493734144124        8.02200071042182     
   9.63447045563348        10.6443117904149        10.6994316136862     
   10.9779798616038        11.1916823617034        12.0092177467641     
[...]
 Convergence information after    14 iterations: 
 Largest element of residual vector : -0.84702176E-06.
 Largest element of DIIS residual   : -0.62569899E-06.
 Convergence information after    15 iterations: 
 Largest element of residual vector :  0.78282468E-06.
 Largest element of DIIS residual   :  0.50301704E-06.
 Convergence information after    16 iterations: 
 Largest element of residual vector :  0.38216293E-06.
 Largest element of DIIS residual   :  0.21985512E-06.
 Convergence information after    17 iterations: 
 Largest element of residual vector :  0.21168852E-06.
 Largest element of DIIS residual   :  0.89097438E-07.
 Perturbed amplitude equations converged in    17 iterations.
  Dominant contributions to perturbed wavefunction:
    7    7  140   28   0.2179933472 ABAB
    7    7   28  140   0.2179933472 ABAB
    7    7  140   39  -0.2164164888 ABAB
    7    7   39  140  -0.2164164888 ABAB
    7    7  140   45  -0.2153640650 ABAB
    7    7   45  140  -0.2153640650 ABAB
    7    7  140   22  -0.2061055853 ABAB
    7    7   22  140  -0.2061055853 ABAB
    7    7  140   29  -0.1593615857 ABAB
    7    7   29  140  -0.1593615857 ABAB
    7    7  140   57   0.1557172636 ABAB
    7    7   57  140   0.1557172636 ABAB
    7    0   35    0  -0.1550553342 AA  
    7    7  140   54   0.1531543402 ABAB
    7    7   54  140   0.1531543402 ABAB
    7    6   28   89   0.1362442874 ABAB
    6    7   89   28   0.1362442874 ABAB
    7    6   39   89  -0.1362241545 ABAB
    6    7   89   39  -0.1362241545 ABAB
    7    6   45   89  -0.1351204679 ABAB
  norm of converged amps    1.74395176896078     
 Starting iterative solution of the perturbed Lambda equations.
 The DIIS procedure is used to accelerate convergence.
 Convergence criterion is 10**(-7).
 Maximum number of iterations is 100.
 Convergence information after     1 iterations: 
 Largest element of residual vector :  0.75666093E-01.
 Largest element of DIIS residual   :  0.75666093E-01.
 Convergence information after     2 iterations: 
 Largest element of residual vector :  0.14442710E-01.
 Largest element of DIIS residual   :  0.10810373E-01.
 Convergence information after     3 iterations: 
 Largest element of residual vector : -0.64493277E-02.
 Largest element of DIIS residual   : -0.60869744E-02.
 Convergence information after     4 iterations: 
 Largest element of residual vector : -0.38861050E-02.
 Largest element of DIIS residual   : -0.34736934E-02.
 Convergence information after     5 iterations: 
 Largest element of residual vector : -0.31533300E-02.
 Largest element of DIIS residual   : -0.23200056E-02.
 Convergence information after     6 iterations: 
 Largest element of residual vector : -0.15118645E-02.
 Largest element of DIIS residual   : -0.67158368E-03.
 Convergence information after     7 iterations: 
 Largest element of residual vector : -0.68351509E-03.
 Largest element of DIIS residual   : -0.30698205E-03.
 Convergence information after     8 iterations: 
 Largest element of residual vector : -0.21002617E-03.
 Largest element of DIIS residual   : -0.13702974E-03.
 Convergence information after     9 iterations: 
 Largest element of residual vector : -0.86407783E-04.
 Largest element of DIIS residual   : -0.37524796E-04.
 Convergence information after    10 iterations: 
 Largest element of residual vector : -0.31842185E-04.
 Largest element of DIIS residual   : -0.14240210E-04.
 Convergence information after    11 iterations: 
 Largest element of residual vector : -0.65100115E-05.
 Largest element of DIIS residual   : -0.42007786E-05.
 Convergence information after    12 iterations: 
 Largest element of residual vector : -0.19057436E-05.
 Largest element of DIIS residual   : -0.16462117E-05.
 Convergence information after    13 iterations: 
 Largest element of residual vector : -0.14527178E-05.
 Largest element of DIIS residual   : -0.12524586E-05.
 Convergence information after    14 iterations: 
 Largest element of residual vector : -0.63251896E-06.
 Largest element of DIIS residual   : -0.40337248E-06.
 Convergence information after    15 iterations: 
 Largest element of residual vector :  0.49265864E-06.
 Largest element of DIIS residual   :  0.33690753E-06.
 Convergence information after    16 iterations: 
 Largest element of residual vector :  0.25064387E-06.
 Largest element of DIIS residual   :  0.15929780E-06.
 Convergence information after    17 iterations: 
 Largest element of residual vector :  0.14467717E-06.
 Largest element of DIIS residual   :  0.72737638E-07.
 Perturbed Lambda equations converged in    17 iterations.
  Dominant contributions to perturbed wavefunction:
    7    7  140   28   0.1882895949 ABAB
    7    7   28  140   0.1882895949 ABAB
    7    7  140   45  -0.1836296462 ABAB
    7    7   45  140  -0.1836296462 ABAB
    7    7  140   39  -0.1831650042 ABAB
    7    7   39  140  -0.1831650042 ABAB
    7    7  140   22  -0.1757030241 ABAB
    7    7   22  140  -0.1757030241 ABAB
    7    7  140   29  -0.1331624419 ABAB
    7    7   29  140  -0.1331624419 ABAB
    7    7  140   54   0.1318622916 ABAB
    7    7   54  140   0.1318622916 ABAB
    7    7  140   57   0.1316912672 ABAB
    7    7   57  140   0.1316912672 ABAB
    7    6   28   89   0.1158386457 ABAB
    6    7   89   28   0.1158386457 ABAB
    7    6   45   89  -0.1136604859 ABAB
    6    7   89   45  -0.1136604859 ABAB
    7    6   39   89  -0.1136490326 ABAB
    6    7   89   39  -0.1136490326 ABAB
        The DBOC first-order density matrix is being calculated 
             (Symmetry block 3, perturbation   2)
 term   3.25753985835398     
 final tnorm  0.818202475558730     
  norm contr. I: |<0|L dT/dx|0>|^2   0.000000000000000E+000
  norm contr. II: <0|[nabla(1+L)e-T][nabla e^T]|0>   3.25753985835398     
  total norm contribution   3.25753985835398     
 oo  8.478347072015158E-003
 vv  -24.3931434850458     
 vo  7.186338892387292E-002
  Correlated perturbed 1-el contribution to DBOC  -24.3128017490499       cm**-1
  SUM_I |dc_I/dx|^2 contribution to DBOC   12.2636916012792       cm**-1
 
 
  The total diagonal Born-Oppenheimer correction (DBOC) is:      0.0040090192 a.u.
  The total diagonal Born-Oppenheimer correction (DBOC) is:        879.878020 cm-1
 
 Total CC energy including DBOC  -113.118475276211     
 First-order density matrix is being calculated  (Symmetry block 3, perturbation   2)
 Calculation of the contributions of <pq||rs> to dI(i,j)/dx required   2.1 seconds.
 Calculation of the contributions of <pq||rs> to dI(a,b)/dx required  17.5 seconds.
 Calculation of the contributions of <pq||rs> to dI(i,a)/dx required   9.9 seconds.
 First-order Z-vector equations are solved for 1 perturbation.
 Convergence reached after  19 iterations.
        U*G(pq,rs) contribution is being calculated
             (Symmetry block 3, perturbation   2)

 CCSD contribution to force constants 

        0.0000000000        0.0000000000        0.0000000000
        0.0000000000        0.0000000000        0.0000000000
        0.0000000000        0.0000000000        0.0000000000
        0.0000000000        0.0000000000        0.0000000000
        0.0000000000        0.0000000000        0.0000000000
        0.0000000000        0.0000000000        0.0000000000
        0.0000000000        0.0000000000        0.0000000000
        0.0000000000        0.0000000000        0.0000000000
        0.0000000000        0.0000000000        0.0000000000
        0.0000000000        0.0000000000        0.0000000000
        0.0000000000        0.0000000000        0.0000000000
        0.0000000000       -2.4673719947        2.4673719947

 CCSD contribution to dipole derivatives 

        0.0000000000        0.0000000000        0.0000000000
        0.0000000000        0.0000000000        0.0000000000
        0.0000000000        0.0000000000        0.0000000000
        0.0000000000        0.0000000000       -0.0566901724
        0.0000000000        0.0000000000        0.0000000000
        0.0000000000        0.0000000000        0.0000000000
 @CHECKOUT-I, Total execution time (CPU/WALL):     1324.19/     528.40 seconds.
--executable xsdcc finished with status     0 in      528.69 seconds (walltime).
 --invoking executable--
/nfs/workspaces/public/cfour_mpi/bin/xanti
 @GETMEM-I,  Allocated    3814 MB of main memory.
 CCSD MO derivative gammas will be sorted to Mulliken order.
 @CHECKOUT-I, Total execution time (CPU/WALL):       13.04/      20.75 seconds.
--executable xanti finished with status     0 in       20.90 seconds (walltime).
 --invoking executable--
/nfs/workspaces/public/cfour_mpi/bin/xbcktrn
 @GETMEM-I,  Allocated    3814 MB of main memory.
 CCSD MO derivative gammas will be transformed to the AO basis.
 @CHECKOUT-I, Total execution time (CPU/WALL):       28.78/      16.10 seconds.
--executable xbcktrn finished with status     0 in       16.16 seconds (walltime).
 --invoking executable--
/nfs/workspaces/public/cfour_mpi/bin/xvdint
 @GETMEM-I,  Allocated    3814 MB of main memory.
 One- and two-electron integral derivatives are calculated
 for RHF-CC/MBPT hessians and dipole derivatives.
 Spherical gaussians are used.
  magnet F F
                    8722  records have been written to the Sort file.
  Total length of Sort file :             178609116  words.
 Evaluation of 2el integral derivatives

                      Two-electron integral gradient
                      ------------------------------

                         C #1 z     0.0000000000
                         O #2 z     0.0000000000


 C #1       0.0000000000            0.0404595502            0.0000000000
 O #2       0.0000000000           -0.0404595502            0.0000000000


 Evaluation of 2e integral derivatives required  353.90 seconds.
  contribution to Hessian
        0.0000000000        0.0000000000        0.0000000000
        0.0000000000        0.0404595502       -0.0404595502
 @CHECKOUT-I, Total execution time (CPU/WALL):      353.89/      72.19 seconds.
--executable xvdint finished with status     0 in       72.35 seconds (walltime).
 --invoking executable--
/nfs/workspaces/public/cfour_mpi/bin/xanti
 @GETMEM-I,  Allocated    3814 MB of main memory.
 CCSD MO gammas will be sorted to Mulliken order.
 @CHECKOUT-I, Total execution time (CPU/WALL):       17.02/      65.68 seconds.
--executable xanti finished with status     0 in       65.85 seconds (walltime).
 --invoking executable--
/nfs/workspaces/public/cfour_mpi/bin/xbcktrn
 @GETMEM-I,  Allocated    3814 MB of main memory.
 CCSD MO gammas will be transformed to the AO basis.
 @CHECKOUT-I, Total execution time (CPU/WALL):       52.92/       9.54 seconds.
--executable xbcktrn finished with status     0 in        9.62 seconds (walltime).
 --invoking executable--
/nfs/workspaces/public/cfour_mpi/bin/xvdint
 @GETMEM-I,  Allocated    3814 MB of main memory.
 One- and two-electron integral derivatives are calculated
 for RHF-CC/MBPT hessians and dipole derivatives.
 Spherical gaussians are used.
  magnet F F

                     Kinetic energy integral gradient
                     --------------------------------

                         C #1 z    -0.6269887991
                         O #2 z     0.6269887991


 C #1       0.0000000000            0.0000000000           -0.6269887991
 O #2       0.0000000000            0.0000000000            0.6269887991



                   Nuclear attraction integral gradient
                   ------------------------------------

                         C #1 z    14.9062789510
                         O #2 z   -14.9062789510


 C #1       0.0000000000            0.0000000000           14.9062789510
 O #2       0.0000000000            0.0000000000          -14.9062789510



                      Reorthonormalization gradient
                      -----------------------------

                         C #1 z     0.0000000000
                         O #2 z     0.0000000000


 C #1       0.0000000000            0.0000000000            0.0000000000
 O #2       0.0000000000            0.0000000000            0.0000000000



                     Kinetic energy integral Hessian
                     -------------------------------


           Symmetry 1

           C #1 z      O #2 z

 C #1 z    0.652627
 O #2 z   -0.652627    0.652627


           Symmetry 2

           C #1 x      O #2 x

 C #1 x   -0.515243
 O #2 x    0.515243   -0.515243


           Symmetry 3

           C #1 y      O #2 y

 C #1 y   -0.515243
 O #2 y    0.515243   -0.515243




           C #1 x      C #1 y      C #1 z      O #2 x      O #2 y      O #2 z

 C #1 x   -0.515243
 C #1 y    0.000000   -0.515243
 C #1 z    0.000000    0.000000    0.652627

 O #2 x    0.515243    0.000000    0.000000   -0.515243
 O #2 y    0.000000    0.515243    0.000000    0.000000   -0.515243
 O #2 z    0.000000    0.000000   -0.652627    0.000000    0.000000    0.652627




                   Nuclear attraction integral Hessian
                   -----------------------------------


           Symmetry 1

           C #1 z      O #2 z

 C #1 z   -9.166583
 O #2 z    9.166583   -9.166583


           Symmetry 2

           C #1 x      O #2 x

 C #1 x    8.552290
 O #2 x   -8.552290    8.552290


           Symmetry 3

           C #1 y      O #2 y

 C #1 y    8.552290
 O #2 y   -8.552290    8.552290




           C #1 x      C #1 y      C #1 z      O #2 x      O #2 y      O #2 z

 C #1 x    8.552290
 C #1 y    0.000000    8.552290
 C #1 z    0.000000    0.000000   -9.166583

 O #2 x   -8.552290    0.000000    0.000000    8.552290
 O #2 y    0.000000   -8.552290    0.000000    0.000000    8.552290
 O #2 z    0.000000    0.000000    9.166583    0.000000    0.000000   -9.166583




                Highest order reorthonormalization Hessian
                ------------------------------------------


           Symmetry 1

           C #1 z      O #2 z

 C #1 z    0.000000
 O #2 z    0.000000    0.000000


           Symmetry 2

           C #1 x      O #2 x

 C #1 x    0.000000
 O #2 x    0.000000    0.000000


           Symmetry 3

           C #1 y      O #2 y

 C #1 y    0.000000
 O #2 y    0.000000    0.000000




           C #1 x      C #1 y      C #1 z      O #2 x      O #2 y      O #2 z




                Electronic contributions to dipole moment
                -----------------------------------------

                               au             Debye

                    z      1.20217152      3.05561574

  Conversion factor used: 1 a.u. =   2.54174691 Debye 



   Electronic contributions to static part of dipole moment derivatives
   --------------------------------------------------------------------


                     Total dipole moment derivatives
                     -------------------------------


           Symmetry 1
                              Ez

               C #1 z    -5.67203453
               O #2 z    -8.32796547

           Symmetry 2
                              Ex

               C #1 x    -5.67186529
               O #2 x    -8.32813471

           Symmetry 3
                              Ey

               C #1 y    -5.67186529
               O #2 y    -8.32813471



                       Ex          Ey          Ez

      C #1    x   -5.671865    0.000000    0.000000
      C #1    y    0.000000   -5.671865    0.000000
      C #1    z    0.000000    0.000000   -5.672035

      O #2    x   -8.328135    0.000000    0.000000
      O #2    y    0.000000   -8.328135    0.000000
      O #2    z    0.000000    0.000000   -8.327965

 Evaluation of 1e integral derivatives required    1.47 seconds.
                    8815  records have been written to the Sort file.
  Total length of Sort file :             180513570  words.
 Evaluation of 2el integral derivatives

                      Two-electron integral gradient
                      ------------------------------

                         C #1 z    -7.8418933234
                         O #2 z     7.8418933234


 C #1       0.0000000000            0.0000000000           -7.8418933234
 O #2       0.0000000000            0.0000000000            7.8418933234


 Evaluation of 2e integral derivatives required  717.03 seconds.

                            Molecular gradient
                            ------------------

                         C #1 z     0.6249079072
                         O #2 z    -0.6249079072


 C #1       0.0000000000            0.0000000000            0.6249079072
 O #2       0.0000000000            0.0000000000           -0.6249079072


  Molecular gradient norm 0.884E+00

                            Molecular hessian
                            -----------------


           Symmetry 1

           C #1 z      O #2 z

 C #1 z   20.835111
 O #2 z  -20.835111   20.835111


           Symmetry 2

           C #1 x      O #2 x

 C #1 x    2.692995
 O #2 x   -2.692995    2.692995


           Symmetry 3

           C #1 y      O #2 y

 C #1 y    2.692995
 O #2 y   -2.692995    2.692995




           C #1 x      C #1 y      C #1 z      O #2 x      O #2 y      O #2 z

 C #1 x    2.692995
 C #1 y    0.000000    2.692995
 C #1 z    0.000000    0.000000   20.835111

 O #2 x   -2.692995    0.000000    0.000000    2.692995
 O #2 y    0.000000   -2.692995    0.000000    0.000000    2.692995
 O #2 z    0.000000    0.000000  -20.835111    0.000000    0.000000   20.835111




                           Total dipole moment
                           -------------------

                               au             Debye

                    z      0.40369942      1.02610176

  Conversion factor used: 1 a.u. =   2.54174691 Debye 



                     Total dipole moment derivatives
                     -------------------------------


           Symmetry 1
                              Ez

               C #1 z     0.61683482
               O #2 z    -0.61683482

           Symmetry 2
                              Ex

               C #1 x     0.14713230
               O #2 x    -0.14713230

           Symmetry 3
                              Ey

               C #1 y     0.14713230
               O #2 y    -0.14713230



                       Ex          Ey          Ez

      C #1    x    0.147132    0.000000    0.000000
      C #1    y    0.000000    0.147132    0.000000
      C #1    z    0.000000    0.000000    0.616835

      O #2    x   -0.147132    0.000000    0.000000
      O #2    y    0.000000   -0.147132    0.000000
      O #2    z    0.000000    0.000000   -0.616835

 @CHECKOUT-I, Total execution time (CPU/WALL):      718.50/     125.62 seconds.
--executable xvdint finished with status     0 in      125.78 seconds (walltime).
 --invoking executable--
/nfs/workspaces/public/cfour_mpi/bin/xjoda
  @GTFLGS-I, Hessian will be transformed to curvilinear coordinates.
  @GTFLGS-I, Hessian will be transformed to curvilinear coordinates.
  igrd and ihes are                      0                     1
  gradient from JOBARC 
   0.000000000000000   0.000000000000000   0.624907907236968
   0.000000000000000   0.000000000000000  -0.624907907236968
 
  @PROJFCM-I, Projecting force constant matrix onto totally symmetric subspace.
  Largest difference between matrix elements of symmetrized
  and unsymmetrized FCM :    -0.9556799796E-12.
  read isotopes from ZMAT file 
 
  Summary of diagonal Born-Oppenheimer correction at the correlated level
  The total diagonal Born-Oppenheimer correction (DBOC) is:      0.0040090192 a.u.
  The total diagonal Born-Oppenheimer correction (DBOC) is:        879.878020 cm-1
  The total diagonal Born-Oppenheimer correction (DBOC) is:            10.526 kJ/mole
  hellooooooo 
  readis is  F
 
 @CHECKOUT-I, Total execution time (CPU/WALL):        0.01/       0.08 seconds.
--executable xjoda finished with status     0 in        0.14 seconds (walltime).
  The final electronic energy is      -113.118475276211058 a.u. 
  This computation required                         4553.84 seconds (walltime).
