 --invoking executable--
/nfs/workspaces/public/cfour_mpi/bin/xjoda


   *************************************************************************
         <<<     CCCCCC     CCCCCC   |||     CCCCCC     CCCCCC   >>>
       <<<      CCC        CCC       |||    CCC        CCC         >>>
      <<<      CCC        CCC        |||   CCC        CCC            >>>
    <<<        CCC        CCC        |||   CCC        CCC              >>>
      <<<      CCC        CCC        |||   CCC        CCC            >>>
       <<<      CCC        CCC       |||    CCC        CCC         >>>
         <<<     CCCCCC     CCCCCC   |||     CCCCCC     CCCCCC   >>>
   *************************************************************************

     ****************************************************************
     * CFOUR Coupled-Cluster techniques for Computational Chemistry *
     ****************************************************************
 

   Department of Chemistry                Institut fuer Physikalische Chemie
   University of Florida                  Universitaet Mainz
   Gainesville, FL 32611, USA             D-55099 Mainz, Germany

   Department of Chemistry                Fakultaet fuer Chemie und Biowiss.
   Johns Hopkins University               Karlsruher Institut fuer Technologie
   Baltimore, MD 21218, USA               D-76131 Karlsruhe, Germany

   Department of Chemistry                Department of Physical Chemistry
   Southern Methodist University          Eotvos Lorand University
   Dallas, TX 75275, USA                  H-1053 Budapest, Hungary

 
                       Version 2.1
 
                     vincent.theory.phys.ucl.ac.uk                     
                     Fri 28 Feb 11:59:25 GMT 2025                      
                     integer*8 version is running
 
********************************************************************************
*                          Input from ZMAT file                                *
********************************************************************************
Carbon Monoxide DBOC calculation                                                
C                                                                               
O 1 r                                                                           
                                                                                
r=1.6137931034482758                                                            
                                                                                
                                                                                
*CFOUR(CALC=CCSD,BASIS=AUG-PCVQZ,SCF_CONV=10                                    
CC_CONV=14,DBOC=ON,MEMORY=500000000                                             
ZFIELD=-200)                                                                    
                                                                                
%isotopes                                                                       
13                                                                              
16                                                                              
********************************************************************************
  @GTFLGS-I, Hessian will be transformed to curvilinear coordinates.
    -------------------------------------------------------------------
                    CFOUR Control Parameters 
    -------------------------------------------------------------------
        External           Internal           Value            Units
          Name               Name
    -------------------------------------------------------------------
       ABCDTYPE             IABCDT         STANDARD    [  0]    ***   
       ANHARMONIC           IANHAR         OFF         [  0]    ***   
       ANH_ALGORIT          IANALG         STANDARD    [  0]    ***   
       ANH_DERIVAT          IANDER         SECOND      [  1]    ***   
       ANH_MODE             ANHMOD         VIBRATION   [  0]    ***   
       ANH_STEPSIZ          ICUBST             50000          x 10-6  
       ANH_SYMMETR          IANHSM         ABELIAN     [  0]    ***   
       AO_LADDERS           IAOLAD         SINGLEPASS  [  1]    ***   
       AV_SCF               IAVSCF         OFF         [  0]    ***   
       BASIS                IBASIS         AUG-PCVQZ   [ 52]    ***   
       BOTHVECTORS          BOTHVC         OFF         [  0]    ***   
       BOX_POTENT           IPIAB          OFF         [  0]    ***   
       BREIT                IBREIT         OFF         [  0]    ***   
       BRUCK_CONV           IBRTOL          10D-  4             ***   
       BRUECKNER            IBRKNR         OFF         [  0]    ***   
       BUFFERSIZE           IBUFFS              4096            ***   
       CACHE_RECS           ICHREC             10               ***   
       CALCLEVEL            ICLLVL         CCSD        [ 10]    ***   
       CCORBOPT             ICCORB         OFF         [  0]  x 0.01  
       CC_CONV              ICCCNV          10D- 14             ***   
       CC_EXPORDER          ICCEOR              5               ***   
       CC_EXTRAPOL          ICCEXT         DIIS        [  1]    ***   
       CC_GUESS             ICCGES         MP2         [  0]    ***   
       CC_MAXCYC            ICCCYC            100              cycles 
       CC_PROGRAM           ICCPRO         VCC         [  0]    ***   
       CHARGE               ICHRGE              0               ***   
       CHOLESKY             ICHOLE         OFF         [  0]    ***   
       CIS_CONV             ICISTL              5               ***   
       COMM_SIZE            IPSIZE            ***               ***   
       CONSTANT             ICONST         OLD         [  1]    ***   
       CONTINUUM            ICONTU         NONE        [  0]    ***   
       CONTRACTION          ICNTYP         GENERAL     [  1]    ***   
       COORDINATES          ICOORD         INTERNAL    [  0]    ***   
       CPHF_CONVER          ICPHFT          10D- 16             ***   
       CPHF_MAXCYC          ICPHFC             64              cycles 
       CUBIC                ICUBIC         OFF         [  0]    ***   
       CURVILINEAR          ICURVY         ON          [  1]    ***   
       DBOC                 IDBOC          ON          [  1]    ***   
       DCT                  IDCT           OFF         [  0]    ***   
       DERIV_LEV            IDRLVL         SECOND      [  2]    ***   
       DEVMEM_SIZE          IDVMEM          50000000           MByte  
       DIAG_MRCC            IEOMST          10D-  0             ***   
       DIFF_TYPE            IDIFTY         RELAXED     [  0]    ***   
       DIRECT               IDIRCT         OFF         [  0]    ***   
       DROPMO               IDRPMO      NONE         
       ECP                  IECP           OFF         [  0]    ***   
       EIGENVECTOR          IVEC                1               ***   
       EL_ANHARM            IELANH         OFF         [  0]    ***   
       EOMFOLLOW            IEOMSR         ENERGY      [  0]    ***   
       EOMIP                IEOMIP         OFF         [  0]    ***   
       EOMLEVEL             HBARFM         SAME        [  0]    ***   
       EOM_MRCC             IMRCCE         NEW         [  1]    ***   
       EOM_NONIT            EOMNON         OFF         [  0]    ***   
       EOM_NSING            IEOMSI          10D-  0             ***   
       EOM_NSTATES          IMRCCD         DAVIDSON    [  0]    ***   
       EOM_NTRIP            IEOMTR          10D-  0             ***   
       EOM_ORDER            IEXORD         ENERGY      [  0]    ***   
       EOM_PROPSTA          IEOMST              0               ***   
       ESTATE_CONV          IEXTOL          10D-  5             ***   
       ESTATE_DIAG          IEXDIG         ITERATIVE   [  0]    ***   
       ESTATE_LOCK          IESLOC         ON          [  1]    ***   
       ESTATE_MAXC          IEXMXC             40               ***   
       ESTATE_PROP          IEXPRP         OFF         [  0]    ***   
       EVAL_HESS            IRECAL              0            # of cyc.
       EXCITATION           IEXCIT              0               ***   
       EXCITE               IEXCIT         NONE        [  0]    ***   
       EXTERN_POT           IEXPOT         OFF         [  0]    ***   
       FCGRADNEW            IFCGNW         OFF         [  0]    ***   
       FC_FIELD             IFINFC              0             x 10-6  
       FD_CALTYPE           IFDCAL         GRADONLY    [  0]    ***   
       FD_PROJECT           IFDPRJ         OFF         [  1]    ***   
       FD_STEPSIZE          IDISFD              0            10-4 bohr
       FD_USEGROUP          IFDGRP         FULL        [  0]    ***   
       FILE_RECSIZ          IFLREC              4096           words  
       FINITE_PERT          IFIPER              0             x 10-6  
       FIXGEOM              IFIXGM         OFF         [  0]    ***   
       FOCK                 IFOCK          AO          [  1]    ***   
       FREQ_ALGORI          IVIALG         STANDARD    [  0]    ***   
       FROZEN_CORE          IFROCO         OFF         [  0]    ***   
       GAMMA_ABCD           IGABCD         STORE       [  0]    ***   
       GAMMA_ABCI           IGABCI         STORE       [  0]    ***   
       GENBAS_1             IGNBS1              0               ***   
       GENBAS_2             IGNBS2              0               ***   
       GENBAS_3             IGNBS3              0               ***   
       GENBAS_4             IGNBS4              0               ***   
       GEO_CONV             ICONTL              5              H/bohr 
       GEO_MAXCYC           IOPTCY             50               ***   
       GEO_MAXSTEP          IMXSTP            300            millibohr
       GEO_METHOD           INR            SINGLE_POINT[  5]    ***   
       GIAO                 IGIAO          OFF         [  1]    ***   
       GIMIC                IGIMIC         OFF         [  0]    ***   
       GRID                 IGRID          OFF         [  0]    ***   
       GRID_ALGO            IGALGO         SERIAL      [  0]    ***   
       GUESS                IGUESS         MOREAD      [  0]    ***   
       HBAR                 IHBAR          OFF         [  0]    ***   
       HESS_TYPE            IHESTP         SCF         [  0]    ***   
       HF2_FILE             IHF2Fl         USE         [  1]    ***   
       HFSTABILITY          ISTABL         OFF         [  0]    ***   
       INCORE               INCORE         OFF         [  0]    ***   
       INPUT_MRCC           IMRCC          ON          [  1]    ***   
       INTEGRALS            INTTYP         VMOL        [  1]    ***   
       JODA_PRINT           IJPRNT              0               ***   
       KEYWORD_OUT          IDMPKW         NO          [  0]    ***   
       LINDEP_TOL           ILINDP              8               ***   
       LINEQ_CONV           IZTACN          10D-  7           cycles  
       LINEQ_EXPOR          ILMAXD              5               ***   
       LINEQ_MAXCY          ILMAXC            100               ***   
       LINEQ_TYPE           ILTYPE         DIIS        [  1]    ***   
       LOCK_ORBOCC          ILOCOC         OFF         [  0]    ***   
       MEMORY_SIZE          IMEMSZ         500000000           words  
       MEM_UNIT             IMEMU          INTEGERWORDS[  0]    ***   
       MRCC                 IMRCCC         OFF         [  0]    ***   
       MULTIPLICTY          IMULTP              1               ***   
       NACOUPLING           IVCOUP         OFF         [  0]    ***   
       NEGEVAL              IDIE           ABORT       [  0]    ***   
       NEWNORM              INEWNO         OFF         [  0]    ***   
       NON-HF               INONHF         OFF         [  0]    ***   
       NTOP_TAMP            ITOPT2             15               ***   
       NUC_MODEL            INUCMO         POINT       [  0]    ***   
       OCCUPATION           IOCCU   ESTIMATED BY SCF 
       OPEN-SHELL           IOPEN          SPIN-ORBITAL[  0]    ***   
       OPTVIB               IOPTVB         OFF         [  0]    ***   
       ORBITALS             IORBTP         STANDARD    [  0]    ***   
       PARALLEL             IPARAL         ON          [  1]    ***   
       PARA_INT             IPINTS         ON          [  1]    ***   
       PARA_PRINT           IPPRIN              0               ***   
       PERT_ORB             IPTORB         STANDARD    [  0]    ***   
       POINTS               IGRDFD              0               ***   
       PRINT                IPRNT               0               ***   
       PROPS                IPROPS         OFF         [  0]    ***   
       PROP_INTEGR          IINTYP         INTERNAL    [  0]    ***   
       PSI                  IPSI           OFF         [  0]    ***   
       QC_ALG               IQCALG         FLM         [  0]    ***   
       QC_LINALG            IQCLIN         TRIDIAG     [  2]    ***   
       QC_MAXCYC            IQCMAX          10D-100           cycles  
       QC_MAXSCFCY          IQCMSC          10D- 15           cycles  
       QC_RTRUST            IQCRTR          10D-  0           x 10-3  
       QC_SKIPSCF           IQCSKI         OFF         [  0]    ***   
       QC_START             IQCSTA          10D-  1             ***   
       QRHFGUESS            IQGUES         OFF         [  0]    ***   
       QUARTIC              IQUART         OFF         [  0]    ***   
       RAMAN_INT            IRAMIN         OFF         [  0]    ***   
       RAMAN_ORB            IRAMRE         UNRELAXED   [  0]    ***   
       RDO                  IRDOFM         ON          [  1]    ***   
       REDUCE_REPR          REDREP         Ir          [  0]    ***   
       REFERENCE            IREFNC         RHF         [  0]    ***   
       RELATIVIST           IRELAT         OFF         [  0]    ***   
       RELAX_DENS           IRDENS         ON          [  1]    ***   
       RESET_FLAGS          IRESET         OFF         [  0]    ***   
       RESTART_CC           ICCRES         OFF         [  0]    ***   
       ROT_EVEC             ROTVEC              0               ***   
       SAVE_INTS            ISVINT         OFF         [  0]    ***   
       SCALE_ON             ISTCRT              0               ***   
       SCF_CONV             ISCFCV          10D- 10             ***   
       SCF_DAMPING          IDAMP               0             x 10-3  
       SCF_EXPORDE          IRPPOR              6               ***   
       SCF_EXPSTAR          IRPPLS              8               ***   
       SCF_EXTRAPO          IRPP           ON          [  1]    ***   
       SCF_MAXCYC           ISCFCY            150              cycles 
       SCF_NOSTOP           ISCFST         OFF         [  0]    ***   
       SCF_PRINT            ISCFPR              0               ***   
       SCF_PROG             ISCFPR         SCF         [  0]    ***   
       SD_FIELD             IFINSD              0             x 10-6  
       SOPERT               IPERSO         OFF         [  0]    ***   
       SPHERICAL            IDFGHI         ON          [  1]    ***   
       SPINORBIT            ISOCAL         OFF         [  0]    ***   
       SPINROTATIO          ISRCON         OFF         [  0]    ***   
       SPIN_FLIP            ISPFLP         OFF         [  0]    ***   
       SPIN_ORBIT           ISPORB         OFF         [  0]    ***   
       SPIN_SCAL            ISCSMP         OFF         [  0]    ***   
       STEEPSCALE           ISTPSC              1000          x 10-3  
       SUBGROUP             ISUBGP         DEFAULT     [  0]    ***   
       SUBGRPAXIS           ISBXYZ         X           [  0]    ***   
       SYMMETRY             ISYM           ON          [  0]    ***   
       SYM_CHECK            ISYMCK         OVERRIDE    [  1]    ***   
       T3_EXTRAPOL          IT3EXT         OFF         [  0]    ***   
       T4_EXTRAPOL          IT4EXP         OFF         [  0]    ***   
       TAMP_SUM             IEVERY              5               ***   
       TESTSUITE            ITESTS         OFF         [  0]    ***   
       THERMOCH             ITHERM         OFF         [  0]    ***   
       TOL_CHOLESK          ITOLCH          10D-  4             ***   
       TRANGRAD             IRESRM         OFF         [  0]    ***   
       TRANS_INV            ITRAIN         IGNORE      [  1]    ***   
       TREAT_PERT           ITREAT         SIMULTANEOUS[  0]    ***   
       TRIP_ALGORI          ITRALG         NORMAL      [  0]    ***   
       UIJ_THRESHO          IUIJTH              1               ***   
       UNITS                IUNITS         ANGSTROM    [  0]    ***   
       UNOS                 IUNOS          OFF         [  0]    ***   
       UPDATE_HESS          IHUPDT         ON          [  1]    ***   
       VIBPHASE             ISETPH         STANDARD    [  0]    ***   
       VIBRATION            IVIB           ANALYTIC    [  1]    ***   
       VIB_ALGORIT          IGEALG         STANDARD    [  0]    ***   
       VNATORB              IVNORB         OFF         [  0]    ***   
       VTRAN                IVTRAN         FULL/PARTIAL[  0]    ***   
       XFIELD               IXEFLD              0             x 10-6  
       XFORM_TOL            IXFTOL          10D- 11             ***   
       YFIELD               IYEFLD              0             x 10-6  
       ZFIELD               IZEFLD            ***             x 10-6  
       ZSCALE_EXP           IZEXPS         OFF         [  0]    ***   
    -------------------------------------------------------------------
   2 entries found in Z-matrix 
   Job Title : Carbon Monoxide DBOC calculation                                                
   There are  1 unique internal coordinates.
   Of these,  0 will be optimized.
   User supplied Z-matrix: 
--------------------------------------------------------------------------------
       SYMBOL    BOND      LENGTH    ANGLE     ANGLE     DIHED     ANGLE
                  TO      (ANGST)    WRT      (DEG)      WRT      (DEG)
--------------------------------------------------------------------------------
        C    
        O          1         r    
                  *Initial values for internal coordinates* 
                      Name             Value
                        r               1.6137931034
--------------------------------------------------------------------------------
  read isotopes from ZMAT file 
   Rotational constants (in cm-1): 
          0.9024758435             0.9024758435
   Rotational constants (in MHz): 
      27055.5489310787         27055.5489310787
********************************************************************************
   The full molecular point group is CXv .
   The largest Abelian subgroup of the full molecular point group is C2v .
   The computational point group is C2v .
********************************************************************************
--------------------------------------------------------------------------------
   Analysis of internal coordinates specified by Z-matrix 
--------------------------------------------------------------------------------
   *The nuclear repulsion energy is   15.739626564102563 a.u.
   *There is   1 degree of freedom within the tot. symm. molecular subspace.
   *Z-matrix requests optimization of   0 coordinates.
   *The optimization is constrained.
   *The following   1 parameters can have non-zero 
    derivatives within the totally symmetric subspace:
             r    [ 1]
   *The following   0 parameters are to be optimized:

   *The following coordinates must be varied in an  unconstrained optimization.
             r    [ 1]
--------------------------------------------------------------------------------


 ----------------------------------------------------------------
         Coordinates used in calculation (QCOMP) 
 ----------------------------------------------------------------
 Z-matrix   Atomic            Coordinates (in bohr)
  Symbol    Number           X              Y              Z
 ----------------------------------------------------------------
     C         6        -0.00000000     0.00000000     1.68211878
     O         8         0.00000000     0.00000000    -1.36750885
 ----------------------------------------------------------------
 
   Interatomic distance matrix (Angstroms) 
 
                 C             O    
                [ 1]        [ 2]
  C    [ 1]     0.00000
  O    [ 2]     1.61379     0.00000
 rotcon2
   Rotational constants (in cm-1): 
          0.9024758435             0.0000000000
   Rotational constants (in MHz): 
      27055.5489310787             0.0000000000
  ECPDATA file not present.   Using default ECPDATA. 
  @GTFLGS-I, Hessian will be transformed to curvilinear coordinates.
  There are  218 basis functions.
 @CHECKOUT-I, Total execution time (CPU/WALL):        0.17/       0.31 seconds.
--executable xjoda finished with status     0 in        0.34 seconds (walltime).
 --invoking executable--
/nfs/workspaces/public/cfour_mpi/bin/xvmol
 SERIAL VERSION OF MOLECULE STARTED
********************************************************************************
                    INPUT FROM MOL FILE
********************************************************************************
INTGRL        1    0    1    0    0    0    0    0    0                         
         *** CFOUR Program System (Release V0.1) ***                            
Carbon Monoxide DBOC calculation                                                
    2    2 X  Y       0.10E-08              0    0                              
   9999.00      3.00                                                            
          6.00000000    1    5    1    1    1    1    1                         
C #1  -0.000000000000000   0.000000000000000   1.682118776517984                
   16    9                                                                      
   33980.0000000000       9.100000000000000E-005 -1.900000000000000E-005        
  0.000000000000000E+000  0.000000000000000E+000  0.000000000000000E+000        
  0.000000000000000E+000  0.000000000000000E+000  0.000000000000000E+000        
  0.000000000000000E+000                                                        
   5089.00000000000       7.040000000000000E-004 -1.510000000000000E-004        
  0.000000000000000E+000  0.000000000000000E+000  0.000000000000000E+000        
  0.000000000000000E+000  0.000000000000000E+000  0.000000000000000E+000        
  0.000000000000000E+000                                                        
   1157.00000000000       3.693000000000000E-003 -7.850000000000000E-004        
  0.000000000000000E+000  0.000000000000000E+000  0.000000000000000E+000        
  0.000000000000000E+000  0.000000000000000E+000  0.000000000000000E+000        
  0.000000000000000E+000                                                        
   326.600000000000       1.536000000000000E-002 -3.324000000000000E-003        
  0.000000000000000E+000  0.000000000000000E+000  0.000000000000000E+000        
  0.000000000000000E+000  0.000000000000000E+000  0.000000000000000E+000        
  0.000000000000000E+000                                                        
   106.100000000000       5.292900000000000E-002 -1.151200000000000E-002        
  0.000000000000000E+000  0.000000000000000E+000  0.000000000000000E+000        
  0.000000000000000E+000  0.000000000000000E+000  0.000000000000000E+000        
  0.000000000000000E+000                                                        
   38.1100000000000       0.147043000000000      -3.416000000000000E-002        
  0.000000000000000E+000  0.000000000000000E+000  0.000000000000000E+000        
  0.000000000000000E+000  0.000000000000000E+000  0.000000000000000E+000        
  0.000000000000000E+000                                                        
   14.7500000000000       0.305631000000000      -7.717300000000001E-002        
  0.000000000000000E+000  0.000000000000000E+000  0.000000000000000E+000        
  0.000000000000000E+000  0.000000000000000E+000  0.000000000000000E+000        
  0.000000000000000E+000                                                        
   6.03500000000000       0.399345000000000      -0.141493000000000             
  0.000000000000000E+000  0.000000000000000E+000  0.000000000000000E+000        
  0.000000000000000E+000  0.000000000000000E+000  0.000000000000000E+000        
  0.000000000000000E+000                                                        
   2.53000000000000       0.217051000000000      -0.118019000000000             
  0.000000000000000E+000  0.000000000000000E+000  0.000000000000000E+000        
  0.000000000000000E+000  0.000000000000000E+000  0.000000000000000E+000        
  0.000000000000000E+000                                                        
  0.735500000000000       1.589400000000000E-002  0.273806000000000             
   1.00000000000000       0.000000000000000E+000  0.000000000000000E+000        
  0.000000000000000E+000  0.000000000000000E+000  0.000000000000000E+000        
  0.000000000000000E+000                                                        
  0.290500000000000      -3.084000000000000E-003  0.586510000000000             
  0.000000000000000E+000   1.00000000000000       0.000000000000000E+000        
  0.000000000000000E+000  0.000000000000000E+000  0.000000000000000E+000        
  0.000000000000000E+000                                                        
  0.111100000000000       9.779999999999999E-004  0.285430000000000             
  0.000000000000000E+000  0.000000000000000E+000   1.00000000000000             
  0.000000000000000E+000  0.000000000000000E+000  0.000000000000000E+000        
  0.000000000000000E+000                                                        
   7.21600000000000       0.000000000000000E+000  0.000000000000000E+000        
  0.000000000000000E+000  0.000000000000000E+000  0.000000000000000E+000        
   1.00000000000000       0.000000000000000E+000  0.000000000000000E+000        
  0.000000000000000E+000                                                        
   19.5700000000000       0.000000000000000E+000  0.000000000000000E+000        
  0.000000000000000E+000  0.000000000000000E+000  0.000000000000000E+000        
  0.000000000000000E+000   1.00000000000000       0.000000000000000E+000        
  0.000000000000000E+000                                                        
   53.0730000000000       0.000000000000000E+000  0.000000000000000E+000        
  0.000000000000000E+000  0.000000000000000E+000  0.000000000000000E+000        
  0.000000000000000E+000  0.000000000000000E+000   1.00000000000000             
  0.000000000000000E+000                                                        
  4.145000000000000E-002  0.000000000000000E+000  0.000000000000000E+000        
  0.000000000000000E+000  0.000000000000000E+000  0.000000000000000E+000        
  0.000000000000000E+000  0.000000000000000E+000  0.000000000000000E+000        
   1.00000000000000                                                             
   10    8                                                                      
   34.5100000000000       5.378000000000000E-003  0.000000000000000E+000        
  0.000000000000000E+000  0.000000000000000E+000  0.000000000000000E+000        
  0.000000000000000E+000  0.000000000000000E+000  0.000000000000000E+000        
   7.91500000000000       3.613200000000000E-002  0.000000000000000E+000        
  0.000000000000000E+000  0.000000000000000E+000  0.000000000000000E+000        
  0.000000000000000E+000  0.000000000000000E+000  0.000000000000000E+000        
   2.36800000000000       0.142493000000000       0.000000000000000E+000        
  0.000000000000000E+000  0.000000000000000E+000  0.000000000000000E+000        
  0.000000000000000E+000  0.000000000000000E+000  0.000000000000000E+000        
  0.813200000000000       0.342150000000000        1.00000000000000             
  0.000000000000000E+000  0.000000000000000E+000  0.000000000000000E+000        
  0.000000000000000E+000  0.000000000000000E+000  0.000000000000000E+000        
  0.289000000000000       0.463864000000000       0.000000000000000E+000        
   1.00000000000000       0.000000000000000E+000  0.000000000000000E+000        
  0.000000000000000E+000  0.000000000000000E+000  0.000000000000000E+000        
  0.100700000000000       0.250028000000000       0.000000000000000E+000        
  0.000000000000000E+000   1.00000000000000       0.000000000000000E+000        
  0.000000000000000E+000  0.000000000000000E+000  0.000000000000000E+000        
   8.18200000000000       0.000000000000000E+000  0.000000000000000E+000        
  0.000000000000000E+000  0.000000000000000E+000   1.00000000000000             
  0.000000000000000E+000  0.000000000000000E+000  0.000000000000000E+000        
   24.1860000000000       0.000000000000000E+000  0.000000000000000E+000        
  0.000000000000000E+000  0.000000000000000E+000  0.000000000000000E+000        
   1.00000000000000       0.000000000000000E+000  0.000000000000000E+000        
   71.4940000000000       0.000000000000000E+000  0.000000000000000E+000        
  0.000000000000000E+000  0.000000000000000E+000  0.000000000000000E+000        
  0.000000000000000E+000   1.00000000000000       0.000000000000000E+000        
  3.218000000000000E-002  0.000000000000000E+000  0.000000000000000E+000        
  0.000000000000000E+000  0.000000000000000E+000  0.000000000000000E+000        
  0.000000000000000E+000  0.000000000000000E+000   1.00000000000000             
    6    6                                                                      
   1.84800000000000        1.00000000000000       0.000000000000000E+000        
  0.000000000000000E+000  0.000000000000000E+000  0.000000000000000E+000        
  0.000000000000000E+000                                                        
  0.649000000000000       0.000000000000000E+000   1.00000000000000             
  0.000000000000000E+000  0.000000000000000E+000  0.000000000000000E+000        
  0.000000000000000E+000                                                        
  0.228000000000000       0.000000000000000E+000  0.000000000000000E+000        
   1.00000000000000       0.000000000000000E+000  0.000000000000000E+000        
  0.000000000000000E+000                                                        
   8.65600000000000       0.000000000000000E+000  0.000000000000000E+000        
  0.000000000000000E+000   1.00000000000000       0.000000000000000E+000        
  0.000000000000000E+000                                                        
   33.2130000000000       0.000000000000000E+000  0.000000000000000E+000        
  0.000000000000000E+000  0.000000000000000E+000   1.00000000000000             
  0.000000000000000E+000                                                        
  7.660000000000000E-002  0.000000000000000E+000  0.000000000000000E+000        
  0.000000000000000E+000  0.000000000000000E+000  0.000000000000000E+000        
   1.00000000000000                                                             
    4    4                                                                      
   1.41900000000000        1.00000000000000       0.000000000000000E+000        
  0.000000000000000E+000  0.000000000000000E+000                                
  0.485000000000000       0.000000000000000E+000   1.00000000000000             
  0.000000000000000E+000  0.000000000000000E+000                                
   24.6940000000000       0.000000000000000E+000  0.000000000000000E+000        
   1.00000000000000       0.000000000000000E+000                                
  0.187000000000000       0.000000000000000E+000  0.000000000000000E+000        
  0.000000000000000E+000   1.00000000000000                                     
    2    2                                                                      
   1.01100000000000        1.00000000000000       0.000000000000000E+000        
  0.424000000000000       0.000000000000000E+000   1.00000000000000             
          8.00000000    1    5    1    1    1    1    1                         
O #2   0.000000000000000   0.000000000000000  -1.367508849938785                
   16    9                                                                      
   61420.0000000000       9.000000000000001E-005 -2.000000000000000E-005        
  0.000000000000000E+000  0.000000000000000E+000  0.000000000000000E+000        
  0.000000000000000E+000  0.000000000000000E+000  0.000000000000000E+000        
  0.000000000000000E+000                                                        
   9199.00000000000       6.980000000000001E-004 -1.590000000000000E-004        
  0.000000000000000E+000  0.000000000000000E+000  0.000000000000000E+000        
  0.000000000000000E+000  0.000000000000000E+000  0.000000000000000E+000        
  0.000000000000000E+000                                                        
   2091.00000000000       3.664000000000000E-003 -8.290000000000000E-004        
  0.000000000000000E+000  0.000000000000000E+000  0.000000000000000E+000        
  0.000000000000000E+000  0.000000000000000E+000  0.000000000000000E+000        
  0.000000000000000E+000                                                        
   590.900000000000       1.521800000000000E-002 -3.508000000000000E-003        
  0.000000000000000E+000  0.000000000000000E+000  0.000000000000000E+000        
  0.000000000000000E+000  0.000000000000000E+000  0.000000000000000E+000        
  0.000000000000000E+000                                                        
   192.300000000000       5.242300000000000E-002 -1.215600000000000E-002        
  0.000000000000000E+000  0.000000000000000E+000  0.000000000000000E+000        
  0.000000000000000E+000  0.000000000000000E+000  0.000000000000000E+000        
  0.000000000000000E+000                                                        
   69.3200000000000       0.145921000000000      -3.626100000000000E-002        
  0.000000000000000E+000  0.000000000000000E+000  0.000000000000000E+000        
  0.000000000000000E+000  0.000000000000000E+000  0.000000000000000E+000        
  0.000000000000000E+000                                                        
   26.9700000000000       0.305258000000000      -8.299200000000000E-002        
  0.000000000000000E+000  0.000000000000000E+000  0.000000000000000E+000        
  0.000000000000000E+000  0.000000000000000E+000  0.000000000000000E+000        
  0.000000000000000E+000                                                        
   11.1000000000000       0.398508000000000      -0.152090000000000             
  0.000000000000000E+000  0.000000000000000E+000  0.000000000000000E+000        
  0.000000000000000E+000  0.000000000000000E+000  0.000000000000000E+000        
  0.000000000000000E+000                                                        
   4.68200000000000       0.216980000000000      -0.115331000000000             
  0.000000000000000E+000  0.000000000000000E+000  0.000000000000000E+000        
  0.000000000000000E+000  0.000000000000000E+000  0.000000000000000E+000        
  0.000000000000000E+000                                                        
   1.42800000000000       1.759400000000000E-002  0.288979000000000             
   1.00000000000000       0.000000000000000E+000  0.000000000000000E+000        
  0.000000000000000E+000  0.000000000000000E+000  0.000000000000000E+000        
  0.000000000000000E+000                                                        
  0.554700000000000      -2.502000000000000E-003  0.586128000000000             
  0.000000000000000E+000   1.00000000000000       0.000000000000000E+000        
  0.000000000000000E+000  0.000000000000000E+000  0.000000000000000E+000        
  0.000000000000000E+000                                                        
  0.206700000000000       9.540000000000000E-004  0.277624000000000             
  0.000000000000000E+000  0.000000000000000E+000   1.00000000000000             
  0.000000000000000E+000  0.000000000000000E+000  0.000000000000000E+000        
  0.000000000000000E+000                                                        
   12.9740000000000       0.000000000000000E+000  0.000000000000000E+000        
  0.000000000000000E+000  0.000000000000000E+000  0.000000000000000E+000        
   1.00000000000000       0.000000000000000E+000  0.000000000000000E+000        
  0.000000000000000E+000                                                        
   34.9000000000000       0.000000000000000E+000  0.000000000000000E+000        
  0.000000000000000E+000  0.000000000000000E+000  0.000000000000000E+000        
  0.000000000000000E+000   1.00000000000000       0.000000000000000E+000        
  0.000000000000000E+000                                                        
   93.8810000000000       0.000000000000000E+000  0.000000000000000E+000        
  0.000000000000000E+000  0.000000000000000E+000  0.000000000000000E+000        
  0.000000000000000E+000  0.000000000000000E+000   1.00000000000000             
  0.000000000000000E+000                                                        
  6.959000000000000E-002  0.000000000000000E+000  0.000000000000000E+000        
  0.000000000000000E+000  0.000000000000000E+000  0.000000000000000E+000        
  0.000000000000000E+000  0.000000000000000E+000  0.000000000000000E+000        
   1.00000000000000                                                             
   10    8                                                                      
   63.4200000000000       6.044000000000000E-003  0.000000000000000E+000        
  0.000000000000000E+000  0.000000000000000E+000  0.000000000000000E+000        
  0.000000000000000E+000  0.000000000000000E+000  0.000000000000000E+000        
   14.6600000000000       4.179900000000000E-002  0.000000000000000E+000        
  0.000000000000000E+000  0.000000000000000E+000  0.000000000000000E+000        
  0.000000000000000E+000  0.000000000000000E+000  0.000000000000000E+000        
   4.45900000000000       0.161143000000000       0.000000000000000E+000        
  0.000000000000000E+000  0.000000000000000E+000  0.000000000000000E+000        
  0.000000000000000E+000  0.000000000000000E+000  0.000000000000000E+000        
   1.53100000000000       0.356731000000000        1.00000000000000             
  0.000000000000000E+000  0.000000000000000E+000  0.000000000000000E+000        
  0.000000000000000E+000  0.000000000000000E+000  0.000000000000000E+000        
  0.530200000000000       0.448309000000000       0.000000000000000E+000        
   1.00000000000000       0.000000000000000E+000  0.000000000000000E+000        
  0.000000000000000E+000  0.000000000000000E+000  0.000000000000000E+000        
  0.175000000000000       0.244940000000000       0.000000000000000E+000        
  0.000000000000000E+000   1.00000000000000       0.000000000000000E+000        
  0.000000000000000E+000  0.000000000000000E+000  0.000000000000000E+000        
   14.4750000000000       0.000000000000000E+000  0.000000000000000E+000        
  0.000000000000000E+000  0.000000000000000E+000   1.00000000000000             
  0.000000000000000E+000  0.000000000000000E+000  0.000000000000000E+000        
   42.7300000000000       0.000000000000000E+000  0.000000000000000E+000        
  0.000000000000000E+000  0.000000000000000E+000  0.000000000000000E+000        
   1.00000000000000       0.000000000000000E+000  0.000000000000000E+000        
   126.140000000000       0.000000000000000E+000  0.000000000000000E+000        
  0.000000000000000E+000  0.000000000000000E+000  0.000000000000000E+000        
  0.000000000000000E+000   1.00000000000000       0.000000000000000E+000        
  5.348000000000000E-002  0.000000000000000E+000  0.000000000000000E+000        
  0.000000000000000E+000  0.000000000000000E+000  0.000000000000000E+000        
  0.000000000000000E+000  0.000000000000000E+000   1.00000000000000             
    6    6                                                                      
   3.77500000000000        1.00000000000000       0.000000000000000E+000        
  0.000000000000000E+000  0.000000000000000E+000  0.000000000000000E+000        
  0.000000000000000E+000                                                        
   1.30000000000000       0.000000000000000E+000   1.00000000000000             
  0.000000000000000E+000  0.000000000000000E+000  0.000000000000000E+000        
  0.000000000000000E+000                                                        
  0.444000000000000       0.000000000000000E+000  0.000000000000000E+000        
   1.00000000000000       0.000000000000000E+000  0.000000000000000E+000        
  0.000000000000000E+000                                                        
   14.9270000000000       0.000000000000000E+000  0.000000000000000E+000        
  0.000000000000000E+000   1.00000000000000       0.000000000000000E+000        
  0.000000000000000E+000                                                        
   57.5440000000000       0.000000000000000E+000  0.000000000000000E+000        
  0.000000000000000E+000  0.000000000000000E+000   1.00000000000000             
  0.000000000000000E+000                                                        
  0.154000000000000       0.000000000000000E+000  0.000000000000000E+000        
  0.000000000000000E+000  0.000000000000000E+000  0.000000000000000E+000        
   1.00000000000000                                                             
    4    4                                                                      
   2.66600000000000        1.00000000000000       0.000000000000000E+000        
  0.000000000000000E+000  0.000000000000000E+000                                
  0.859000000000000       0.000000000000000E+000   1.00000000000000             
  0.000000000000000E+000  0.000000000000000E+000                                
   26.4830000000000       0.000000000000000E+000  0.000000000000000E+000        
   1.00000000000000       0.000000000000000E+000                                
  0.324000000000000       0.000000000000000E+000  0.000000000000000E+000        
  0.000000000000000E+000   1.00000000000000                                     
    2    2                                                                      
   1.84600000000000        1.00000000000000       0.000000000000000E+000        
  0.714000000000000       0.000000000000000E+000   1.00000000000000             
FINISH                                                                          
 
********************************************************************************
 ONE- AND TWO-ELECTRON INTEGRALS OVER SYMMETRY-ADAPTED AOS ARE CALCULATED.

  SPHERICAL HARMONICS ARE USED.
  
  INTEGRALS LESS THAN  0.10E-13 ARE NEGLECTED.

  NUCLEAR REPULSION ENERGY :   15.7396265641 A.U.
  @MOLECU-I, ONE ELECTRON INTEGRALS (CPU/WALL):        0.07/       0.09 SECONDS.
  @TWOEL-I,    4426189 INTEGRALS OF SYMMETRY TYPE  I I I I
  @TWOEL-I,   19100688 INTEGRALS OF SYMMETRY TYPE  I J I J
  @TWOEL-I,   10057028 INTEGRALS OF SYMMETRY TYPE  I I J J
  @TWOEL-I,   14115234 INTEGRALS OF SYMMETRY TYPE  I J K L
  @TWOEL-I, TOTAL NUMBER OF 2-E INTEGRALS   47699139.
  @MOLECU-I, TWO ELECTRON INTEGRALS (CPU/WALL):      229.72/      31.50 SECONDS.
 @CHECKOUT-I, Total execution time (CPU/WALL):      229.81/      31.62 seconds.

Running with 14 threads/proc

--executable xvmol finished with status     0 in       31.69 seconds (walltime).
 --invoking executable--
/nfs/workspaces/public/cfour_mpi/bin/xvmol2ja
 @GETMEM-I,  Allocated    3814 MB of main memory.
 @CHECKOUT-I, Total execution time (CPU/WALL):        0.21/       0.13 seconds.
--executable xvmol2ja finished with status     0 in        0.16 seconds (walltime).
 --invoking executable--
/nfs/workspaces/public/cfour_mpi/bin/xvprop
 @GETMEM-I,  Allocated    3814 MB of main memory.
   Property integrals will be calculated.
    --------------------------------------------------------------
                                   Property evaluated at 
    Property type                X             Y             Z
    --------------------------------------------------------------
    Dipole moment               ----          ----          ----  
    Quadrupole moment           ----          ----          ----  
    Octopole moment             ----          ----          ----  
    Relativisitic corr.         ----          ----          ----  
    Second moment            0.0000000     0.0000000     0.0000000
    Electron density         0.0000000     0.0000000     1.6821188
    Electron density         0.0000000     0.0000000    -1.3675088
    Field gradient           0.0000000     0.0000000     1.6821188
    Field gradient           0.0000000     0.0000000    -1.3675088
    Potential                0.0000000     0.0000000     1.6821188
    Potential                0.0000000     0.0000000    -1.3675088
    --------------------------------------------------------------
 @CHECKOUT-I, Total execution time (CPU/WALL):        1.51/       1.57 seconds.
--executable xvprop finished with status     0 in        1.60 seconds (walltime).
 --invoking executable--
/nfs/workspaces/public/cfour_mpi/bin/xvscf
  There are  218 functions in the AO basis.

  There are 4 irreducible representations.

       Irrep        # of functions
         1                 86
         2                 52
         3                 52
         4                 28


  Parameters for SCF calculation: 
        SCF reference function:  RHF  
  Maximum number of iterations:  150
     Full symmetry point group: CXv 
     Computational point group: C2v 
        Initial density matrix: MOREAD                 
     SCF convergence tolerance: 10**(-10)
  DIIS convergence acceleration:  ON
          Latest start for DIIS:   8
                     DIIS order:   6

  Memory information:    2523578 words required.
  Fock matrices are constructed from AO integral file.
 @GETMEM-I,  Allocated      19 MB of main memory.
  Initialization and symmetry analysis required      0.002 seconds.

  Adding electric field perturbation to one-electron Hamiltonian.
  Field direction     : Z
  Field strength      : -0.0002000 a.u.

  @INITGES-I, Occupancies from core Hamiltonian:

          Alpha population by irrep:   5    1    1    0
           Beta population by irrep:   5    1    1    0


 total no. of electrons in initial guess :  0.000000000000000E+000
  --------------------------------------------------------------------
  Iteration         Total Energy            Largest Density Difference
  --------------------------------------------------------------------
       0            15.739457092474906              0.0000000000D+00
   current occupation vector 
     5  1  1  0
     5  1  1  0
       1           -93.610255678181375              0.1755144636D+02
   current occupation vector 
     5  1  1  0
     5  1  1  0
       2           -97.972036032505144              0.1755143218D+02
   current occupation vector 
     5  1  1  0
     5  1  1  0
       3          -100.321728617004553              0.6728144537D+01
   current occupation vector 
     5  1  1  0
     5  1  1  0
       4           -95.183618339272584              0.6724145868D+01
   current occupation vector 
     5  1  1  0
     5  1  1  0
       5          -100.228110301976457              0.6980472887D+01
   current occupation vector 
     5  1  1  0
     5  1  1  0
       6           -94.990381553253968              0.6980872536D+01
   current occupation vector 
     5  1  1  0
     5  1  1  0
       7          -100.219360231277150              0.6994293863D+01
   current occupation vector 
     5  1  1  0
     5  1  1  0
       8           -94.984394900205132              0.6994318997D+01
   current occupation vector 
     5  1  1  0
     5  1  1  0
       9          -107.423463199784379              0.5879333833D+01
   current occupation vector 
     5  1  1  0
     5  1  1  0
      10          -110.573509603081064              0.1328527906D+01
   current occupation vector 
     5  1  1  0
     5  1  1  0
      11          -112.378648971265392              0.1045007223D+01
   current occupation vector 
     5  1  1  0
     5  1  1  0
      12          -112.503032182272307              0.4923878417D+00
   current occupation vector 
     5  1  1  0
     5  1  1  0
      13          -112.519911361769374              0.1266518983D+00
   current occupation vector 
     5  1  1  0
     5  1  1  0
      14          -112.525055862343407              0.8290514149D-01
   current occupation vector 
     5  1  1  0
     5  1  1  0
      15          -112.525436073392626              0.2401299961D-01
   current occupation vector 
     5  1  1  0
     5  1  1  0
      16          -112.525767166317365              0.3424845414D-01
   current occupation vector 
     5  1  1  0
     5  1  1  0
      17          -112.525894665470787              0.2434894433D-01
   current occupation vector 
     5  1  1  0
     5  1  1  0
      18          -112.525921063313376              0.1448832597D-01
   current occupation vector 
     5  1  1  0
     5  1  1  0
      19          -112.525921297147420              0.1253963216D-02
   current occupation vector 
     5  1  1  0
     5  1  1  0
      20          -112.525921298888278              0.7886077483D-04
   current occupation vector 
     5  1  1  0
     5  1  1  0
      21          -112.525921298997247              0.1532608918D-04
   current occupation vector 
     5  1  1  0
     5  1  1  0
      22          -112.525921298997105              0.2155337164D-05
   current occupation vector 
     5  1  1  0
     5  1  1  0
      23          -112.525921298997616              0.3418589052D-06
   current occupation vector 
     5  1  1  0
     5  1  1  0
      24          -112.525921298997218              0.1703270638D-06
   current occupation vector 
     5  1  1  0
     5  1  1  0
      25          -112.525921298998270              0.5154033977D-08
   current occupation vector 
     5  1  1  0
     5  1  1  0
      26          -112.525921298997702              0.3754585309D-08
   current occupation vector 
     5  1  1  0
     5  1  1  0
      27          -112.525921298998099              0.5382929436D-08
   current occupation vector 
     5  1  1  0
     5  1  1  0
      28          -112.525921298997446              0.1857242360D-08
   current occupation vector 
     5  1  1  0
     5  1  1  0
      29          -112.525921298997645              0.3177875740D-09
   current occupation vector 
     5  1  1  0
     5  1  1  0
      30          -112.525921298997758              0.1521418547D-09
   current occupation vector 
     5  1  1  0
     5  1  1  0

  SCF has converged.

 Density matrix saved to file den.dat
 total electron number:   13.9999999999999     
     E(SCF)=      -112.525921298998213              0.3863975806D-10

  Eigenvector printing suppressed.

 @PUTMOS-I, Writing converged MOs to NEWMOS. 
 @PUTMOS-I, Symmetry   1 Full Blocks 21 Partial Blocksize   2
 @PUTMOS-I, Symmetry   2 Full Blocks 13 Partial Blocksize   0
 @PUTMOS-I, Symmetry   3 Full Blocks 13 Partial Blocksize   0
 @PUTMOS-I, Symmetry   4 Full Blocks  7 Partial Blocksize   0
 @PUTFOCK-I, Writing converged Fock matrix to NEWFOCK. 
 @PUTFOCK-I, Symmetry   1 Full Blocks 21 Partial Blocksize   2
 @PUTFOCK-I, Symmetry   2 Full Blocks 13 Partial Blocksize   0
 @PUTFOCK-I, Symmetry   3 Full Blocks 13 Partial Blocksize   0
 @PUTFOCK-I, Symmetry   4 Full Blocks  7 Partial Blocksize   0


 
  ORBITAL EIGENVALUES (ALPHA)  (1H = 27.2113834 eV)

       MO #        E(hartree)               E(eV)           FULLSYM    COMPSYM
       ----   --------------------   --------------------   -------   ---------
    1     1         -20.6439079504        -561.7492941137     SG+        A1 (1)
    2     2         -11.5248391290        -313.6068161638     SG+        A1 (1)
    3     3          -1.2722993604         -34.6210256965     SG+        A1 (1)
    4     4          -0.8062686761         -21.9396860700     SG+        A1 (1)
    5     5          -0.5275746424         -14.3560358676     SG+        A1 (1)
    6    87          -0.4950567290         -13.4711784578      PI        B1 (2)
    7   139          -0.4950567290         -13.4711784578      PI        B2 (3)
  +++++++++++++++++++++++++++++++++++++++++++++++++++++++++++++++++++++++++++++
    8   140          -0.0093502844          -0.2544341735      PI        B2 (3)
    9    88          -0.0093502844          -0.2544341735      PI        B1 (2)
   10     6           0.0585515025           1.5932673818     SG+        A1 (1)
   11     7           0.0691783572           1.8824388020     SG+        A1 (1)
   12    89           0.0811964539           2.2094678366      PI        B1 (2)
   13   141           0.0811964539           2.2094678366      PI        B2 (3)
   14     8           0.1573313847           4.2812046296     SG+        A1 (1)
   15    90           0.1806025000           4.9144438693      PI        B1 (2)
   16   142           0.1806025000           4.9144438693      PI        B2 (3)
   17     9           0.1940213545           5.2795894638     SG+        A1 (1)
   18    10           0.2213383184           6.0229218424      DE        A1 (1)
   19   191           0.2213383184           6.0229218424      DE        A2 (4)
   20   143           0.2839228341           7.7259330937      PI        B2 (3)
   21    91           0.2839228341           7.7259330937      PI        B1 (2)
   22    11           0.3008157746           8.1856133741     SG+        A1 (1)
   23    12           0.3086064358           8.3976080445     SG+        A1 (1)
   24    92           0.4054683036          11.0333534649      PI        B1 (2)
   25   144           0.4054683036          11.0333534649      PI        B2 (3)
   26    13           0.4174791476          11.3601851458     SG+        A1 (1)
   27    14           0.5140044895          13.9867732326     SG+        A1 (1)
   28    15           0.5502797893          14.9738743252      DE        A1 (1)
   29   192           0.5502797893          14.9738743252      DE        A2 (4)
   30    93           0.6234384101          16.9646216039      PI        B1 (2)
   31   145           0.6234384101          16.9646216039      PI        B2 (3)
   32    16           0.7036458219          19.1471762374     SG+        A1 (1)
   33    94           0.7303701754          19.8743828669      PH        B1 (2)
   34   146           0.7303701754          19.8743828669      PH        B2 (3)
   35    17           0.7371916138          20.0600036420      DE        A1 (1)
   36   193           0.7371916138          20.0600036420      DE        A2 (4)
   37   147           0.7746799024          21.0801118372      PI        B2 (3)
   38    95           0.7746799024          21.0801118372      PI        B1 (2)
   39    18           0.8171114445          22.2347327975     SG+        A1 (1)
   40   194           0.8573793309          23.3304776937      DE        A2 (4)
   41    19           0.8573793309          23.3304776937      DE        A1 (1)
   42    96           0.8812577213          23.9802417273      PI        B1 (2)
   43   148           0.8812577213          23.9802417273      PI        B2 (3)
   44    20           0.8882040252          24.1692602678     SG+        A1 (1)
   45    97           1.0420716294          28.3562106377      PI        B1 (2)
   46   149           1.0420716294          28.3562106377      PI        B2 (3)
   47    21           1.1351895515          30.8900781166     SG+        A1 (1)
   48    22           1.3557221335          36.8910747575     SG+        A1 (1)
   49    98           1.4205259590          38.6544764988      PH        B1 (2)
   50   150           1.4205259590          38.6544764988      PH        B2 (3)
   51    99           1.4822602178          40.3343510858      PI        B1 (2)
   52   151           1.4822602178          40.3343510858      PI        B2 (3)
   53   195           1.5861324451          43.1608580881      DE        A2 (4)
   54    23           1.5861324451          43.1608580881      DE        A1 (1)
   55    24           1.5876096886          43.2010559259     SG+        A1 (1)
   56   100           1.6390993053          44.6021596285      PI        B1 (2)
   57   152           1.6390993053          44.6021596285      PI        B2 (3)
   58   196           1.6737548156          45.5451840040      DE        A2 (4)
   59    25           1.6737548156          45.5451840040      DE        A1 (1)
   60    26           1.9199616329          52.2448121060     SG+        A1 (1)
   61    27           1.9404006412          52.8009857965     SG+        A1 (1)
   62   101           2.0641136648          56.1673883133      PI        B1 (2)
   63   153           2.0641136648          56.1673883133      PI        B2 (3)
   64   197           2.0656969595          56.2104719544      PI        A2 (4)
   65    28           2.0656969595          56.2104719544      PI        A1 (1)
   66    29           2.1234164958          57.7811003846      DE        A1 (1)
   67   198           2.1234164958          57.7811003846      DE        A2 (4)
   68   154           2.1969114592          59.7810000113      PH        B2 (3)
   69   102           2.1969114592          59.7810000113      PH        B1 (2)
   70   103           2.2072609051          60.0626227524      PH        B1 (2)
   71   155           2.2072609051          60.0626227524      PH        B2 (3)
   72    30           2.2181399330          60.3586561505     SG+        A1 (1)
   73   104           2.2188878422          60.3790077966      PI        B1 (2)
   74   156           2.2188878422          60.3790077966      PI        B2 (3)
   75   199           2.2804640774          62.0545823398      DE        A2 (4)
   76    31           2.2804640774          62.0545823398      DE        A1 (1)
   77    32           2.3882280021          64.9869878118     SG+        A1 (1)
   78   105           2.5023113529          68.0913536093      PI        B1 (2)
   79   157           2.5023113529          68.0913536093      PI        B2 (3)
   80   106           2.5995224485          70.7366020029      PI        B1 (2)
   81   158           2.5995224485          70.7366020029      PI        B2 (3)
   82   200           2.6237854821          71.3968327131      DE        A2 (4)
   83    33           2.6237854821          71.3968327131      DE        A1 (1)
   84    34           2.6431451293          71.9236354960     SG+        A1 (1)
   85    35           2.8942586131          78.7567807797     SG+        A1 (1)
   86   107           3.3654474012          91.5784795458      PI        B1 (2)
   87   159           3.3654474012          91.5784795458      PI        B2 (3)
   88    36           3.7109901023         100.9811744673      PI        A1 (1)
   89   201           3.7109901023         100.9811744673      PI        A2 (4)
   90    37           3.8843762476         105.6992513441     SG+        A1 (1)
   91   160           3.9042305176         106.2395134958      PH        B2 (3)
   92   108           3.9042305176         106.2395134958      PH        B1 (2)
   93    38           4.1032456521         111.6549906245     SG+        A1 (1)
   94   161           4.1411307772         112.6858972872      PH        B2 (3)
   95   109           4.1411307772         112.6858972872      PH        B1 (2)
   96   110           4.1543975112         113.0469034729      PI        B1 (2)
   97   162           4.1543975112         113.0469034729      PI        B2 (3)
   98   202           4.1731585945         113.5574185040      DE        A2 (4)
   99    39           4.1731585945         113.5574185040      DE        A1 (1)
  100   203           4.2975689122         116.9427953565      DE        A2 (4)
  101    40           4.2975689122         116.9427953565      DE        A1 (1)
  102    41           4.3844017071         119.3056358312     SG+        A1 (1)
  103   111           4.5175683241         122.9292837021      PI        B1 (2)
  104   163           4.5175683241         122.9292837021      PI        B2 (3)
  105   204           4.6528931593         126.6116596773      DE        A2 (4)
  106    42           4.6528931593         126.6116596773      DE        A1 (1)
  107    43           4.8044073097         130.7345693153     SG+        A1 (1)
  108   112           5.1292563667         139.5741615509      PI        B1 (2)
  109   164           5.1292563667         139.5741615510      PI        B2 (3)
  110    44           5.1782234201         140.9066228153     SG+        A1 (1)
  111   113           5.3480430203         145.5276490645      PI        B1 (2)
  112   165           5.3480430203         145.5276490646      PI        B2 (3)
  113   205           5.8229310928         158.4500104792      PI        A2 (4)
  114    45           5.8229310928         158.4500104792      PI        A1 (1)
  115   166           5.8939432809         160.3823503546      PH        B2 (3)
  116   114           5.8939432809         160.3823503546      PH        B1 (2)
  117    46           6.0206038147         163.8289587018     SG+        A1 (1)
  118   206           6.0848245417         165.5764935269      DE        A2 (4)
  119    47           6.0848245417         165.5764935269      DE        A1 (1)
  120   115           6.1200445786         166.5348794543      PI        B1 (2)
  121   167           6.1200445786         166.5348794543      PI        B2 (3)
  122    48           6.1741075522         168.0060077560     SG+        A1 (1)
  123    49           6.2923436836         171.2233764585      DE        A1 (1)
  124   207           6.2923436836         171.2233764585      DE        A2 (4)
  125   116           6.3487001785         172.7569146477      PH        B1 (2)
  126   168           6.3487001785         172.7569146477      PH        B2 (3)
  127    50           6.4820401080         176.3852785937      DE        A1 (1)
  128   208           6.4820401080         176.3852785937      DE        A2 (4)
  129   117           6.7640989259         184.0604892280      PI        B1 (2)
  130   169           6.7640989259         184.0604892280      PI        B2 (3)
  131    51           7.0822502628         192.7178272355     SG+        A1 (1)
  132   118           7.1893223588         195.6314070918      PI        B1 (2)
  133   170           7.1893223588         195.6314070918      PI        B2 (3)
  134    52           7.7222741690         210.1337631331     SG+        A1 (1)
  135    53           9.5073021741         258.7068445592     SG+        A1 (1)
  136   171           9.6967639997         263.8623629355      PI        B2 (3)
  137   119           9.6967639997         263.8623629357      PI        B1 (2)
  138   209          10.6599325751         290.0715123180      PI        A2 (4)
  139    54          10.6599325751         290.0715123180      PI        A1 (1)
  140    55          10.6794074492         290.6014505855     SG+        A1 (1)
  141   120          10.7336953554         292.0786996148      PH        B1 (2)
  142   172          10.7336953554         292.0786996148      PH        B2 (3)
  143   210          10.9544914503         298.0868668068      DE        A2 (4)
  144    56          10.9544914503         298.0868668068      DE        A1 (1)
  145   173          10.9782324640         298.7328926315      PI        B2 (3)
  146   121          10.9782324640         298.7328926315      PI        B1 (2)
  147    57          11.1525362681         303.4759402748     SG+        A1 (1)
  148   174          11.8964512499         323.7188960597      PH        B2 (3)
  149   122          11.8964512499         323.7188960597      PH        B1 (2)
  150   211          11.9857574901         326.1490424021      DE        A2 (4)
  151    58          11.9857574901         326.1490424023      DE        A1 (1)
  152   175          12.3114700563         335.0121319192      PI        B2 (3)
  153   123          12.3114700563         335.0121319192      PI        B1 (2)
  154    59          12.5574398617         341.7053105988     SG+        A1 (1)
  155    60          12.7258959455         346.2892336813      DE        A1 (1)
  156   212          12.7258959455         346.2892336814      DE        A2 (4)
  157   176          13.1071776064         356.6644351386      PI        B2 (3)
  158   124          13.1071776064         356.6644351387      PI        B1 (2)
  159    61          13.4573317895         366.1926148656     SG+        A1 (1)
  160    62          17.3131896313         471.1158409353     SG+        A1 (1)
  161   125          18.7046841537         508.9803318827      PI        B1 (2)
  162   177          18.7046841537         508.9803318828      PI        B2 (3)
  163    63          19.5921826256         533.1303930687     SG+        A1 (1)
  164   213          26.2506863786         714.3174915615      DE        A2 (4)
  165    64          26.2506863786         714.3174915615      DE        A1 (1)
  166   126          26.5298187084         721.9130684068      PI        B1 (2)
  167   178          26.5298187084         721.9130684068      PI        B2 (3)
  168    65          26.9868829250         734.3504180438     SG+        A1 (1)
  169   179          33.4034669405         908.9545458069      PI        B2 (3)
  170   127          33.4034669405         908.9545458080      PI        B1 (2)
  171    66          34.2966381056         933.2589688222     SG+        A1 (1)
  172    67          35.5515759508         967.4075636708     SG+        A1 (1)
  173   214          47.0743108735        1280.9571214696      DE        A2 (4)
  174    68          47.0743108735        1280.9571214696      DE        A1 (1)
  175   128          47.2632540371        1286.0985263355      PI        B1 (2)
  176   180          47.2632540371        1286.0985263355      PI        B2 (3)
  177    69          47.4669724851        1291.6419871297     SG+        A1 (1)
  178    70          63.7370385365        1734.3729923981     SG+        A1 (1)
  179   129          66.2918138372        1803.8919626050      PI        B1 (2)
  180   181          66.2918138372        1803.8919626050      PI        B2 (3)
  181    71          66.9473225203        1821.7292607039     SG+        A1 (1)
  182   130          98.5039656220        2680.4291749617      PH        B1 (2)
  183   182          98.5039656220        2680.4291749617      PH        B2 (3)
  184   215          98.5178374015        2680.8066452710      DE        A2 (4)
  185    72          98.5178374015        2680.8066452710      DE        A1 (1)
  186   183          98.5308560938        2681.1609018981      PI        B2 (3)
  187   131          98.5308560938        2681.1609018981      PI        B1 (2)
  188    73          98.5401354585        2681.4134062488     SG+        A1 (1)
  189   216         103.3125377664        2811.2770751881      DE        A2 (4)
  190    74         103.3125377664        2811.2770751883      DE        A1 (1)
  191   184         103.3146701554        2811.3351004431      PH        B2 (3)
  192   132         103.3146701554        2811.3351004432      PH        B1 (2)
  193   185         103.3353883371        2811.8988708280      PI        B2 (3)
  194   133         103.3353883371        2811.8988708280      PI        B1 (2)
  195    75         103.3444361678        2812.1450748196     SG+        A1 (1)
  196   217         114.9547537401        3128.0778776742      DE        A2 (4)
  197    76         114.9547537401        3128.0778776742      DE        A1 (1)
  198   134         115.0906416072        3131.7755745262      PI        B1 (2)
  199   186         115.0906416072        3131.7755745262      PI        B2 (3)
  200    77         115.2981309236        3137.4216458642     SG+        A1 (1)
  201   187         116.7112372955        3175.8742251363      PI        B2 (3)
  202   135         116.7112372955        3175.8742251374      PI        B1 (2)
  203    78         117.4377280391        3195.6430432980     SG+        A1 (1)
  204    79         121.8323168710        3315.2258848871     SG+        A1 (1)
  205   218         198.5568676180        5403.0070514564      DE        A2 (4)
  206    80         198.5568676180        5403.0070514564      DE        A1 (1)
  207   188         198.6599086796        5405.8109412903      PI        B2 (3)
  208   136         198.6599086796        5405.8109412904      PI        B1 (2)
  209    81         198.7646610578        5408.6613984138     SG+        A1 (1)
  210    82         216.2619551919        5884.7869775605     SG+        A1 (1)
  211   137         224.7752890158        6116.4465682549      PI        B1 (2)
  212   189         224.7752890158        6116.4465682550      PI        B2 (3)
  213    83         225.2927031476        6130.5261225710     SG+        A1 (1)
  214   190         395.2462754119       10755.1979376551      PI        B2 (3)
  215   138         395.2462754119       10755.1979376560      PI        B1 (2)
  216    84         395.8105217704       10770.5518616475     SG+        A1 (1)
  217    85         508.5725135488       13838.9616528773     SG+        A1 (1)
  218    86         895.0751329422       24356.2326142974     SG+        A1 (1)


  VSCF finished.

 @CHECKOUT-I, Total execution time (CPU/WALL):       53.71/      13.03 seconds.
--executable xvscf finished with status     0 in       13.06 seconds (walltime).
 --invoking executable--
/nfs/workspaces/public/cfour_mpi/bin/xvtran
 @GETMEM-I,  Allocated    3814 MB of main memory.
  Full RHF integral transformation
  Transformation of IIII integrals :
  1 pass through the AO integral file was required.
     4426189 AO integrals were read.
     8610902 MO integrals were written to HF2.
  Transformation of IIJJ integrals :
  1 pass through the AO integral file was required.
    10057028 AO integrals were read.
    14375809 MO integrals were written to HF2.
  Transformation of IJIJ integrals :
  1 pass through the AO integral file was required.
    19100688 AO integrals were read.
    26763855 MO integrals were written to HF2.
  Transformation of IJKL integrals :
  1 pass through the AO integral file was required.
    14115234 AO integrals were read.
    18095211 MO integrals were written to HF2.
  Summary of active molecular orbitals: 
------------------------------------------------------------------------
 
  Index      Eigenvalue    Symmetry    Index      Eigenvalue    Symmetry
------------------------------------------------------------------------
     1       -20.6439080        1       110         4.1411308        2
     2       -11.5248391        1       111         4.1543975        2
     3        -1.2722994        1       112         4.5175683        2
     4        -0.8062687        1       113         5.1292564        2
     5        -0.5275746        1       114         5.3480430        2
     6        -0.4950567        2       115         5.8939433        2
     7        -0.4950567        3       116         6.1200446        2
     8         0.0585515        1       117         6.3487002        2
     9         0.0691784        1       118         6.7640989        2
    10         0.1573314        1       119         7.1893224        2
    11         0.1940214        1       120         9.6967640        2
    12         0.2213383        1       121        10.7336954        2
    13         0.3008158        1       122        10.9782325        2
    14         0.3086064        1       123        11.8964512        2
    15         0.4174791        1       124        12.3114701        2
    16         0.5140045        1       125        13.1071776        2
    17         0.5502798        1       126        18.7046842        2
    18         0.7036458        1       127        26.5298187        2
    19         0.7371916        1       128        33.4034669        2
    20         0.8171114        1       129        47.2632540        2
    21         0.8573793        1       130        66.2918138        2
    22         0.8882040        1       131        98.5039656        2
    23         1.1351896        1       132        98.5308561        2
    24         1.3557221        1       133       103.3146702        2
    25         1.5861324        1       134       103.3353883        2
    26         1.5876097        1       135       115.0906416        2
    27         1.6737548        1       136       116.7112373        2
    28         1.9199616        1       137       198.6599087        2
    29         1.9404006        1       138       224.7752890        2
    30         2.0656970        1       139       395.2462754        2
    31         2.1234165        1       140        -0.0093503        3
    32         2.2181399        1       141         0.0811965        3
    33         2.2804641        1       142         0.1806025        3
    34         2.3882280        1       143         0.2839228        3
    35         2.6237855        1       144         0.4054683        3
    36         2.6431451        1       145         0.6234384        3
    37         2.8942586        1       146         0.7303702        3
    38         3.7109901        1       147         0.7746799        3
    39         3.8843762        1       148         0.8812577        3
    40         4.1032457        1       149         1.0420716        3
    41         4.1731586        1       150         1.4205260        3
    42         4.2975689        1       151         1.4822602        3
    43         4.3844017        1       152         1.6390993        3
    44         4.6528932        1       153         2.0641137        3
    45         4.8044073        1       154         2.1969115        3
    46         5.1782234        1       155         2.2072609        3
    47         5.8229311        1       156         2.2188878        3
    48         6.0206038        1       157         2.5023114        3
    49         6.0848245        1       158         2.5995224        3
    50         6.1741076        1       159         3.3654474        3
    51         6.2923437        1       160         3.9042305        3
    52         6.4820401        1       161         4.1411308        3
    53         7.0822503        1       162         4.1543975        3
    54         7.7222742        1       163         4.5175683        3
    55         9.5073022        1       164         5.1292564        3
    56        10.6599326        1       165         5.3480430        3
    57        10.6794074        1       166         5.8939433        3
    58        10.9544915        1       167         6.1200446        3
    59        11.1525363        1       168         6.3487002        3
    60        11.9857575        1       169         6.7640989        3
    61        12.5574399        1       170         7.1893224        3
    62        12.7258959        1       171         9.6967640        3
    63        13.4573318        1       172        10.7336954        3
    64        17.3131896        1       173        10.9782325        3
    65        19.5921826        1       174        11.8964512        3
    66        26.2506864        1       175        12.3114701        3
    67        26.9868829        1       176        13.1071776        3
    68        34.2966381        1       177        18.7046842        3
    69        35.5515760        1       178        26.5298187        3
    70        47.0743109        1       179        33.4034669        3
    71        47.4669725        1       180        47.2632540        3
    72        63.7370385        1       181        66.2918138        3
    73        66.9473225        1       182        98.5039656        3
    74        98.5178374        1       183        98.5308561        3
    75        98.5401355        1       184       103.3146702        3
    76       103.3125378        1       185       103.3353883        3
    77       103.3444362        1       186       115.0906416        3
    78       114.9547537        1       187       116.7112373        3
    79       115.2981309        1       188       198.6599087        3
    80       117.4377280        1       189       224.7752890        3
    81       121.8323169        1       190       395.2462754        3
    82       198.5568676        1       191         0.2213383        4
    83       198.7646611        1       192         0.5502798        4
    84       216.2619552        1       193         0.7371916        4
    85       225.2927031        1       194         0.8573793        4
    86       395.8105218        1       195         1.5861324        4
    87       508.5725135        1       196         1.6737548        4
    88       895.0751329        1       197         2.0656970        4
    89        -0.0093503        2       198         2.1234165        4
    90         0.0811965        2       199         2.2804641        4
    91         0.1806025        2       200         2.6237855        4
    92         0.2839228        2       201         3.7109901        4
    93         0.4054683        2       202         4.1731586        4
    94         0.6234384        2       203         4.2975689        4
    95         0.7303702        2       204         4.6528932        4
    96         0.7746799        2       205         5.8229311        4
    97         0.8812577        2       206         6.0848245        4
    98         1.0420716        2       207         6.2923437        4
    99         1.4205260        2       208         6.4820401        4
   100         1.4822602        2       209        10.6599326        4
   101         1.6390993        2       210        10.9544915        4
   102         2.0641137        2       211        11.9857575        4
   103         2.1969115        2       212        12.7258959        4
   104         2.2072609        2       213        26.2506864        4
   105         2.2188878        2       214        47.0743109        4
   106         2.5023114        2       215        98.5178374        4
   107         2.5995224        2       216       103.3125378        4
   108         3.3654474        2       217       114.9547537        4
   109         3.9042305        2       218       198.5568676        4
------------------------------------------------------------------------
  -20.6439079504382       -11.5248391290451       -1.27229936043930     
 -0.806268676144702      -0.527574642443525      -0.495056729009213     
 -0.495056729009195       5.855150245049392E-002  6.917835724473020E-002
  0.157331384687112       0.194021354452995       0.221338318375581     
  0.300815774550215       0.308606435808407       0.417479147563119     
  0.514004489479651       0.550279789348582       0.703645821894007     
  0.737191613785030       0.817111444526668       0.857379330949451     
  0.888204025225131        1.13518955146460        1.35572213346169     
   1.58613244514829        1.58760968859347        1.67375481556736     
   1.91996163289598        1.94040064117034        2.06569695954446     
   2.12341649578150        2.21813993295530        2.28046407739101     
   2.38822800210158        2.62378548211068        2.64314512932943     
   2.89425861309467        3.71099010230019        3.88437624762897     
   4.10324565213017        4.17315859450334        4.29756891215167     
   4.38440170708685        4.65289315931427        4.80440730974828     
   5.17822342010272        5.82293109284560        6.02060381471794     
[...]
 Convergence information after    15 iterations: 
 Largest element of residual vector : -0.12232560E-05.
 Largest element of DIIS residual   : -0.66323722E-06.
 Convergence information after    16 iterations: 
 Largest element of residual vector : -0.65884038E-06.
 Largest element of DIIS residual   : -0.22896815E-06.
 Convergence information after    17 iterations: 
 Largest element of residual vector : -0.30262674E-06.
 Largest element of DIIS residual   : -0.14711395E-06.
 Convergence information after    18 iterations: 
 Largest element of residual vector : -0.77875455E-07.
 Largest element of DIIS residual   : -0.29016579E-07.
 Perturbed amplitude equations converged in    18 iterations.
  Dominant contributions to perturbed wavefunction:
    7    7  140   45  -0.2351866307 ABAB
    7    7   45  140  -0.2351866307 ABAB
    7    7  140   22  -0.2193970671 ABAB
    7    7   22  140  -0.2193970671 ABAB
    7    7  140   39  -0.1960636889 ABAB
    7    7   39  140  -0.1960636889 ABAB
    7    0   36    0   0.1860011401 AA  
    7    7  140   28   0.1820568879 ABAB
    7    7   28  140   0.1820568879 ABAB
    7    7  140   57  -0.1592409445 ABAB
    7    7   57  140  -0.1592409445 ABAB
    7    0   45    0   0.1572524581 AA  
    7    7  140   32  -0.1570523927 ABAB
    7    7   32  140  -0.1570523927 ABAB
    7    0   39    0   0.1514830811 AA  
    7    7  140   29  -0.1505027572 ABAB
    7    7   29  140  -0.1505027572 ABAB
    7    0   22    0   0.1477841261 AA  
    7    6   45   89  -0.1466132978 ABAB
    6    7   89   45  -0.1466132978 ABAB
  norm of converged amps    1.64350425419608     
 Starting iterative solution of the perturbed Lambda equations.
 The DIIS procedure is used to accelerate convergence.
 Convergence criterion is 10**(-7).
 Maximum number of iterations is 100.
 Convergence information after     1 iterations: 
 Largest element of residual vector :  0.78394459E-01.
 Largest element of DIIS residual   :  0.78394459E-01.
 Convergence information after     2 iterations: 
 Largest element of residual vector :  0.17175357E-01.
 Largest element of DIIS residual   :  0.13032347E-01.
 Convergence information after     3 iterations: 
 Largest element of residual vector :  0.70515244E-02.
 Largest element of DIIS residual   : -0.62570244E-02.
 Convergence information after     4 iterations: 
 Largest element of residual vector : -0.36946371E-02.
 Largest element of DIIS residual   : -0.33770733E-02.
 Convergence information after     5 iterations: 
 Largest element of residual vector : -0.32834777E-02.
 Largest element of DIIS residual   : -0.26890131E-02.
 Convergence information after     6 iterations: 
 Largest element of residual vector : -0.17633104E-02.
 Largest element of DIIS residual   : -0.78456375E-03.
 Convergence information after     7 iterations: 
 Largest element of residual vector : -0.82853596E-03.
 Largest element of DIIS residual   : -0.41051909E-03.
 Convergence information after     8 iterations: 
 Largest element of residual vector : -0.30043505E-03.
 Largest element of DIIS residual   : -0.18982219E-03.
 Convergence information after     9 iterations: 
 Largest element of residual vector : -0.13068681E-03.
 Largest element of DIIS residual   : -0.74257400E-04.
 Convergence information after    10 iterations: 
 Largest element of residual vector : -0.65709161E-04.
 Largest element of DIIS residual   : -0.31966750E-04.
 Convergence information after    11 iterations: 
 Largest element of residual vector : -0.15683813E-04.
 Largest element of DIIS residual   : -0.65035920E-05.
 Convergence information after    12 iterations: 
 Largest element of residual vector : -0.59097154E-05.
 Largest element of DIIS residual   : -0.36273053E-05.
 Convergence information after    13 iterations: 
 Largest element of residual vector : -0.18344591E-05.
 Largest element of DIIS residual   : -0.16245636E-05.
 Convergence information after    14 iterations: 
 Largest element of residual vector : -0.15329545E-05.
 Largest element of DIIS residual   : -0.95506585E-06.
 Convergence information after    15 iterations: 
 Largest element of residual vector : -0.79312308E-06.
 Largest element of DIIS residual   : -0.42627601E-06.
 Convergence information after    16 iterations: 
 Largest element of residual vector : -0.40654735E-06.
 Largest element of DIIS residual   : -0.14108970E-06.
 Convergence information after    17 iterations: 
 Largest element of residual vector : -0.18937933E-06.
 Largest element of DIIS residual   : -0.91148545E-07.
 Perturbed Lambda equations converged in    17 iterations.
  Dominant contributions to perturbed wavefunction:
    7    7  140   45  -0.1904299558 ABAB
    7    7   45  140  -0.1904299558 ABAB
    7    7  140   22  -0.1768823417 ABAB
    7    7   22  140  -0.1768823417 ABAB
    7    7  140   39  -0.1567923187 ABAB
    7    7   39  140  -0.1567923187 ABAB
    7    7  140   28   0.1495085048 ABAB
    7    7   28  140   0.1495085048 ABAB
    7    7  140   57  -0.1278214224 ABAB
    7    7   57  140  -0.1278214224 ABAB
    7    7  140   32  -0.1272984263 ABAB
    7    7   32  140  -0.1272984263 ABAB
    7    7  140   29  -0.1181685378 ABAB
    7    7   29  140  -0.1181685378 ABAB
    7    6   45   89  -0.1176957511 ABAB
    6    7   89   45  -0.1176957511 ABAB
    7    7  140   54   0.1103265106 ABAB
    7    7   54  140   0.1103265106 ABAB
    7    6   22   89  -0.1085092761 ABAB
    6    7   89   22  -0.1085092761 ABAB
        The DBOC first-order density matrix is being calculated 
             (Symmetry block 3, perturbation   2)
 term   2.82058666948781     
 final tnorm  0.783717396076852     
  norm contr. I: |<0|L dT/dx|0>|^2   0.000000000000000E+000
  norm contr. II: <0|[nabla(1+L)e-T][nabla e^T]|0>   2.82058666948781     
  total norm contribution   2.82058666948781     
 oo  9.726336464160766E-003
 vv  -21.1023490817264     
 vo  5.963429622200397E-002
  Correlated perturbed 1-el contribution to DBOC  -21.0329884490402       cm**-1
  SUM_I |dc_I/dx|^2 contribution to DBOC   10.6186897331646       cm**-1
 
 
  The total diagonal Born-Oppenheimer correction (DBOC) is:      0.0040096107 a.u.
  The total diagonal Born-Oppenheimer correction (DBOC) is:        880.007839 cm-1
 
 Total CC energy including DBOC  -113.071059100448     
 First-order density matrix is being calculated  (Symmetry block 3, perturbation   2)
 Calculation of the contributions of <pq||rs> to dI(i,j)/dx required   4.5 seconds.
 Calculation of the contributions of <pq||rs> to dI(a,b)/dx required  16.7 seconds.
 Calculation of the contributions of <pq||rs> to dI(i,a)/dx required   9.9 seconds.
 First-order Z-vector equations are solved for 1 perturbation.
 Convergence reached after  19 iterations.
        U*G(pq,rs) contribution is being calculated
             (Symmetry block 3, perturbation   2)

 CCSD contribution to force constants 

        0.0000000000        0.0000000000        0.0000000000
        0.0000000000        0.0000000000        0.0000000000
        0.0000000000        0.0000000000        0.0000000000
        0.0000000000        0.0000000000        0.0000000000
        0.0000000000        0.0000000000        0.0000000000
        0.0000000000        0.0000000000        0.0000000000
        0.0000000000        0.0000000000        0.0000000000
        0.0000000000        0.0000000000        0.0000000000
        0.0000000000        0.0000000000        0.0000000000
        0.0000000000        0.0000000000        0.0000000000
        0.0000000000        0.0000000000        0.0000000000
        0.0000000000       -5.0971990691        5.0971990691

 CCSD contribution to dipole derivatives 

        0.0000000000        0.0000000000        0.0000000000
        0.0000000000        0.0000000000        0.0000000000
        0.0000000000        0.0000000000        0.0000000000
        0.0000000000        0.0000000000       -0.0573882267
        0.0000000000        0.0000000000        0.0000000000
        0.0000000000        0.0000000000        0.0000000000
 @CHECKOUT-I, Total execution time (CPU/WALL):     1332.47/     515.35 seconds.
--executable xsdcc finished with status     0 in      515.67 seconds (walltime).
 --invoking executable--
/nfs/workspaces/public/cfour_mpi/bin/xanti
 @GETMEM-I,  Allocated    3814 MB of main memory.
 CCSD MO derivative gammas will be sorted to Mulliken order.
 @CHECKOUT-I, Total execution time (CPU/WALL):       20.45/      63.24 seconds.
--executable xanti finished with status     0 in       63.40 seconds (walltime).
 --invoking executable--
/nfs/workspaces/public/cfour_mpi/bin/xbcktrn
 @GETMEM-I,  Allocated    3814 MB of main memory.
 CCSD MO derivative gammas will be transformed to the AO basis.
 @CHECKOUT-I, Total execution time (CPU/WALL):       36.38/       5.85 seconds.
--executable xbcktrn finished with status     0 in        5.92 seconds (walltime).
 --invoking executable--
/nfs/workspaces/public/cfour_mpi/bin/xvdint
 @GETMEM-I,  Allocated    3814 MB of main memory.
 One- and two-electron integral derivatives are calculated
 for RHF-CC/MBPT hessians and dipole derivatives.
 Spherical gaussians are used.
  magnet F F
                    8722  records have been written to the Sort file.
  Total length of Sort file :             178609116  words.
 Evaluation of 2el integral derivatives

                      Two-electron integral gradient
                      ------------------------------

                         C #1 z     0.0000000000
                         O #2 z     0.0000000000


 C #1       0.0000000000            0.0765893189            0.0000000000
 O #2       0.0000000000           -0.0765893189            0.0000000000


 Evaluation of 2e integral derivatives required  370.72 seconds.
  contribution to Hessian
        0.0000000000        0.0000000000        0.0000000000
        0.0000000000        0.0765893189       -0.0765893189
 @CHECKOUT-I, Total execution time (CPU/WALL):      370.71/      76.72 seconds.
--executable xvdint finished with status     0 in       76.94 seconds (walltime).
 --invoking executable--
/nfs/workspaces/public/cfour_mpi/bin/xanti
 @GETMEM-I,  Allocated    3814 MB of main memory.
 CCSD MO gammas will be sorted to Mulliken order.
 @CHECKOUT-I, Total execution time (CPU/WALL):       17.43/      56.31 seconds.
--executable xanti finished with status     0 in       56.49 seconds (walltime).
 --invoking executable--
/nfs/workspaces/public/cfour_mpi/bin/xbcktrn
 @GETMEM-I,  Allocated    3814 MB of main memory.
 CCSD MO gammas will be transformed to the AO basis.
 @CHECKOUT-I, Total execution time (CPU/WALL):       57.32/      10.75 seconds.
--executable xbcktrn finished with status     0 in       10.83 seconds (walltime).
 --invoking executable--
/nfs/workspaces/public/cfour_mpi/bin/xvdint
 @GETMEM-I,  Allocated    3814 MB of main memory.
 One- and two-electron integral derivatives are calculated
 for RHF-CC/MBPT hessians and dipole derivatives.
 Spherical gaussians are used.
  magnet F F

                     Kinetic energy integral gradient
                     --------------------------------

                         C #1 z    -0.5129246557
                         O #2 z     0.5129246557


 C #1       0.0000000000            0.0000000000           -0.5129246557
 O #2       0.0000000000            0.0000000000            0.5129246557



                   Nuclear attraction integral gradient
                   ------------------------------------

                         C #1 z    13.4559113090
                         O #2 z   -13.4559113090


 C #1       0.0000000000            0.0000000000           13.4559113090
 O #2       0.0000000000            0.0000000000          -13.4559113090



                      Reorthonormalization gradient
                      -----------------------------

                         C #1 z     0.0000000000
                         O #2 z     0.0000000000


 C #1       0.0000000000            0.0000000000            0.0000000000
 O #2       0.0000000000            0.0000000000            0.0000000000



                     Kinetic energy integral Hessian
                     -------------------------------


           Symmetry 1

           C #1 z      O #2 z

 C #1 z    0.540192
 O #2 z   -0.540192    0.540192


           Symmetry 2

           C #1 x      O #2 x

 C #1 x   -0.384527
 O #2 x    0.384527   -0.384527


           Symmetry 3

           C #1 y      O #2 y

 C #1 y   -0.384527
 O #2 y    0.384527   -0.384527




           C #1 x      C #1 y      C #1 z      O #2 x      O #2 y      O #2 z

 C #1 x   -0.384527
 C #1 y    0.000000   -0.384527
 C #1 z    0.000000    0.000000    0.540192

 O #2 x    0.384527    0.000000    0.000000   -0.384527
 O #2 y    0.000000    0.384527    0.000000    0.000000   -0.384527
 O #2 z    0.000000    0.000000   -0.540192    0.000000    0.000000    0.540192




                   Nuclear attraction integral Hessian
                   -----------------------------------


           Symmetry 1

           C #1 z      O #2 z

 C #1 z   -8.150846
 O #2 z    8.150846   -8.150846


           Symmetry 2

           C #1 x      O #2 x

 C #1 x    7.080367
 O #2 x   -7.080367    7.080367


           Symmetry 3

           C #1 y      O #2 y

 C #1 y    7.080367
 O #2 y   -7.080367    7.080367




           C #1 x      C #1 y      C #1 z      O #2 x      O #2 y      O #2 z

 C #1 x    7.080367
 C #1 y    0.000000    7.080367
 C #1 z    0.000000    0.000000   -8.150846

 O #2 x   -7.080367    0.000000    0.000000    7.080367
 O #2 y    0.000000   -7.080367    0.000000    0.000000    7.080367
 O #2 z    0.000000    0.000000    8.150846    0.000000    0.000000   -8.150846




                Highest order reorthonormalization Hessian
                ------------------------------------------


           Symmetry 1

           C #1 z      O #2 z

 C #1 z    0.000000
 O #2 z    0.000000    0.000000


           Symmetry 2

           C #1 x      O #2 x

 C #1 x    0.000000
 O #2 x    0.000000    0.000000


           Symmetry 3

           C #1 y      O #2 y

 C #1 y    0.000000
 O #2 y    0.000000    0.000000




           C #1 x      C #1 y      C #1 z      O #2 x      O #2 y      O #2 z




                Electronic contributions to dipole moment
                -----------------------------------------

                               au             Debye

                    z      1.33620623      3.39629807

  Conversion factor used: 1 a.u. =   2.54174691 Debye 



   Electronic contributions to static part of dipole moment derivatives
   --------------------------------------------------------------------


                     Total dipole moment derivatives
                     -------------------------------


           Symmetry 1
                              Ez

               C #1 z    -5.68320870
               O #2 z    -8.31679130

           Symmetry 2
                              Ex

               C #1 x    -5.67647162
               O #2 x    -8.32352838

           Symmetry 3
                              Ey

               C #1 y    -5.67647162
               O #2 y    -8.32352838



                       Ex          Ey          Ez

      C #1    x   -5.676472    0.000000    0.000000
      C #1    y    0.000000   -5.676472    0.000000
      C #1    z    0.000000    0.000000   -5.683209

      O #2    x   -8.323528    0.000000    0.000000
      O #2    y    0.000000   -8.323528    0.000000
      O #2    z    0.000000    0.000000   -8.316791

 Evaluation of 1e integral derivatives required    1.54 seconds.
                    8815  records have been written to the Sort file.
  Total length of Sort file :             180513570  words.
 Evaluation of 2el integral derivatives

                      Two-electron integral gradient
                      ------------------------------

                         C #1 z    -7.2047633701
                         O #2 z     7.2047633701


 C #1       0.0000000000            0.0000000000           -7.2047633701
 O #2       0.0000000000            0.0000000000            7.2047633701


 Evaluation of 2e integral derivatives required  717.86 seconds.

                            Molecular gradient
                            ------------------

                         C #1 z     0.5770598587
                         O #2 z    -0.5770598587


 C #1       0.0000000000            0.0000000000            0.5770598587
 O #2       0.0000000000            0.0000000000           -0.5770598587


  Molecular gradient norm 0.816E+00

                            Molecular hessian
                            -----------------


           Symmetry 1

           C #1 z      O #2 z

 C #1 z   14.670860
 O #2 z  -14.670860   14.670860


           Symmetry 2

           C #1 x      O #2 x

 C #1 x    5.269167
 O #2 x   -5.269167    5.269167


           Symmetry 3

           C #1 y      O #2 y

 C #1 y    5.269167
 O #2 y   -5.269167    5.269167




           C #1 x      C #1 y      C #1 z      O #2 x      O #2 y      O #2 z

 C #1 x    5.269167
 C #1 y    0.000000    5.269167
 C #1 z    0.000000    0.000000   14.670860

 O #2 x   -5.269167    0.000000    0.000000    5.269167
 O #2 y    0.000000   -5.269167    0.000000    0.000000    5.269167
 O #2 z    0.000000    0.000000  -14.670860    0.000000    0.000000   14.670860




                           Total dipole moment
                           -------------------

                               au             Debye

                    z      0.48884809      1.24252813

  Conversion factor used: 1 a.u. =   2.54174691 Debye 



                     Total dipole moment derivatives
                     -------------------------------


           Symmetry 1
                              Ez

               C #1 z     0.57003849
               O #2 z    -0.57003849

           Symmetry 2
                              Ex

               C #1 x     0.16977618
               O #2 x    -0.16977618

           Symmetry 3
                              Ey

               C #1 y     0.16977618
               O #2 y    -0.16977618



                       Ex          Ey          Ez

      C #1    x    0.169776    0.000000    0.000000
      C #1    y    0.000000    0.169776    0.000000
      C #1    z    0.000000    0.000000    0.570038

      O #2    x   -0.169776    0.000000    0.000000
      O #2    y    0.000000   -0.169776    0.000000
      O #2    z    0.000000    0.000000   -0.570038

 @CHECKOUT-I, Total execution time (CPU/WALL):      719.39/     127.72 seconds.
--executable xvdint finished with status     0 in      127.88 seconds (walltime).
 --invoking executable--
/nfs/workspaces/public/cfour_mpi/bin/xjoda
  @GTFLGS-I, Hessian will be transformed to curvilinear coordinates.
  @GTFLGS-I, Hessian will be transformed to curvilinear coordinates.
  igrd and ihes are                      0                     1
  gradient from JOBARC 
   0.000000000000000   0.000000000000000   0.577059858724525
   0.000000000000000   0.000000000000000  -0.577059858724525
 
  @PROJFCM-I, Projecting force constant matrix onto totally symmetric subspace.
  Largest difference between matrix elements of symmetrized
  and unsymmetrized FCM :    -0.2335909244E-12.
  read isotopes from ZMAT file 
 
  Summary of diagonal Born-Oppenheimer correction at the correlated level
  The total diagonal Born-Oppenheimer correction (DBOC) is:      0.0040096107 a.u.
  The total diagonal Born-Oppenheimer correction (DBOC) is:        880.007839 cm-1
  The total diagonal Born-Oppenheimer correction (DBOC) is:            10.527 kJ/mole
  hellooooooo 
  readis is  F
 
 @CHECKOUT-I, Total execution time (CPU/WALL):        0.01/       0.05 seconds.
--executable xjoda finished with status     0 in        0.10 seconds (walltime).
  The final electronic energy is      -113.071059100448267 a.u. 
  This computation required                         4460.03 seconds (walltime).
