 --invoking executable--
/nfs/workspaces/public/cfour_mpi/bin/xjoda


   *************************************************************************
         <<<     CCCCCC     CCCCCC   |||     CCCCCC     CCCCCC   >>>
       <<<      CCC        CCC       |||    CCC        CCC         >>>
      <<<      CCC        CCC        |||   CCC        CCC            >>>
    <<<        CCC        CCC        |||   CCC        CCC              >>>
      <<<      CCC        CCC        |||   CCC        CCC            >>>
       <<<      CCC        CCC       |||    CCC        CCC         >>>
         <<<     CCCCCC     CCCCCC   |||     CCCCCC     CCCCCC   >>>
   *************************************************************************

     ****************************************************************
     * CFOUR Coupled-Cluster techniques for Computational Chemistry *
     ****************************************************************
 

   Department of Chemistry                Institut fuer Physikalische Chemie
   University of Florida                  Universitaet Mainz
   Gainesville, FL 32611, USA             D-55099 Mainz, Germany

   Department of Chemistry                Fakultaet fuer Chemie und Biowiss.
   Johns Hopkins University               Karlsruher Institut fuer Technologie
   Baltimore, MD 21218, USA               D-76131 Karlsruhe, Germany

   Department of Chemistry                Department of Physical Chemistry
   Southern Methodist University          Eotvos Lorand University
   Dallas, TX 75275, USA                  H-1053 Budapest, Hungary

 
                       Version 2.1
 
                     vincent.theory.phys.ucl.ac.uk                     
                     Thu 27 Feb 15:35:15 GMT 2025                      
                     integer*8 version is running
 
********************************************************************************
*                          Input from ZMAT file                                *
********************************************************************************
Carbon Monoxide DBOC calculation                                                
C                                                                               
O 1 r                                                                           
                                                                                
r=1.3655172413793104                                                            
                                                                                
                                                                                
*CFOUR(CALC=CCSD,BASIS=AUG-PCVQZ,SCF_CONV=10                                    
CC_CONV=14,DBOC=ON,MEMORY=500000000                                             
ZFIELD=-200)                                                                    
                                                                                
%isotopes                                                                       
13                                                                              
16                                                                              
********************************************************************************
  @GTFLGS-I, Hessian will be transformed to curvilinear coordinates.
    -------------------------------------------------------------------
                    CFOUR Control Parameters 
    -------------------------------------------------------------------
        External           Internal           Value            Units
          Name               Name
    -------------------------------------------------------------------
       ABCDTYPE             IABCDT         STANDARD    [  0]    ***   
       ANHARMONIC           IANHAR         OFF         [  0]    ***   
       ANH_ALGORIT          IANALG         STANDARD    [  0]    ***   
       ANH_DERIVAT          IANDER         SECOND      [  1]    ***   
       ANH_MODE             ANHMOD         VIBRATION   [  0]    ***   
       ANH_STEPSIZ          ICUBST             50000          x 10-6  
       ANH_SYMMETR          IANHSM         ABELIAN     [  0]    ***   
       AO_LADDERS           IAOLAD         SINGLEPASS  [  1]    ***   
       AV_SCF               IAVSCF         OFF         [  0]    ***   
       BASIS                IBASIS         AUG-PCVQZ   [ 52]    ***   
       BOTHVECTORS          BOTHVC         OFF         [  0]    ***   
       BOX_POTENT           IPIAB          OFF         [  0]    ***   
       BREIT                IBREIT         OFF         [  0]    ***   
       BRUCK_CONV           IBRTOL          10D-  4             ***   
       BRUECKNER            IBRKNR         OFF         [  0]    ***   
       BUFFERSIZE           IBUFFS              4096            ***   
       CACHE_RECS           ICHREC             10               ***   
       CALCLEVEL            ICLLVL         CCSD        [ 10]    ***   
       CCORBOPT             ICCORB         OFF         [  0]  x 0.01  
       CC_CONV              ICCCNV          10D- 14             ***   
       CC_EXPORDER          ICCEOR              5               ***   
       CC_EXTRAPOL          ICCEXT         DIIS        [  1]    ***   
       CC_GUESS             ICCGES         MP2         [  0]    ***   
       CC_MAXCYC            ICCCYC            100              cycles 
       CC_PROGRAM           ICCPRO         VCC         [  0]    ***   
       CHARGE               ICHRGE              0               ***   
       CHOLESKY             ICHOLE         OFF         [  0]    ***   
       CIS_CONV             ICISTL              5               ***   
       COMM_SIZE            IPSIZE            ***               ***   
       CONSTANT             ICONST         OLD         [  1]    ***   
       CONTINUUM            ICONTU         NONE        [  0]    ***   
       CONTRACTION          ICNTYP         GENERAL     [  1]    ***   
       COORDINATES          ICOORD         INTERNAL    [  0]    ***   
       CPHF_CONVER          ICPHFT          10D- 16             ***   
       CPHF_MAXCYC          ICPHFC             64              cycles 
       CUBIC                ICUBIC         OFF         [  0]    ***   
       CURVILINEAR          ICURVY         ON          [  1]    ***   
       DBOC                 IDBOC          ON          [  1]    ***   
       DCT                  IDCT           OFF         [  0]    ***   
       DERIV_LEV            IDRLVL         SECOND      [  2]    ***   
       DEVMEM_SIZE          IDVMEM          50000000           MByte  
       DIAG_MRCC            IEOMST          10D-  0             ***   
       DIFF_TYPE            IDIFTY         RELAXED     [  0]    ***   
       DIRECT               IDIRCT         OFF         [  0]    ***   
       DROPMO               IDRPMO      NONE         
       ECP                  IECP           OFF         [  0]    ***   
       EIGENVECTOR          IVEC                1               ***   
       EL_ANHARM            IELANH         OFF         [  0]    ***   
       EOMFOLLOW            IEOMSR         ENERGY      [  0]    ***   
       EOMIP                IEOMIP         OFF         [  0]    ***   
       EOMLEVEL             HBARFM         SAME        [  0]    ***   
       EOM_MRCC             IMRCCE         NEW         [  1]    ***   
       EOM_NONIT            EOMNON         OFF         [  0]    ***   
       EOM_NSING            IEOMSI          10D-  0             ***   
       EOM_NSTATES          IMRCCD         DAVIDSON    [  0]    ***   
       EOM_NTRIP            IEOMTR          10D-  0             ***   
       EOM_ORDER            IEXORD         ENERGY      [  0]    ***   
       EOM_PROPSTA          IEOMST              0               ***   
       ESTATE_CONV          IEXTOL          10D-  5             ***   
       ESTATE_DIAG          IEXDIG         ITERATIVE   [  0]    ***   
       ESTATE_LOCK          IESLOC         ON          [  1]    ***   
       ESTATE_MAXC          IEXMXC             40               ***   
       ESTATE_PROP          IEXPRP         OFF         [  0]    ***   
       EVAL_HESS            IRECAL              0            # of cyc.
       EXCITATION           IEXCIT              0               ***   
       EXCITE               IEXCIT         NONE        [  0]    ***   
       EXTERN_POT           IEXPOT         OFF         [  0]    ***   
       FCGRADNEW            IFCGNW         OFF         [  0]    ***   
       FC_FIELD             IFINFC              0             x 10-6  
       FD_CALTYPE           IFDCAL         GRADONLY    [  0]    ***   
       FD_PROJECT           IFDPRJ         OFF         [  1]    ***   
       FD_STEPSIZE          IDISFD              0            10-4 bohr
       FD_USEGROUP          IFDGRP         FULL        [  0]    ***   
       FILE_RECSIZ          IFLREC              4096           words  
       FINITE_PERT          IFIPER              0             x 10-6  
       FIXGEOM              IFIXGM         OFF         [  0]    ***   
       FOCK                 IFOCK          AO          [  1]    ***   
       FREQ_ALGORI          IVIALG         STANDARD    [  0]    ***   
       FROZEN_CORE          IFROCO         OFF         [  0]    ***   
       GAMMA_ABCD           IGABCD         STORE       [  0]    ***   
       GAMMA_ABCI           IGABCI         STORE       [  0]    ***   
       GENBAS_1             IGNBS1              0               ***   
       GENBAS_2             IGNBS2              0               ***   
       GENBAS_3             IGNBS3              0               ***   
       GENBAS_4             IGNBS4              0               ***   
       GEO_CONV             ICONTL              5              H/bohr 
       GEO_MAXCYC           IOPTCY             50               ***   
       GEO_MAXSTEP          IMXSTP            300            millibohr
       GEO_METHOD           INR            SINGLE_POINT[  5]    ***   
       GIAO                 IGIAO          OFF         [  1]    ***   
       GIMIC                IGIMIC         OFF         [  0]    ***   
       GRID                 IGRID          OFF         [  0]    ***   
       GRID_ALGO            IGALGO         SERIAL      [  0]    ***   
       GUESS                IGUESS         MOREAD      [  0]    ***   
       HBAR                 IHBAR          OFF         [  0]    ***   
       HESS_TYPE            IHESTP         SCF         [  0]    ***   
       HF2_FILE             IHF2Fl         USE         [  1]    ***   
       HFSTABILITY          ISTABL         OFF         [  0]    ***   
       INCORE               INCORE         OFF         [  0]    ***   
       INPUT_MRCC           IMRCC          ON          [  1]    ***   
       INTEGRALS            INTTYP         VMOL        [  1]    ***   
       JODA_PRINT           IJPRNT              0               ***   
       KEYWORD_OUT          IDMPKW         NO          [  0]    ***   
       LINDEP_TOL           ILINDP              8               ***   
       LINEQ_CONV           IZTACN          10D-  7           cycles  
       LINEQ_EXPOR          ILMAXD              5               ***   
       LINEQ_MAXCY          ILMAXC            100               ***   
       LINEQ_TYPE           ILTYPE         DIIS        [  1]    ***   
       LOCK_ORBOCC          ILOCOC         OFF         [  0]    ***   
       MEMORY_SIZE          IMEMSZ         500000000           words  
       MEM_UNIT             IMEMU          INTEGERWORDS[  0]    ***   
       MRCC                 IMRCCC         OFF         [  0]    ***   
       MULTIPLICTY          IMULTP              1               ***   
       NACOUPLING           IVCOUP         OFF         [  0]    ***   
       NEGEVAL              IDIE           ABORT       [  0]    ***   
       NEWNORM              INEWNO         OFF         [  0]    ***   
       NON-HF               INONHF         OFF         [  0]    ***   
       NTOP_TAMP            ITOPT2             15               ***   
       NUC_MODEL            INUCMO         POINT       [  0]    ***   
       OCCUPATION           IOCCU   ESTIMATED BY SCF 
       OPEN-SHELL           IOPEN          SPIN-ORBITAL[  0]    ***   
       OPTVIB               IOPTVB         OFF         [  0]    ***   
       ORBITALS             IORBTP         STANDARD    [  0]    ***   
       PARALLEL             IPARAL         ON          [  1]    ***   
       PARA_INT             IPINTS         ON          [  1]    ***   
       PARA_PRINT           IPPRIN              0               ***   
       PERT_ORB             IPTORB         STANDARD    [  0]    ***   
       POINTS               IGRDFD              0               ***   
       PRINT                IPRNT               0               ***   
       PROPS                IPROPS         OFF         [  0]    ***   
       PROP_INTEGR          IINTYP         INTERNAL    [  0]    ***   
       PSI                  IPSI           OFF         [  0]    ***   
       QC_ALG               IQCALG         FLM         [  0]    ***   
       QC_LINALG            IQCLIN         TRIDIAG     [  2]    ***   
       QC_MAXCYC            IQCMAX          10D-100           cycles  
       QC_MAXSCFCY          IQCMSC          10D- 15           cycles  
       QC_RTRUST            IQCRTR          10D-  0           x 10-3  
       QC_SKIPSCF           IQCSKI         OFF         [  0]    ***   
       QC_START             IQCSTA          10D-  1             ***   
       QRHFGUESS            IQGUES         OFF         [  0]    ***   
       QUARTIC              IQUART         OFF         [  0]    ***   
       RAMAN_INT            IRAMIN         OFF         [  0]    ***   
       RAMAN_ORB            IRAMRE         UNRELAXED   [  0]    ***   
       RDO                  IRDOFM         ON          [  1]    ***   
       REDUCE_REPR          REDREP         Ir          [  0]    ***   
       REFERENCE            IREFNC         RHF         [  0]    ***   
       RELATIVIST           IRELAT         OFF         [  0]    ***   
       RELAX_DENS           IRDENS         ON          [  1]    ***   
       RESET_FLAGS          IRESET         OFF         [  0]    ***   
       RESTART_CC           ICCRES         OFF         [  0]    ***   
       ROT_EVEC             ROTVEC              0               ***   
       SAVE_INTS            ISVINT         OFF         [  0]    ***   
       SCALE_ON             ISTCRT              0               ***   
       SCF_CONV             ISCFCV          10D- 10             ***   
       SCF_DAMPING          IDAMP               0             x 10-3  
       SCF_EXPORDE          IRPPOR              6               ***   
       SCF_EXPSTAR          IRPPLS              8               ***   
       SCF_EXTRAPO          IRPP           ON          [  1]    ***   
       SCF_MAXCYC           ISCFCY            150              cycles 
       SCF_NOSTOP           ISCFST         OFF         [  0]    ***   
       SCF_PRINT            ISCFPR              0               ***   
       SCF_PROG             ISCFPR         SCF         [  0]    ***   
       SD_FIELD             IFINSD              0             x 10-6  
       SOPERT               IPERSO         OFF         [  0]    ***   
       SPHERICAL            IDFGHI         ON          [  1]    ***   
       SPINORBIT            ISOCAL         OFF         [  0]    ***   
       SPINROTATIO          ISRCON         OFF         [  0]    ***   
       SPIN_FLIP            ISPFLP         OFF         [  0]    ***   
       SPIN_ORBIT           ISPORB         OFF         [  0]    ***   
       SPIN_SCAL            ISCSMP         OFF         [  0]    ***   
       STEEPSCALE           ISTPSC              1000          x 10-3  
       SUBGROUP             ISUBGP         DEFAULT     [  0]    ***   
       SUBGRPAXIS           ISBXYZ         X           [  0]    ***   
       SYMMETRY             ISYM           ON          [  0]    ***   
       SYM_CHECK            ISYMCK         OVERRIDE    [  1]    ***   
       T3_EXTRAPOL          IT3EXT         OFF         [  0]    ***   
       T4_EXTRAPOL          IT4EXP         OFF         [  0]    ***   
       TAMP_SUM             IEVERY              5               ***   
       TESTSUITE            ITESTS         OFF         [  0]    ***   
       THERMOCH             ITHERM         OFF         [  0]    ***   
       TOL_CHOLESK          ITOLCH          10D-  4             ***   
       TRANGRAD             IRESRM         OFF         [  0]    ***   
       TRANS_INV            ITRAIN         IGNORE      [  1]    ***   
       TREAT_PERT           ITREAT         SIMULTANEOUS[  0]    ***   
       TRIP_ALGORI          ITRALG         NORMAL      [  0]    ***   
       UIJ_THRESHO          IUIJTH              1               ***   
       UNITS                IUNITS         ANGSTROM    [  0]    ***   
       UNOS                 IUNOS          OFF         [  0]    ***   
       UPDATE_HESS          IHUPDT         ON          [  1]    ***   
       VIBPHASE             ISETPH         STANDARD    [  0]    ***   
       VIBRATION            IVIB           ANALYTIC    [  1]    ***   
       VIB_ALGORIT          IGEALG         STANDARD    [  0]    ***   
       VNATORB              IVNORB         OFF         [  0]    ***   
       VTRAN                IVTRAN         FULL/PARTIAL[  0]    ***   
       XFIELD               IXEFLD              0             x 10-6  
       XFORM_TOL            IXFTOL          10D- 11             ***   
       YFIELD               IYEFLD              0             x 10-6  
       ZFIELD               IZEFLD            ***             x 10-6  
       ZSCALE_EXP           IZEXPS         OFF         [  0]    ***   
    -------------------------------------------------------------------
   2 entries found in Z-matrix 
   Job Title : Carbon Monoxide DBOC calculation                                                
   There are  1 unique internal coordinates.
   Of these,  0 will be optimized.
   User supplied Z-matrix: 
--------------------------------------------------------------------------------
       SYMBOL    BOND      LENGTH    ANGLE     ANGLE     DIHED     ANGLE
                  TO      (ANGST)    WRT      (DEG)      WRT      (DEG)
--------------------------------------------------------------------------------
        C    
        O          1         r    
                  *Initial values for internal coordinates* 
                      Name             Value
                        r               1.3655172414
--------------------------------------------------------------------------------
  read isotopes from ZMAT file 
   Rotational constants (in cm-1): 
          1.2604827897             1.2604827897
   Rotational constants (in MHz): 
      37788.3286723331         37788.3286723331
********************************************************************************
   The full molecular point group is CXv .
   The largest Abelian subgroup of the full molecular point group is C2v .
   The computational point group is C2v .
********************************************************************************
--------------------------------------------------------------------------------
   Analysis of internal coordinates specified by Z-matrix 
--------------------------------------------------------------------------------
   *The nuclear repulsion energy is   18.601376848484847 a.u.
   *There is   1 degree of freedom within the tot. symm. molecular subspace.
   *Z-matrix requests optimization of   0 coordinates.
   *The optimization is constrained.
   *The following   1 parameters can have non-zero 
    derivatives within the totally symmetric subspace:
             r    [ 1]
   *The following   0 parameters are to be optimized:

   *The following coordinates must be varied in an  unconstrained optimization.
             r    [ 1]
--------------------------------------------------------------------------------


 ----------------------------------------------------------------
         Coordinates used in calculation (QCOMP) 
 ----------------------------------------------------------------
 Z-matrix   Atomic            Coordinates (in bohr)
  Symbol    Number           X              Y              Z
 ----------------------------------------------------------------
     C         6        -0.00000000     0.00000000     1.42333127
     O         8         0.00000000     0.00000000    -1.15712287
 ----------------------------------------------------------------
 
   Interatomic distance matrix (Angstroms) 
 
                 C             O    
                [ 1]        [ 2]
  C    [ 1]     0.00000
  O    [ 2]     1.36552     0.00000
 rotcon2
   Rotational constants (in cm-1): 
          1.2604827897             0.0000000000
   Rotational constants (in MHz): 
      37788.3286723331             0.0000000000
  ECPDATA file not present.   Using default ECPDATA. 
  @GTFLGS-I, Hessian will be transformed to curvilinear coordinates.
  There are  218 basis functions.
 @CHECKOUT-I, Total execution time (CPU/WALL):        0.11/       0.17 seconds.
--executable xjoda finished with status     0 in        0.19 seconds (walltime).
 --invoking executable--
/nfs/workspaces/public/cfour_mpi/bin/xvmol
 SERIAL VERSION OF MOLECULE STARTED
********************************************************************************
                    INPUT FROM MOL FILE
********************************************************************************
INTGRL        1    0    1    0    0    0    0    0    0                         
         *** CFOUR Program System (Release V0.1) ***                            
Carbon Monoxide DBOC calculation                                                
    2    2 X  Y       0.10E-08              0    0                              
   9999.00      3.00                                                            
          6.00000000    1    5    1    1    1    1    1                         
C #1  -0.000000000000000   0.000000000000000   1.423331272438294                
   16    9                                                                      
   33980.0000000000       9.100000000000000E-005 -1.900000000000000E-005        
  0.000000000000000E+000  0.000000000000000E+000  0.000000000000000E+000        
  0.000000000000000E+000  0.000000000000000E+000  0.000000000000000E+000        
  0.000000000000000E+000                                                        
   5089.00000000000       7.040000000000000E-004 -1.510000000000000E-004        
  0.000000000000000E+000  0.000000000000000E+000  0.000000000000000E+000        
  0.000000000000000E+000  0.000000000000000E+000  0.000000000000000E+000        
  0.000000000000000E+000                                                        
   1157.00000000000       3.693000000000000E-003 -7.850000000000000E-004        
  0.000000000000000E+000  0.000000000000000E+000  0.000000000000000E+000        
  0.000000000000000E+000  0.000000000000000E+000  0.000000000000000E+000        
  0.000000000000000E+000                                                        
   326.600000000000       1.536000000000000E-002 -3.324000000000000E-003        
  0.000000000000000E+000  0.000000000000000E+000  0.000000000000000E+000        
  0.000000000000000E+000  0.000000000000000E+000  0.000000000000000E+000        
  0.000000000000000E+000                                                        
   106.100000000000       5.292900000000000E-002 -1.151200000000000E-002        
  0.000000000000000E+000  0.000000000000000E+000  0.000000000000000E+000        
  0.000000000000000E+000  0.000000000000000E+000  0.000000000000000E+000        
  0.000000000000000E+000                                                        
   38.1100000000000       0.147043000000000      -3.416000000000000E-002        
  0.000000000000000E+000  0.000000000000000E+000  0.000000000000000E+000        
  0.000000000000000E+000  0.000000000000000E+000  0.000000000000000E+000        
  0.000000000000000E+000                                                        
   14.7500000000000       0.305631000000000      -7.717300000000001E-002        
  0.000000000000000E+000  0.000000000000000E+000  0.000000000000000E+000        
  0.000000000000000E+000  0.000000000000000E+000  0.000000000000000E+000        
  0.000000000000000E+000                                                        
   6.03500000000000       0.399345000000000      -0.141493000000000             
  0.000000000000000E+000  0.000000000000000E+000  0.000000000000000E+000        
  0.000000000000000E+000  0.000000000000000E+000  0.000000000000000E+000        
  0.000000000000000E+000                                                        
   2.53000000000000       0.217051000000000      -0.118019000000000             
  0.000000000000000E+000  0.000000000000000E+000  0.000000000000000E+000        
  0.000000000000000E+000  0.000000000000000E+000  0.000000000000000E+000        
  0.000000000000000E+000                                                        
  0.735500000000000       1.589400000000000E-002  0.273806000000000             
   1.00000000000000       0.000000000000000E+000  0.000000000000000E+000        
  0.000000000000000E+000  0.000000000000000E+000  0.000000000000000E+000        
  0.000000000000000E+000                                                        
  0.290500000000000      -3.084000000000000E-003  0.586510000000000             
  0.000000000000000E+000   1.00000000000000       0.000000000000000E+000        
  0.000000000000000E+000  0.000000000000000E+000  0.000000000000000E+000        
  0.000000000000000E+000                                                        
  0.111100000000000       9.779999999999999E-004  0.285430000000000             
  0.000000000000000E+000  0.000000000000000E+000   1.00000000000000             
  0.000000000000000E+000  0.000000000000000E+000  0.000000000000000E+000        
  0.000000000000000E+000                                                        
   7.21600000000000       0.000000000000000E+000  0.000000000000000E+000        
  0.000000000000000E+000  0.000000000000000E+000  0.000000000000000E+000        
   1.00000000000000       0.000000000000000E+000  0.000000000000000E+000        
  0.000000000000000E+000                                                        
   19.5700000000000       0.000000000000000E+000  0.000000000000000E+000        
  0.000000000000000E+000  0.000000000000000E+000  0.000000000000000E+000        
  0.000000000000000E+000   1.00000000000000       0.000000000000000E+000        
  0.000000000000000E+000                                                        
   53.0730000000000       0.000000000000000E+000  0.000000000000000E+000        
  0.000000000000000E+000  0.000000000000000E+000  0.000000000000000E+000        
  0.000000000000000E+000  0.000000000000000E+000   1.00000000000000             
  0.000000000000000E+000                                                        
  4.145000000000000E-002  0.000000000000000E+000  0.000000000000000E+000        
  0.000000000000000E+000  0.000000000000000E+000  0.000000000000000E+000        
  0.000000000000000E+000  0.000000000000000E+000  0.000000000000000E+000        
   1.00000000000000                                                             
   10    8                                                                      
   34.5100000000000       5.378000000000000E-003  0.000000000000000E+000        
  0.000000000000000E+000  0.000000000000000E+000  0.000000000000000E+000        
  0.000000000000000E+000  0.000000000000000E+000  0.000000000000000E+000        
   7.91500000000000       3.613200000000000E-002  0.000000000000000E+000        
  0.000000000000000E+000  0.000000000000000E+000  0.000000000000000E+000        
  0.000000000000000E+000  0.000000000000000E+000  0.000000000000000E+000        
   2.36800000000000       0.142493000000000       0.000000000000000E+000        
  0.000000000000000E+000  0.000000000000000E+000  0.000000000000000E+000        
  0.000000000000000E+000  0.000000000000000E+000  0.000000000000000E+000        
  0.813200000000000       0.342150000000000        1.00000000000000             
  0.000000000000000E+000  0.000000000000000E+000  0.000000000000000E+000        
  0.000000000000000E+000  0.000000000000000E+000  0.000000000000000E+000        
  0.289000000000000       0.463864000000000       0.000000000000000E+000        
   1.00000000000000       0.000000000000000E+000  0.000000000000000E+000        
  0.000000000000000E+000  0.000000000000000E+000  0.000000000000000E+000        
  0.100700000000000       0.250028000000000       0.000000000000000E+000        
  0.000000000000000E+000   1.00000000000000       0.000000000000000E+000        
  0.000000000000000E+000  0.000000000000000E+000  0.000000000000000E+000        
   8.18200000000000       0.000000000000000E+000  0.000000000000000E+000        
  0.000000000000000E+000  0.000000000000000E+000   1.00000000000000             
  0.000000000000000E+000  0.000000000000000E+000  0.000000000000000E+000        
   24.1860000000000       0.000000000000000E+000  0.000000000000000E+000        
  0.000000000000000E+000  0.000000000000000E+000  0.000000000000000E+000        
   1.00000000000000       0.000000000000000E+000  0.000000000000000E+000        
   71.4940000000000       0.000000000000000E+000  0.000000000000000E+000        
  0.000000000000000E+000  0.000000000000000E+000  0.000000000000000E+000        
  0.000000000000000E+000   1.00000000000000       0.000000000000000E+000        
  3.218000000000000E-002  0.000000000000000E+000  0.000000000000000E+000        
  0.000000000000000E+000  0.000000000000000E+000  0.000000000000000E+000        
  0.000000000000000E+000  0.000000000000000E+000   1.00000000000000             
    6    6                                                                      
   1.84800000000000        1.00000000000000       0.000000000000000E+000        
  0.000000000000000E+000  0.000000000000000E+000  0.000000000000000E+000        
  0.000000000000000E+000                                                        
  0.649000000000000       0.000000000000000E+000   1.00000000000000             
  0.000000000000000E+000  0.000000000000000E+000  0.000000000000000E+000        
  0.000000000000000E+000                                                        
  0.228000000000000       0.000000000000000E+000  0.000000000000000E+000        
   1.00000000000000       0.000000000000000E+000  0.000000000000000E+000        
  0.000000000000000E+000                                                        
   8.65600000000000       0.000000000000000E+000  0.000000000000000E+000        
  0.000000000000000E+000   1.00000000000000       0.000000000000000E+000        
  0.000000000000000E+000                                                        
   33.2130000000000       0.000000000000000E+000  0.000000000000000E+000        
  0.000000000000000E+000  0.000000000000000E+000   1.00000000000000             
  0.000000000000000E+000                                                        
  7.660000000000000E-002  0.000000000000000E+000  0.000000000000000E+000        
  0.000000000000000E+000  0.000000000000000E+000  0.000000000000000E+000        
   1.00000000000000                                                             
    4    4                                                                      
   1.41900000000000        1.00000000000000       0.000000000000000E+000        
  0.000000000000000E+000  0.000000000000000E+000                                
  0.485000000000000       0.000000000000000E+000   1.00000000000000             
  0.000000000000000E+000  0.000000000000000E+000                                
   24.6940000000000       0.000000000000000E+000  0.000000000000000E+000        
   1.00000000000000       0.000000000000000E+000                                
  0.187000000000000       0.000000000000000E+000  0.000000000000000E+000        
  0.000000000000000E+000   1.00000000000000                                     
    2    2                                                                      
   1.01100000000000        1.00000000000000       0.000000000000000E+000        
  0.424000000000000       0.000000000000000E+000   1.00000000000000             
          8.00000000    1    5    1    1    1    1    1                         
O #2   0.000000000000000   0.000000000000000  -1.157122873025126                
   16    9                                                                      
   61420.0000000000       9.000000000000001E-005 -2.000000000000000E-005        
  0.000000000000000E+000  0.000000000000000E+000  0.000000000000000E+000        
  0.000000000000000E+000  0.000000000000000E+000  0.000000000000000E+000        
  0.000000000000000E+000                                                        
   9199.00000000000       6.980000000000001E-004 -1.590000000000000E-004        
  0.000000000000000E+000  0.000000000000000E+000  0.000000000000000E+000        
  0.000000000000000E+000  0.000000000000000E+000  0.000000000000000E+000        
  0.000000000000000E+000                                                        
   2091.00000000000       3.664000000000000E-003 -8.290000000000000E-004        
  0.000000000000000E+000  0.000000000000000E+000  0.000000000000000E+000        
  0.000000000000000E+000  0.000000000000000E+000  0.000000000000000E+000        
  0.000000000000000E+000                                                        
   590.900000000000       1.521800000000000E-002 -3.508000000000000E-003        
  0.000000000000000E+000  0.000000000000000E+000  0.000000000000000E+000        
  0.000000000000000E+000  0.000000000000000E+000  0.000000000000000E+000        
  0.000000000000000E+000                                                        
   192.300000000000       5.242300000000000E-002 -1.215600000000000E-002        
  0.000000000000000E+000  0.000000000000000E+000  0.000000000000000E+000        
  0.000000000000000E+000  0.000000000000000E+000  0.000000000000000E+000        
  0.000000000000000E+000                                                        
   69.3200000000000       0.145921000000000      -3.626100000000000E-002        
  0.000000000000000E+000  0.000000000000000E+000  0.000000000000000E+000        
  0.000000000000000E+000  0.000000000000000E+000  0.000000000000000E+000        
  0.000000000000000E+000                                                        
   26.9700000000000       0.305258000000000      -8.299200000000000E-002        
  0.000000000000000E+000  0.000000000000000E+000  0.000000000000000E+000        
  0.000000000000000E+000  0.000000000000000E+000  0.000000000000000E+000        
  0.000000000000000E+000                                                        
   11.1000000000000       0.398508000000000      -0.152090000000000             
  0.000000000000000E+000  0.000000000000000E+000  0.000000000000000E+000        
  0.000000000000000E+000  0.000000000000000E+000  0.000000000000000E+000        
  0.000000000000000E+000                                                        
   4.68200000000000       0.216980000000000      -0.115331000000000             
  0.000000000000000E+000  0.000000000000000E+000  0.000000000000000E+000        
  0.000000000000000E+000  0.000000000000000E+000  0.000000000000000E+000        
  0.000000000000000E+000                                                        
   1.42800000000000       1.759400000000000E-002  0.288979000000000             
   1.00000000000000       0.000000000000000E+000  0.000000000000000E+000        
  0.000000000000000E+000  0.000000000000000E+000  0.000000000000000E+000        
  0.000000000000000E+000                                                        
  0.554700000000000      -2.502000000000000E-003  0.586128000000000             
  0.000000000000000E+000   1.00000000000000       0.000000000000000E+000        
  0.000000000000000E+000  0.000000000000000E+000  0.000000000000000E+000        
  0.000000000000000E+000                                                        
  0.206700000000000       9.540000000000000E-004  0.277624000000000             
  0.000000000000000E+000  0.000000000000000E+000   1.00000000000000             
  0.000000000000000E+000  0.000000000000000E+000  0.000000000000000E+000        
  0.000000000000000E+000                                                        
   12.9740000000000       0.000000000000000E+000  0.000000000000000E+000        
  0.000000000000000E+000  0.000000000000000E+000  0.000000000000000E+000        
   1.00000000000000       0.000000000000000E+000  0.000000000000000E+000        
  0.000000000000000E+000                                                        
   34.9000000000000       0.000000000000000E+000  0.000000000000000E+000        
  0.000000000000000E+000  0.000000000000000E+000  0.000000000000000E+000        
  0.000000000000000E+000   1.00000000000000       0.000000000000000E+000        
  0.000000000000000E+000                                                        
   93.8810000000000       0.000000000000000E+000  0.000000000000000E+000        
  0.000000000000000E+000  0.000000000000000E+000  0.000000000000000E+000        
  0.000000000000000E+000  0.000000000000000E+000   1.00000000000000             
  0.000000000000000E+000                                                        
  6.959000000000000E-002  0.000000000000000E+000  0.000000000000000E+000        
  0.000000000000000E+000  0.000000000000000E+000  0.000000000000000E+000        
  0.000000000000000E+000  0.000000000000000E+000  0.000000000000000E+000        
   1.00000000000000                                                             
   10    8                                                                      
   63.4200000000000       6.044000000000000E-003  0.000000000000000E+000        
  0.000000000000000E+000  0.000000000000000E+000  0.000000000000000E+000        
  0.000000000000000E+000  0.000000000000000E+000  0.000000000000000E+000        
   14.6600000000000       4.179900000000000E-002  0.000000000000000E+000        
  0.000000000000000E+000  0.000000000000000E+000  0.000000000000000E+000        
  0.000000000000000E+000  0.000000000000000E+000  0.000000000000000E+000        
   4.45900000000000       0.161143000000000       0.000000000000000E+000        
  0.000000000000000E+000  0.000000000000000E+000  0.000000000000000E+000        
  0.000000000000000E+000  0.000000000000000E+000  0.000000000000000E+000        
   1.53100000000000       0.356731000000000        1.00000000000000             
  0.000000000000000E+000  0.000000000000000E+000  0.000000000000000E+000        
  0.000000000000000E+000  0.000000000000000E+000  0.000000000000000E+000        
  0.530200000000000       0.448309000000000       0.000000000000000E+000        
   1.00000000000000       0.000000000000000E+000  0.000000000000000E+000        
  0.000000000000000E+000  0.000000000000000E+000  0.000000000000000E+000        
  0.175000000000000       0.244940000000000       0.000000000000000E+000        
  0.000000000000000E+000   1.00000000000000       0.000000000000000E+000        
  0.000000000000000E+000  0.000000000000000E+000  0.000000000000000E+000        
   14.4750000000000       0.000000000000000E+000  0.000000000000000E+000        
  0.000000000000000E+000  0.000000000000000E+000   1.00000000000000             
  0.000000000000000E+000  0.000000000000000E+000  0.000000000000000E+000        
   42.7300000000000       0.000000000000000E+000  0.000000000000000E+000        
  0.000000000000000E+000  0.000000000000000E+000  0.000000000000000E+000        
   1.00000000000000       0.000000000000000E+000  0.000000000000000E+000        
   126.140000000000       0.000000000000000E+000  0.000000000000000E+000        
  0.000000000000000E+000  0.000000000000000E+000  0.000000000000000E+000        
  0.000000000000000E+000   1.00000000000000       0.000000000000000E+000        
  5.348000000000000E-002  0.000000000000000E+000  0.000000000000000E+000        
  0.000000000000000E+000  0.000000000000000E+000  0.000000000000000E+000        
  0.000000000000000E+000  0.000000000000000E+000   1.00000000000000             
    6    6                                                                      
   3.77500000000000        1.00000000000000       0.000000000000000E+000        
  0.000000000000000E+000  0.000000000000000E+000  0.000000000000000E+000        
  0.000000000000000E+000                                                        
   1.30000000000000       0.000000000000000E+000   1.00000000000000             
  0.000000000000000E+000  0.000000000000000E+000  0.000000000000000E+000        
  0.000000000000000E+000                                                        
  0.444000000000000       0.000000000000000E+000  0.000000000000000E+000        
   1.00000000000000       0.000000000000000E+000  0.000000000000000E+000        
  0.000000000000000E+000                                                        
   14.9270000000000       0.000000000000000E+000  0.000000000000000E+000        
  0.000000000000000E+000   1.00000000000000       0.000000000000000E+000        
  0.000000000000000E+000                                                        
   57.5440000000000       0.000000000000000E+000  0.000000000000000E+000        
  0.000000000000000E+000  0.000000000000000E+000   1.00000000000000             
  0.000000000000000E+000                                                        
  0.154000000000000       0.000000000000000E+000  0.000000000000000E+000        
  0.000000000000000E+000  0.000000000000000E+000  0.000000000000000E+000        
   1.00000000000000                                                             
    4    4                                                                      
   2.66600000000000        1.00000000000000       0.000000000000000E+000        
  0.000000000000000E+000  0.000000000000000E+000                                
  0.859000000000000       0.000000000000000E+000   1.00000000000000             
  0.000000000000000E+000  0.000000000000000E+000                                
   26.4830000000000       0.000000000000000E+000  0.000000000000000E+000        
   1.00000000000000       0.000000000000000E+000                                
  0.324000000000000       0.000000000000000E+000  0.000000000000000E+000        
  0.000000000000000E+000   1.00000000000000                                     
    2    2                                                                      
   1.84600000000000        1.00000000000000       0.000000000000000E+000        
  0.714000000000000       0.000000000000000E+000   1.00000000000000             
FINISH                                                                          
 
********************************************************************************
 ONE- AND TWO-ELECTRON INTEGRALS OVER SYMMETRY-ADAPTED AOS ARE CALCULATED.

  SPHERICAL HARMONICS ARE USED.
  
  INTEGRALS LESS THAN  0.10E-13 ARE NEGLECTED.

  NUCLEAR REPULSION ENERGY :   18.6013768485 A.U.
  @MOLECU-I, ONE ELECTRON INTEGRALS (CPU/WALL):        0.06/       0.08 SECONDS.
  @TWOEL-I,    4506452 INTEGRALS OF SYMMETRY TYPE  I I I I
  @TWOEL-I,   19416336 INTEGRALS OF SYMMETRY TYPE  I J I J
  @TWOEL-I,   10224521 INTEGRALS OF SYMMETRY TYPE  I I J J
  @TWOEL-I,   14375229 INTEGRALS OF SYMMETRY TYPE  I J K L
  @TWOEL-I, TOTAL NUMBER OF 2-E INTEGRALS   48522538.
  @MOLECU-I, TWO ELECTRON INTEGRALS (CPU/WALL):      203.43/      28.50 SECONDS.
 @CHECKOUT-I, Total execution time (CPU/WALL):      203.50/      28.62 seconds.

Running with 14 threads/proc

--executable xvmol finished with status     0 in       28.65 seconds (walltime).
 --invoking executable--
/nfs/workspaces/public/cfour_mpi/bin/xvmol2ja
 @GETMEM-I,  Allocated    3814 MB of main memory.
 @CHECKOUT-I, Total execution time (CPU/WALL):        0.14/       0.03 seconds.
--executable xvmol2ja finished with status     0 in        0.08 seconds (walltime).
 --invoking executable--
/nfs/workspaces/public/cfour_mpi/bin/xvprop
 @GETMEM-I,  Allocated    3814 MB of main memory.
   Property integrals will be calculated.
    --------------------------------------------------------------
                                   Property evaluated at 
    Property type                X             Y             Z
    --------------------------------------------------------------
    Dipole moment               ----          ----          ----  
    Quadrupole moment           ----          ----          ----  
    Octopole moment             ----          ----          ----  
    Relativisitic corr.         ----          ----          ----  
    Second moment            0.0000000     0.0000000     0.0000000
    Electron density         0.0000000     0.0000000     1.4233313
    Electron density         0.0000000     0.0000000    -1.1571229
    Field gradient           0.0000000     0.0000000     1.4233313
    Field gradient           0.0000000     0.0000000    -1.1571229
    Potential                0.0000000     0.0000000     1.4233313
    Potential                0.0000000     0.0000000    -1.1571229
    --------------------------------------------------------------
 @CHECKOUT-I, Total execution time (CPU/WALL):        1.35/       1.40 seconds.
--executable xvprop finished with status     0 in        1.43 seconds (walltime).
 --invoking executable--
/nfs/workspaces/public/cfour_mpi/bin/xvscf
  There are  218 functions in the AO basis.

  There are 4 irreducible representations.

       Irrep        # of functions
         1                 86
         2                 52
         3                 52
         4                 28


  Parameters for SCF calculation: 
        SCF reference function:  RHF  
  Maximum number of iterations:  150
     Full symmetry point group: CXv 
     Computational point group: C2v 
        Initial density matrix: MOREAD                 
     SCF convergence tolerance: 10**(-10)
  DIIS convergence acceleration:  ON
          Latest start for DIIS:   8
                     DIIS order:   6

  Memory information:    2523578 words required.
  Fock matrices are constructed from AO integral file.
 @GETMEM-I,  Allocated      19 MB of main memory.
  Initialization and symmetry analysis required      0.002 seconds.

  Adding electric field perturbation to one-electron Hamiltonian.
  Field direction     : Z
  Field strength      : -0.0002000 a.u.

  @INITGES-I, Occupancies from core Hamiltonian:

          Alpha population by irrep:   5    1    1    0
           Beta population by irrep:   5    1    1    0


 total no. of electrons in initial guess :  0.000000000000000E+000
  --------------------------------------------------------------------
  Iteration         Total Energy            Largest Density Difference
  --------------------------------------------------------------------
       0            18.601233449415290              0.0000000000D+00
   current occupation vector 
     5  1  1  0
     5  1  1  0
       1           -93.056219321206072              0.1771669930D+02
   current occupation vector 
     5  1  1  0
     5  1  1  0
       2           -98.383123799452974              0.1771367881D+02
   current occupation vector 
     5  1  1  0
     5  1  1  0
       3          -103.409947239716900              0.6848439624D+01
   current occupation vector 
     5  1  1  0
     5  1  1  0
       4           -98.871037420977032              0.6840945962D+01
   current occupation vector 
     5  1  1  0
     5  1  1  0
       5          -101.474104944478228              0.6342827932D+01
   current occupation vector 
     5  1  1  0
     5  1  1  0
       6           -97.387585260413658              0.6325821365D+01
   current occupation vector 
     5  1  1  0
     5  1  1  0
       7          -101.465115075583299              0.6479073704D+01
   current occupation vector 
     5  1  1  0
     5  1  1  0
       8           -97.296910172055561              0.6478755743D+01
   current occupation vector 
     5  1  1  0
     5  1  1  0
       9          -108.457172821471431              0.4926357743D+01
   current occupation vector 
     5  1  1  0
     5  1  1  0
      10          -110.449023689132005              0.1059485953D+01
   current occupation vector 
     5  1  1  0
     5  1  1  0
      11          -112.462117595713622              0.1205953602D+01
   current occupation vector 
     5  1  1  0
     5  1  1  0
      12          -112.678894880329594              0.4800594750D+00
   current occupation vector 
     5  1  1  0
     5  1  1  0
      13          -112.680911841456165              0.6826747749D-01
   current occupation vector 
     5  1  1  0
     5  1  1  0
      14          -112.681265881101652              0.2616649732D-01
   current occupation vector 
     5  1  1  0
     5  1  1  0
      15          -112.681293724100598              0.9023636315D-02
   current occupation vector 
     5  1  1  0
     5  1  1  0
      16          -112.681294189821202              0.9175940477D-03
   current occupation vector 
     5  1  1  0
     5  1  1  0
      17          -112.681294197670908              0.1293947323D-03
   current occupation vector 
     5  1  1  0
     5  1  1  0
      18          -112.681294198317161              0.4125341741D-04
   current occupation vector 
     5  1  1  0
     5  1  1  0
      19          -112.681294198415841              0.1722280244D-04
   current occupation vector 
     5  1  1  0
     5  1  1  0
      20          -112.681294198431956              0.9085826273D-05
   current occupation vector 
     5  1  1  0
     5  1  1  0
      21          -112.681294198430734              0.3239054547D-06
   current occupation vector 
     5  1  1  0
     5  1  1  0
      22          -112.681294198432440              0.1052576764D-06
   current occupation vector 
     5  1  1  0
     5  1  1  0
      23          -112.681294198431644              0.1484736334D-07
   current occupation vector 
     5  1  1  0
     5  1  1  0
      24          -112.681294198431530              0.5209720211D-08
   current occupation vector 
     5  1  1  0
     5  1  1  0
      25          -112.681294198432241              0.5973337380D-09
   current occupation vector 
     5  1  1  0
     5  1  1  0
      26          -112.681294198432127              0.2230700069D-09
   current occupation vector 
     5  1  1  0
     5  1  1  0
      27          -112.681294198431161              0.1043645170D-09
   current occupation vector 
     5  1  1  0
     5  1  1  0

  SCF has converged.

 Density matrix saved to file den.dat
 total electron number:   14.0000000000000     
     E(SCF)=      -112.681294198431445              0.2596755450D-10

  Eigenvector printing suppressed.

 @PUTMOS-I, Writing converged MOs to NEWMOS. 
 @PUTMOS-I, Symmetry   1 Full Blocks 21 Partial Blocksize   2
 @PUTMOS-I, Symmetry   2 Full Blocks 13 Partial Blocksize   0
 @PUTMOS-I, Symmetry   3 Full Blocks 13 Partial Blocksize   0
 @PUTMOS-I, Symmetry   4 Full Blocks  7 Partial Blocksize   0
 @PUTFOCK-I, Writing converged Fock matrix to NEWFOCK. 
 @PUTFOCK-I, Symmetry   1 Full Blocks 21 Partial Blocksize   2
 @PUTFOCK-I, Symmetry   2 Full Blocks 13 Partial Blocksize   0
 @PUTFOCK-I, Symmetry   3 Full Blocks 13 Partial Blocksize   0
 @PUTFOCK-I, Symmetry   4 Full Blocks  7 Partial Blocksize   0


 
  ORBITAL EIGENVALUES (ALPHA)  (1H = 27.2113834 eV)

       MO #        E(hartree)               E(eV)           FULLSYM    COMPSYM
       ----   --------------------   --------------------   -------   ---------
    1     1         -20.6631506649        -562.2729149945     SG+        A1 (1)
    2     2         -11.4572039045        -311.7663681364     SG+        A1 (1)
    3     3          -1.3771082908         -37.4730216851     SG+        A1 (1)
    4     4          -0.7930263034         -21.5793427884     SG+        A1 (1)
    5     5          -0.5641562909         -15.3514731295     SG+        A1 (1)
    6    87          -0.5539473173         -15.0736728338      PI        B1 (2)
    7   139          -0.5539473173         -15.0736728338      PI        B2 (3)
  +++++++++++++++++++++++++++++++++++++++++++++++++++++++++++++++++++++++++++++
    8    88           0.0389640221           1.0602649452      PI        B1 (2)
    9   140           0.0389640221           1.0602649452      PI        B2 (3)
   10     6           0.0635053806           1.7280692597     SG+        A1 (1)
   11     7           0.0689646368           1.8766231727     SG+        A1 (1)
   12    89           0.0928000670           2.5252182019      PI        B1 (2)
   13   141           0.0928000670           2.5252182019      PI        B2 (3)
   14     8           0.1572646438           4.2793885168     SG+        A1 (1)
   15   142           0.1716262729           4.6701883124      PI        B2 (3)
   16    90           0.1716262729           4.6701883124      PI        B1 (2)
   17   191           0.2256016841           6.1389339227      DE        A2 (4)
   18     9           0.2256016841           6.1389339227      DE        A1 (1)
   19    10           0.2262295503           6.1560190308     SG+        A1 (1)
   20   143           0.2992603247           8.1432874323      PI        B2 (3)
   21    91           0.2992603247           8.1432874323      PI        B1 (2)
   22    11           0.2993616462           8.1460445287     SG+        A1 (1)
   23    12           0.3734759949          10.1627984882     SG+        A1 (1)
   24   144           0.3978409717          10.8258032127      PI        B2 (3)
   25    92           0.3978409717          10.8258032128      PI        B1 (2)
   26    13           0.5080624928          13.8250832835     SG+        A1 (1)
   27    14           0.5172190216          14.0742450986     SG+        A1 (1)
   28   192           0.5458186873          14.8524815678      DE        A2 (4)
   29    15           0.5458186873          14.8524815678      DE        A1 (1)
   30   145           0.6257431220          17.0273360026      PI        B2 (3)
   31    93           0.6257431220          17.0273360026      PI        B1 (2)
   32   146           0.7414256432          20.1752174410      PH        B2 (3)
   33    94           0.7414256432          20.1752174410      PH        B1 (2)
   34    16           0.7434153247          20.2293594252     SG+        A1 (1)
   35   193           0.7545501271          20.5323528022      DE        A2 (4)
   36    17           0.7545501271          20.5323528022      DE        A1 (1)
   37   147           0.7960527641          21.6616969704      PI        B2 (3)
   38    95           0.7960527641          21.6616969704      PI        B1 (2)
   39    18           0.8251331062          22.4530133091     SG+        A1 (1)
   40    19           0.8676418882          23.6097360732     SG+        A1 (1)
   41    20           0.8765285767          23.8515551606      DE        A1 (1)
   42   194           0.8765285767          23.8515551606      DE        A2 (4)
   43   148           0.8971046144          24.4114576129      PI        B2 (3)
   44    96           0.8971046144          24.4114576129      PI        B1 (2)
   45   149           1.0364569339          28.2034270070      PI        B2 (3)
   46    97           1.0364569339          28.2034270071      PI        B1 (2)
   47    21           1.1229404309          30.5567626013     SG+        A1 (1)
   48    22           1.4080518665          38.3150391871     SG+        A1 (1)
   49   150           1.4311362219          38.9431964312      PH        B2 (3)
   50    98           1.4311362219          38.9431964312      PH        B1 (2)
   51    23           1.5574386262          42.3800595792      DE        A1 (1)
   52   195           1.5574386262          42.3800595792      DE        A2 (4)
   53    99           1.5634104542          42.5425612810      PI        B1 (2)
   54   151           1.5634104542          42.5425612810      PI        B2 (3)
   55    24           1.6408334503          44.6493481125     SG+        A1 (1)
   56   100           1.6582565932          45.1234559328      PI        B1 (2)
   57   152           1.6582565932          45.1234559328      PI        B2 (3)
   58    25           1.7253966106          46.9504286878      DE        A1 (1)
   59   196           1.7253966106          46.9504286880      DE        A2 (4)
   60    26           1.8655727078          50.7648142113     SG+        A1 (1)
   61    27           2.0207446243          54.9872567259     SG+        A1 (1)
   62   153           2.0746474811          56.4540280285      PI        B2 (3)
   63   101           2.0746474811          56.4540280285      PI        B1 (2)
   64   197           2.0873469298          56.7995975948      PI        A2 (4)
   65    28           2.0873469298          56.7995975948      PI        A1 (1)
   66   198           2.1550297536          58.6413408634      DE        A2 (4)
   67    29           2.1550297536          58.6413408634      DE        A1 (1)
   68   154           2.2293637476          60.6640716750      PH        B2 (3)
   69   102           2.2293637476          60.6640716750      PH        B1 (2)
   70   155           2.2723619545          61.8341123682      PI        B2 (3)
   71   103           2.2723619545          61.8341123682      PI        B1 (2)
   72   104           2.2793608872          62.0245630091      PH        B1 (2)
   73   156           2.2793608872          62.0245630091      PH        B2 (3)
   74    30           2.2811064336          62.0720617405     SG+        A1 (1)
   75    31           2.3225308682          63.1992779131      DE        A1 (1)
   76   199           2.3225308682          63.1992779131      DE        A2 (4)
   77    32           2.5000900696          68.0309094191     SG+        A1 (1)
   78   157           2.5322723529          68.9066338688      PI        B2 (3)
   79   105           2.5322723529          68.9066338688      PI        B1 (2)
   80    33           2.6396655740          71.8289519830     SG+        A1 (1)
   81   106           2.6649611636          72.5172799698      PI        B1 (2)
   82   158           2.6649611636          72.5172799698      PI        B2 (3)
   83    34           2.8083451998          76.4189579518      DE        A1 (1)
   84   200           2.8083451998          76.4189579521      DE        A2 (4)
   85    35           3.3053744811          89.9438122857     SG+        A1 (1)
   86   107           3.6011356802          97.9918836702      PI        B1 (2)
   87   159           3.6011356802          97.9918836703      PI        B2 (3)
   88   201           3.7014900159         100.7226639736      PI        A2 (4)
   89    36           3.7014900159         100.7226639736      PI        A1 (1)
   90    37           3.8993602108         106.1069857111     SG+        A1 (1)
   91   108           4.0423258007         109.9972771896      PH        B1 (2)
   92   160           4.0423258007         109.9972771896      PH        B2 (3)
   93   161           4.1268494489         112.2972825874      PH        B2 (3)
   94   109           4.1268494489         112.2972825874      PH        B1 (2)
   95   110           4.1733405570         113.5623699557      PI        B1 (2)
   96   162           4.1733405570         113.5623699557      PI        B2 (3)
   97    38           4.2130720440         114.6435186801     SG+        A1 (1)
   98    39           4.2171304751         114.7539542053      DE        A1 (1)
   99   202           4.2171304751         114.7539542053      DE        A2 (4)
  100    40           4.2872924592         116.6631588548      DE        A1 (1)
  101   203           4.2872924592         116.6631588549      DE        A2 (4)
  102    41           4.3894326415         119.4425345154     SG+        A1 (1)
  103   163           4.7640049875         129.6351662341      PI        B2 (3)
  104   111           4.7640049875         129.6351662341      PI        B1 (2)
  105    42           4.9226925149         133.9532733840      DE        A1 (1)
  106   204           4.9226925149         133.9532733843      DE        A2 (4)
  107    43           5.0096469500         136.3194238557     SG+        A1 (1)
  108   112           5.0326977792         136.9466688071      PI        B1 (2)
  109   164           5.0326977792         136.9466688072      PI        B2 (3)
  110    44           5.3685328565         146.0852058538     SG+        A1 (1)
  111   165           5.5232934771         150.2964564355      PI        B2 (3)
  112   113           5.5232934771         150.2964564355      PI        B1 (2)
  113   205           5.8636020555         159.5567236360      PI        A2 (4)
  114    45           5.8636020555         159.5567236360      PI        A1 (1)
  115   114           5.9681140792         162.4006403831      PH        B1 (2)
  116   166           5.9681140792         162.4006403831      PH        B2 (3)
  117    46           6.1900161581         168.4389029290     SG+        A1 (1)
  118    47           6.2068000276         168.8956152383      DE        A1 (1)
  119   206           6.2068000276         168.8956152383      DE        A2 (4)
  120   115           6.2348882809         169.6599354672      PI        B1 (2)
  121   167           6.2348882809         169.6599354672      PI        B2 (3)
  122    48           6.3879923970         173.8261102710     SG+        A1 (1)
  123   116           6.3986209469         174.1153278169      PH        B1 (2)
  124   168           6.3986209469         174.1153278169      PH        B2 (3)
  125    49           6.5299853371         177.6899346037      DE        A1 (1)
  126   207           6.5299853371         177.6899346037      DE        A2 (4)
  127   208           6.6369260335         180.5999388963      DE        A2 (4)
  128    50           6.6369260335         180.5999388963      DE        A1 (1)
  129   117           7.0341017003         191.4076382418      PI        B1 (2)
  130   169           7.0341017003         191.4076382418      PI        B2 (3)
  131    51           7.3407922896         199.7531134522     SG+        A1 (1)
  132   118           7.7847593200         211.8340705327      PI        B1 (2)
  133   170           7.7847593200         211.8340705327      PI        B2 (3)
  134    52           8.2951359270         225.7221240658     SG+        A1 (1)
  135    53           9.8517257446         268.0790863892     SG+        A1 (1)
  136   119          10.0101860532         272.3910106003      PI        B1 (2)
  137   171          10.0101860533         272.3910106004      PI        B2 (3)
  138   209          10.6227900543         289.0608129440      PI        A2 (4)
  139    54          10.6227900543         289.0608129440      PI        A1 (1)
  140   172          10.7768795810         293.2538021349      PH        B2 (3)
  141   120          10.7768795810         293.2538021349      PH        B1 (2)
  142    55          10.8015928806         293.9262852048     SG+        A1 (1)
  143    56          11.0108374708         299.6201199727      DE        A1 (1)
  144   210          11.0108374708         299.6201199728      DE        A2 (4)
  145   173          11.1084813223         302.2771442517      PI        B2 (3)
  146   121          11.1084813223         302.2771442517      PI        B1 (2)
  147    57          11.4233987697         310.8464836531     SG+        A1 (1)
  148   122          11.8658045227         322.8849562153      PH        B1 (2)
  149   174          11.8658045227         322.8849562153      PH        B2 (3)
  150    58          12.0850573943         328.8511301680      DE        A1 (1)
  151   211          12.0850573943         328.8511301685      DE        A2 (4)
  152   123          12.6065711806         343.0422417548      PI        B1 (2)
  153   175          12.6065711806         343.0422417548      PI        B2 (3)
  154    59          12.7700027752         347.4894415351      DE        A1 (1)
  155   212          12.7700027752         347.4894415352      DE        A2 (4)
  156    60          12.9342700208         351.9593805359     SG+        A1 (1)
  157   176          13.1834679710         358.7404014992      PI        B2 (3)
  158   124          13.1834679710         358.7404014992      PI        B1 (2)
  159    61          14.1197949361         384.2191535349     SG+        A1 (1)
  160    62          17.5755114919         478.2539816581     SG+        A1 (1)
  161   177          18.9475548393         515.5891792243      PI        B2 (3)
  162   125          18.9475548393         515.5891792243      PI        B1 (2)
  163    63          20.3921687212         554.8991214292     SG+        A1 (1)
  164    64          26.3516526741         717.0649241397      DE        A1 (1)
  165   213          26.3516526741         717.0649241397      DE        A2 (4)
  166   126          26.7730749862         728.5324082478      PI        B1 (2)
  167   178          26.7730749862         728.5324082478      PI        B2 (3)
  168    65          27.3284898850         743.6460160036     SG+        A1 (1)
  169   127          33.6589757569         915.9072941724      PI        B1 (2)
  170   179          33.6589757569         915.9072941725      PI        B2 (3)
  171    66          34.4193002790         936.5967762523     SG+        A1 (1)
  172    67          36.1010162964         982.3585955706     SG+        A1 (1)
  173    68          47.0818340272        1281.1618368894      DE        A1 (1)
  174   214          47.0818340272        1281.1618368895      DE        A2 (4)
  175   180          47.2906610619        1286.8443093950      PI        B2 (3)
  176   128          47.2906610619        1286.8443093950      PI        B1 (2)
  177    69          47.8778232412        1302.8218045731     SG+        A1 (1)
  178    70          63.9404341735        1739.9076690584     SG+        A1 (1)
  179   181          66.4843186139        1809.1302838911      PI        B2 (3)
  180   129          66.4843186139        1809.1302838911      PI        B1 (2)
  181    71          67.5251880570        1837.4537813761     SG+        A1 (1)
  182   182          98.5744906962        2682.3482597938      PH        B2 (3)
  183   130          98.5744906962        2682.3482597938      PH        B1 (2)
  184    72          98.5883604848        2682.7256759299      DE        A1 (1)
  185   215          98.5883604848        2682.7256759299      DE        A2 (4)
  186   183          98.6124275210        2683.3805732777      PI        B2 (3)
  187   131          98.6124275210        2683.3805732777      PI        B1 (2)
  188    73          98.6337867560        2683.9617876103     SG+        A1 (1)
  189   132         103.2880737742        2810.6113761171      PH        B1 (2)
  190   184         103.2880737742        2810.6113761171      PH        B2 (3)
  191   216         103.3078398129        2811.1492373757      DE        A2 (4)
  192    74         103.3078398129        2811.1492373757      DE        A1 (1)
  193   185         103.3520264152        2812.3516159500      PI        B2 (3)
  194   133         103.3520264152        2812.3516159500      PI        B1 (2)
  195    75         103.3576461005        2812.5045353625     SG+        A1 (1)
  196   217         115.0407869670        3130.4189607972      DE        A2 (4)
  197    76         115.0407869670        3130.4189607973      DE        A1 (1)
  198   134         115.2433713747        3135.9315627857      PI        B1 (2)
  199   186         115.2433713747        3135.9315627857      PI        B2 (3)
  200    77         115.5364647100        3143.9070379032     SG+        A1 (1)
  201   135         116.9283079774        3181.7810186857      PI        B1 (2)
  202   187         116.9283079774        3181.7810186858      PI        B2 (3)
  203    78         117.5504484595        3198.7103218725     SG+        A1 (1)
  204    79         122.2854242591        3327.5555637462     SG+        A1 (1)
  205    80         198.5533847198        5402.9122769771      DE        A1 (1)
  206   218         198.5533847198        5402.9122769771      DE        A2 (4)
  207   188         198.6653267970        5405.9583757596      PI        B2 (3)
  208   136         198.6653267970        5405.9583757599      PI        B1 (2)
  209    81         198.9734600523        5414.3431079075     SG+        A1 (1)
  210    82         216.4679112249        5890.3913261391     SG+        A1 (1)
  211   137         224.9410483092        6120.9571079407      PI        B1 (2)
  212   189         224.9410483092        6120.9571079407      PI        B2 (3)
  213    83         225.7546682625        6143.0968324312     SG+        A1 (1)
  214   190         395.4014010670       10759.4191213308      PI        B2 (3)
  215   138         395.4014010670       10759.4191213312      PI        B1 (2)
  216    84         395.9294124069       10773.7870403420     SG+        A1 (1)
  217    85         508.9084532509       13848.1030369100     SG+        A1 (1)
  218    86         895.3017930833       24362.4003502974     SG+        A1 (1)


  VSCF finished.

 @CHECKOUT-I, Total execution time (CPU/WALL):       49.08/      10.34 seconds.
--executable xvscf finished with status     0 in       10.38 seconds (walltime).
 --invoking executable--
/nfs/workspaces/public/cfour_mpi/bin/xvtran
 @GETMEM-I,  Allocated    3814 MB of main memory.
  Full RHF integral transformation
  Transformation of IIII integrals :
  1 pass through the AO integral file was required.
     4506452 AO integrals were read.
     8755148 MO integrals were written to HF2.
  Transformation of IIJJ integrals :
  1 pass through the AO integral file was required.
    10224521 AO integrals were read.
    14533239 MO integrals were written to HF2.
  Transformation of IJIJ integrals :
  1 pass through the AO integral file was required.
    19416336 AO integrals were read.
    27203672 MO integrals were written to HF2.
  Transformation of IJKL integrals :
  1 pass through the AO integral file was required.
    14375229 AO integrals were read.
    18394398 MO integrals were written to HF2.
  Summary of active molecular orbitals: 
------------------------------------------------------------------------
 
  Index      Eigenvalue    Symmetry    Index      Eigenvalue    Symmetry
------------------------------------------------------------------------
     1       -20.6631507        1       110         4.1268494        2
     2       -11.4572039        1       111         4.1733406        2
     3        -1.3771083        1       112         4.7640050        2
     4        -0.7930263        1       113         5.0326978        2
     5        -0.5641563        1       114         5.5232935        2
     6        -0.5539473        2       115         5.9681141        2
     7        -0.5539473        3       116         6.2348883        2
     8         0.0635054        1       117         6.3986209        2
     9         0.0689646        1       118         7.0341017        2
    10         0.1572646        1       119         7.7847593        2
    11         0.2256017        1       120        10.0101861        2
    12         0.2262296        1       121        10.7768796        2
    13         0.2993616        1       122        11.1084813        2
    14         0.3734760        1       123        11.8658045        2
    15         0.5080625        1       124        12.6065712        2
    16         0.5172190        1       125        13.1834680        2
    17         0.5458187        1       126        18.9475548        2
    18         0.7434153        1       127        26.7730750        2
    19         0.7545501        1       128        33.6589758        2
    20         0.8251331        1       129        47.2906611        2
    21         0.8676419        1       130        66.4843186        2
    22         0.8765286        1       131        98.5744907        2
    23         1.1229404        1       132        98.6124275        2
    24         1.4080519        1       133       103.2880738        2
    25         1.5574386        1       134       103.3520264        2
    26         1.6408335        1       135       115.2433714        2
    27         1.7253966        1       136       116.9283080        2
    28         1.8655727        1       137       198.6653268        2
    29         2.0207446        1       138       224.9410483        2
    30         2.0873469        1       139       395.4014011        2
    31         2.1550298        1       140         0.0389640        3
    32         2.2811064        1       141         0.0928001        3
    33         2.3225309        1       142         0.1716263        3
    34         2.5000901        1       143         0.2992603        3
    35         2.6396656        1       144         0.3978410        3
    36         2.8083452        1       145         0.6257431        3
    37         3.3053745        1       146         0.7414256        3
    38         3.7014900        1       147         0.7960528        3
    39         3.8993602        1       148         0.8971046        3
    40         4.2130720        1       149         1.0364569        3
    41         4.2171305        1       150         1.4311362        3
    42         4.2872925        1       151         1.5634105        3
    43         4.3894326        1       152         1.6582566        3
    44         4.9226925        1       153         2.0746475        3
    45         5.0096470        1       154         2.2293637        3
    46         5.3685329        1       155         2.2723620        3
    47         5.8636021        1       156         2.2793609        3
    48         6.1900162        1       157         2.5322724        3
    49         6.2068000        1       158         2.6649612        3
    50         6.3879924        1       159         3.6011357        3
    51         6.5299853        1       160         4.0423258        3
    52         6.6369260        1       161         4.1268494        3
    53         7.3407923        1       162         4.1733406        3
    54         8.2951359        1       163         4.7640050        3
    55         9.8517257        1       164         5.0326978        3
    56        10.6227901        1       165         5.5232935        3
    57        10.8015929        1       166         5.9681141        3
    58        11.0108375        1       167         6.2348883        3
    59        11.4233988        1       168         6.3986209        3
    60        12.0850574        1       169         7.0341017        3
    61        12.7700028        1       170         7.7847593        3
    62        12.9342700        1       171        10.0101861        3
    63        14.1197949        1       172        10.7768796        3
    64        17.5755115        1       173        11.1084813        3
    65        20.3921687        1       174        11.8658045        3
    66        26.3516527        1       175        12.6065712        3
    67        27.3284899        1       176        13.1834680        3
    68        34.4193003        1       177        18.9475548        3
    69        36.1010163        1       178        26.7730750        3
    70        47.0818340        1       179        33.6589758        3
    71        47.8778232        1       180        47.2906611        3
    72        63.9404342        1       181        66.4843186        3
    73        67.5251881        1       182        98.5744907        3
    74        98.5883605        1       183        98.6124275        3
    75        98.6337868        1       184       103.2880738        3
    76       103.3078398        1       185       103.3520264        3
    77       103.3576461        1       186       115.2433714        3
    78       115.0407870        1       187       116.9283080        3
    79       115.5364647        1       188       198.6653268        3
    80       117.5504485        1       189       224.9410483        3
    81       122.2854243        1       190       395.4014011        3
    82       198.5533847        1       191         0.2256017        4
    83       198.9734601        1       192         0.5458187        4
    84       216.4679112        1       193         0.7545501        4
    85       225.7546683        1       194         0.8765286        4
    86       395.9294124        1       195         1.5574386        4
    87       508.9084533        1       196         1.7253966        4
    88       895.3017931        1       197         2.0873469        4
    89         0.0389640        2       198         2.1550298        4
    90         0.0928001        2       199         2.3225309        4
    91         0.1716263        2       200         2.8083452        4
    92         0.2992603        2       201         3.7014900        4
    93         0.3978410        2       202         4.2171305        4
    94         0.6257431        2       203         4.2872925        4
    95         0.7414256        2       204         4.9226925        4
    96         0.7960528        2       205         5.8636021        4
    97         0.8971046        2       206         6.2068000        4
    98         1.0364569        2       207         6.5299853        4
    99         1.4311362        2       208         6.6369260        4
   100         1.5634105        2       209        10.6227901        4
   101         1.6582566        2       210        11.0108375        4
   102         2.0746475        2       211        12.0850574        4
   103         2.2293637        2       212        12.7700028        4
   104         2.2723620        2       213        26.3516527        4
   105         2.2793609        2       214        47.0818340        4
   106         2.5322724        2       215        98.5883605        4
   107         2.6649612        2       216       103.3078398        4
   108         3.6011357        2       217       115.0407870        4
   109         4.0423258        2       218       198.5533847        4
------------------------------------------------------------------------
  -20.6631506648961       -11.4572039044660       -1.37710829083029     
 -0.793026303412192      -0.564156290911610      -0.553947317276075     
 -0.553947317276046       6.350538060745393E-002  6.896463678931866E-002
  0.157264643765477       0.225601684136142       0.226229550344752     
  0.299361646151304       0.373475994909266       0.508062492828472     
  0.517219021603623       0.545818687330107       0.743415324674810     
  0.754550127068608       0.825133106209578       0.867641888182194     
  0.876528576662166        1.12294043092631        1.40805186652327     
   1.55743862619008        1.64083345033219        1.72539661058961     
   1.86557270775424        2.02074462432074        2.08734692977217     
   2.15502975359075        2.28110643358506        2.32253086820790     
   2.50009006962525        2.63966557404165        2.80834519981964     
   3.30537448109804        3.70149001588749        3.89936021081171     
   4.21307204396304        4.21713047508137        4.28729245918298     
   4.38943264146573        4.92269251492811        5.00964695002301     
   5.36853285650226        5.86360205545289        6.19001615805421     
   6.20680002760403        6.38799239699680        6.52998533708052     
   6.63692603354712        7.34079228960360        8.29513592703907     
   9.85172574464644        10.6227900542537        10.8015928806023     
   11.0108374707882        11.4233987696879        12.0850573943259     
   12.7700027752026        12.9342700208275        14.1197949360742     
[...]
 Convergence information after    12 iterations: 
 Largest element of residual vector : -0.27499498E-05.
 Largest element of DIIS residual   : -0.16252204E-05.
 Convergence information after    13 iterations: 
 Largest element of residual vector : -0.12979896E-05.
 Largest element of DIIS residual   : -0.63373876E-06.
 Convergence information after    14 iterations: 
 Largest element of residual vector : -0.75375350E-06.
 Largest element of DIIS residual   : -0.41463140E-06.
 Convergence information after    15 iterations: 
 Largest element of residual vector : -0.28733432E-06.
 Largest element of DIIS residual   : -0.17633830E-06.
 Convergence information after    16 iterations: 
 Largest element of residual vector : -0.17119145E-06.
 Largest element of DIIS residual   : -0.73616555E-07.
 Perturbed amplitude equations converged in    16 iterations.
  Dominant contributions to perturbed wavefunction:
    7    7  140   28  -0.2414043481 ABAB
    7    7   28  140  -0.2414043481 ABAB
    7    7  140   39  -0.2101083290 ABAB
    7    7   39  140  -0.2101083290 ABAB
    7    7  140   54  -0.1665352091 ABAB
    7    7   54  140  -0.1665352091 ABAB
    7    7  141   28  -0.1571920453 ABAB
    7    7   28  141  -0.1571920453 ABAB
    7    6   28   89  -0.1544195817 ABAB
    6    7   89   28  -0.1544195817 ABAB
    7    7  140   20  -0.1440668486 ABAB
    7    7   20  140  -0.1440668486 ABAB
    7    7  141   39  -0.1416387562 ABAB
    7    7   39  141  -0.1416387562 ABAB
    7    7  140   45   0.1354989415 ABAB
    7    7   45  140   0.1354989415 ABAB
    7    6   39   89  -0.1348904116 ABAB
    6    7   89   39  -0.1348904116 ABAB
    7    7  140   21  -0.1297143671 ABAB
    7    7   21  140  -0.1297143671 ABAB
  norm of converged amps    1.95583611101764     
 Starting iterative solution of the perturbed Lambda equations.
 The DIIS procedure is used to accelerate convergence.
 Convergence criterion is 10**(-7).
 Maximum number of iterations is 100.
 Convergence information after     1 iterations: 
 Largest element of residual vector :  0.62739542E-01.
 Largest element of DIIS residual   :  0.62739542E-01.
 Convergence information after     2 iterations: 
 Largest element of residual vector : -0.12365261E-01.
 Largest element of DIIS residual   :  0.81019294E-02.
 Convergence information after     3 iterations: 
 Largest element of residual vector :  0.52908802E-02.
 Largest element of DIIS residual   :  0.47831036E-02.
 Convergence information after     4 iterations: 
 Largest element of residual vector :  0.33704937E-02.
 Largest element of DIIS residual   :  0.29305129E-02.
 Convergence information after     5 iterations: 
 Largest element of residual vector :  0.23931880E-02.
 Largest element of DIIS residual   :  0.14033629E-02.
 Convergence information after     6 iterations: 
 Largest element of residual vector :  0.96002555E-03.
 Largest element of DIIS residual   :  0.38860626E-03.
 Convergence information after     7 iterations: 
 Largest element of residual vector :  0.37030105E-03.
 Largest element of DIIS residual   : -0.13105866E-03.
 Convergence information after     8 iterations: 
 Largest element of residual vector :  0.84314796E-04.
 Largest element of DIIS residual   : -0.57301844E-04.
 Convergence information after     9 iterations: 
 Largest element of residual vector :  0.34786409E-04.
 Largest element of DIIS residual   : -0.11200458E-04.
 Convergence information after    10 iterations: 
 Largest element of residual vector : -0.86151126E-05.
 Largest element of DIIS residual   : -0.57609341E-05.
 Convergence information after    11 iterations: 
 Largest element of residual vector : -0.32955230E-05.
 Largest element of DIIS residual   : -0.19801957E-05.
 Convergence information after    12 iterations: 
 Largest element of residual vector : -0.20196786E-05.
 Largest element of DIIS residual   : -0.15940820E-05.
 Convergence information after    13 iterations: 
 Largest element of residual vector : -0.11640640E-05.
 Largest element of DIIS residual   : -0.84427761E-06.
 Convergence information after    14 iterations: 
 Largest element of residual vector : -0.82751116E-06.
 Largest element of DIIS residual   : -0.59480456E-06.
 Convergence information after    15 iterations: 
 Largest element of residual vector : -0.41071570E-06.
 Largest element of DIIS residual   : -0.25359028E-06.
 Convergence information after    16 iterations: 
 Largest element of residual vector : -0.23070748E-06.
 Largest element of DIIS residual   : -0.97687729E-07.
 Perturbed Lambda equations converged in    16 iterations.
  Dominant contributions to perturbed wavefunction:
    7    7  140   28  -0.2193971114 ABAB
    7    7   28  140  -0.2193971114 ABAB
    7    7  140   39  -0.1887781914 ABAB
    7    7   39  140  -0.1887781914 ABAB
    7    7  140   54  -0.1527617515 ABAB
    7    7   54  140  -0.1527617515 ABAB
    7    7  141   28  -0.1415604792 ABAB
    7    7   28  141  -0.1415604792 ABAB
    7    6   28   89  -0.1378516795 ABAB
    6    7   89   28  -0.1378516795 ABAB
    7    7  140   20  -0.1283695994 ABAB
    7    7   20  140  -0.1283695994 ABAB
    7    7  141   39  -0.1261229539 ABAB
    7    7   39  141  -0.1261229539 ABAB
    7    7  140   45   0.1212609592 ABAB
    7    7   45  140   0.1212609592 ABAB
    7    6   39   89  -0.1190858868 ABAB
    6    7   89   39  -0.1190858868 ABAB
    7    7  140   21  -0.1174235012 ABAB
    7    7   21  140  -0.1174235012 ABAB
        The DBOC first-order density matrix is being calculated 
             (Symmetry block 3, perturbation   2)
 term   4.28305771497296     
 final tnorm  0.852327986690714     
  norm contr. I: |<0|L dT/dx|0>|^2   0.000000000000000E+000
  norm contr. II: <0|[nabla(1+L)e-T][nabla e^T]|0>   4.28305771497296     
  total norm contribution   4.28305771497296     
 oo  8.235123817688008E-003
 vv  -32.1109558758342     
 vo  6.724613221491901E-002
  Correlated perturbed 1-el contribution to DBOC  -32.0354746198016       cm**-1
  SUM_I |dc_I/dx|^2 contribution to DBOC   16.1244685286673       cm**-1
 
 
  The total diagonal Born-Oppenheimer correction (DBOC) is:      0.0040075946 a.u.
  The total diagonal Born-Oppenheimer correction (DBOC) is:        879.565356 cm-1
 
 Total CC energy including DBOC  -113.200012412955     
 First-order density matrix is being calculated  (Symmetry block 3, perturbation   2)
 Calculation of the contributions of <pq||rs> to dI(i,j)/dx required   2.0 seconds.
 Calculation of the contributions of <pq||rs> to dI(a,b)/dx required  15.9 seconds.
 Calculation of the contributions of <pq||rs> to dI(i,a)/dx required   9.7 seconds.
 First-order Z-vector equations are solved for 1 perturbation.
 Convergence reached after  19 iterations.
        U*G(pq,rs) contribution is being calculated
             (Symmetry block 3, perturbation   2)

 CCSD contribution to force constants 

        0.0000000000        0.0000000000        0.0000000000
        0.0000000000        0.0000000000        0.0000000000
        0.0000000000        0.0000000000        0.0000000000
        0.0000000000        0.0000000000        0.0000000000
        0.0000000000        0.0000000000        0.0000000000
        0.0000000000        0.0000000000        0.0000000000
        0.0000000000        0.0000000000        0.0000000000
        0.0000000000        0.0000000000        0.0000000000
        0.0000000000        0.0000000000        0.0000000000
        0.0000000000        0.0000000000        0.0000000000
        0.0000000000        0.0000000000        0.0000000000
        0.0000000000        0.8900911087       -0.8900911087

 CCSD contribution to dipole derivatives 

        0.0000000000        0.0000000000        0.0000000000
        0.0000000000        0.0000000000        0.0000000000
        0.0000000000        0.0000000000        0.0000000000
        0.0000000000        0.0000000000       -0.0533836113
        0.0000000000        0.0000000000        0.0000000000
        0.0000000000        0.0000000000        0.0000000000
 @CHECKOUT-I, Total execution time (CPU/WALL):     1299.45/     579.05 seconds.
--executable xsdcc finished with status     0 in      579.30 seconds (walltime).
 --invoking executable--
/nfs/workspaces/public/cfour_mpi/bin/xanti
 @GETMEM-I,  Allocated    3814 MB of main memory.
 CCSD MO derivative gammas will be sorted to Mulliken order.
 @CHECKOUT-I, Total execution time (CPU/WALL):       16.32/      59.53 seconds.
--executable xanti finished with status     0 in       59.66 seconds (walltime).
 --invoking executable--
/nfs/workspaces/public/cfour_mpi/bin/xbcktrn
 @GETMEM-I,  Allocated    3814 MB of main memory.
 CCSD MO derivative gammas will be transformed to the AO basis.
 @CHECKOUT-I, Total execution time (CPU/WALL):       33.14/       6.02 seconds.
--executable xbcktrn finished with status     0 in        6.08 seconds (walltime).
 --invoking executable--
/nfs/workspaces/public/cfour_mpi/bin/xvdint
 @GETMEM-I,  Allocated    3814 MB of main memory.
 One- and two-electron integral derivatives are calculated
 for RHF-CC/MBPT hessians and dipole derivatives.
 Spherical gaussians are used.
  magnet F F
                    8722  records have been written to the Sort file.
  Total length of Sort file :             178609116  words.
 Evaluation of 2el integral derivatives

                      Two-electron integral gradient
                      ------------------------------

                         C #1 z     0.0000000000
                         O #2 z     0.0000000000


 C #1       0.0000000000           -0.1010609936            0.0000000000
 O #2       0.0000000000            0.1010609936            0.0000000000


 Evaluation of 2e integral derivatives required  348.57 seconds.
  contribution to Hessian
        0.0000000000        0.0000000000        0.0000000000
        0.0000000000       -0.1010609936        0.1010609936
 @CHECKOUT-I, Total execution time (CPU/WALL):      348.56/      71.28 seconds.
--executable xvdint finished with status     0 in       71.44 seconds (walltime).
 --invoking executable--
/nfs/workspaces/public/cfour_mpi/bin/xanti
 @GETMEM-I,  Allocated    3814 MB of main memory.
 CCSD MO gammas will be sorted to Mulliken order.
 @CHECKOUT-I, Total execution time (CPU/WALL):       15.48/      44.80 seconds.
--executable xanti finished with status     0 in       44.90 seconds (walltime).
 --invoking executable--
/nfs/workspaces/public/cfour_mpi/bin/xbcktrn
 @GETMEM-I,  Allocated    3814 MB of main memory.
 CCSD MO gammas will be transformed to the AO basis.
 @CHECKOUT-I, Total execution time (CPU/WALL):       34.10/      16.33 seconds.
--executable xbcktrn finished with status     0 in       16.36 seconds (walltime).
 --invoking executable--
/nfs/workspaces/public/cfour_mpi/bin/xvdint
 @GETMEM-I,  Allocated    3814 MB of main memory.
 One- and two-electron integral derivatives are calculated
 for RHF-CC/MBPT hessians and dipole derivatives.
 Spherical gaussians are used.
  magnet F F

                     Kinetic energy integral gradient
                     --------------------------------

                         C #1 z    -0.8878556634
                         O #2 z     0.8878556634


 C #1       0.0000000000            0.0000000000           -0.8878556634
 O #2       0.0000000000            0.0000000000            0.8878556634



                   Nuclear attraction integral gradient
                   ------------------------------------

                         C #1 z    17.8387860805
                         O #2 z   -17.8387860805


 C #1       0.0000000000            0.0000000000           17.8387860805
 O #2       0.0000000000            0.0000000000          -17.8387860805



                      Reorthonormalization gradient
                      -----------------------------

                         C #1 z     0.0000000000
                         O #2 z     0.0000000000


 C #1       0.0000000000            0.0000000000            0.0000000000
 O #2       0.0000000000            0.0000000000            0.0000000000



                     Kinetic energy integral Hessian
                     -------------------------------


           Symmetry 1

           C #1 z      O #2 z

 C #1 z    0.872349
 O #2 z   -0.872349    0.872349


           Symmetry 2

           C #1 x      O #2 x

 C #1 x   -0.862811
 O #2 x    0.862811   -0.862811


           Symmetry 3

           C #1 y      O #2 y

 C #1 y   -0.862811
 O #2 y    0.862811   -0.862811




           C #1 x      C #1 y      C #1 z      O #2 x      O #2 y      O #2 z

 C #1 x   -0.862811
 C #1 y    0.000000   -0.862811
 C #1 z    0.000000    0.000000    0.872349

 O #2 x    0.862811    0.000000    0.000000   -0.862811
 O #2 y    0.000000    0.862811    0.000000    0.000000   -0.862811
 O #2 z    0.000000    0.000000   -0.872349    0.000000    0.000000    0.872349




                   Nuclear attraction integral Hessian
                   -----------------------------------


           Symmetry 1

           C #1 z      O #2 z

 C #1 z  -11.032819
 O #2 z   11.032819  -11.032819


           Symmetry 2

           C #1 x      O #2 x

 C #1 x   11.985644
 O #2 x  -11.985644   11.985644


           Symmetry 3

           C #1 y      O #2 y

 C #1 y   11.985644
 O #2 y  -11.985644   11.985644




           C #1 x      C #1 y      C #1 z      O #2 x      O #2 y      O #2 z

 C #1 x   11.985644
 C #1 y    0.000000   11.985644
 C #1 z    0.000000    0.000000  -11.032819

 O #2 x  -11.985644    0.000000    0.000000   11.985644
 O #2 y    0.000000  -11.985644    0.000000    0.000000   11.985644
 O #2 z    0.000000    0.000000   11.032819    0.000000    0.000000  -11.032819




                Highest order reorthonormalization Hessian
                ------------------------------------------


           Symmetry 1

           C #1 z      O #2 z

 C #1 z    0.000000
 O #2 z    0.000000    0.000000


           Symmetry 2

           C #1 x      O #2 x

 C #1 x    0.000000
 O #2 x    0.000000    0.000000


           Symmetry 3

           C #1 y      O #2 y

 C #1 y    0.000000
 O #2 y    0.000000    0.000000




           C #1 x      C #1 y      C #1 z      O #2 x      O #2 y      O #2 z




                Electronic contributions to dipole moment
                -----------------------------------------

                               au             Debye

                    z      0.95527089      2.42805685

  Conversion factor used: 1 a.u. =   2.54174691 Debye 



   Electronic contributions to static part of dipole moment derivatives
   --------------------------------------------------------------------


                     Total dipole moment derivatives
                     -------------------------------


           Symmetry 1
                              Ez

               C #1 z    -5.67446696
               O #2 z    -8.32553304

           Symmetry 2
                              Ex

               C #1 x    -5.68810561
               O #2 x    -8.31189439

           Symmetry 3
                              Ey

               C #1 y    -5.68810561
               O #2 y    -8.31189439



                       Ex          Ey          Ez

      C #1    x   -5.688106    0.000000    0.000000
      C #1    y    0.000000   -5.688106    0.000000
      C #1    z    0.000000    0.000000   -5.674467

      O #2    x   -8.311894    0.000000    0.000000
      O #2    y    0.000000   -8.311894    0.000000
      O #2    z    0.000000    0.000000   -8.325533

 Evaluation of 1e integral derivatives required    1.65 seconds.
                    8815  records have been written to the Sort file.
  Total length of Sort file :             180513570  words.
 Evaluation of 2el integral derivatives

                      Two-electron integral gradient
                      ------------------------------

                         C #1 z    -9.0669026623
                         O #2 z     9.0669026623


 C #1       0.0000000000            0.0000000000           -9.0669026623
 O #2       0.0000000000            0.0000000000            9.0669026623


 Evaluation of 2e integral derivatives required  710.83 seconds.

                            Molecular gradient
                            ------------------

                         C #1 z     0.6754606577
                         O #2 z    -0.6754606577


 C #1       0.0000000000            0.0000000000            0.6754606577
 O #2       0.0000000000            0.0000000000           -0.6754606577


  Molecular gradient norm 0.955E+00

                            Molecular hessian
                            -----------------


           Symmetry 1

           C #1 z      O #2 z

 C #1 z   34.144775
 O #2 z  -34.144775   34.144775


           Symmetry 2

           C #1 x      O #2 x

 C #1 x   -0.499741
 O #2 x    0.499741   -0.499741


           Symmetry 3

           C #1 y      O #2 y

 C #1 y   -0.499741
 O #2 y    0.499741   -0.499741




           C #1 x      C #1 y      C #1 z      O #2 x      O #2 y      O #2 z

 C #1 x   -0.499741
 C #1 y    0.000000   -0.499741
 C #1 z    0.000000    0.000000   34.144775

 O #2 x    0.499741    0.000000    0.000000   -0.499741
 O #2 y    0.000000    0.499741    0.000000    0.000000   -0.499741
 O #2 z    0.000000    0.000000  -34.144775    0.000000    0.000000   34.144775




                           Total dipole moment
                           -------------------

                               au             Debye

                    z      0.23827554      0.60563613

  Conversion factor used: 1 a.u. =   2.54174691 Debye 



                     Total dipole moment derivatives
                     -------------------------------


           Symmetry 1
                              Ez

               C #1 z     0.68049051
               O #2 z    -0.68049051

           Symmetry 2
                              Ex

               C #1 x     0.09497390
               O #2 x    -0.09497390

           Symmetry 3
                              Ey

               C #1 y     0.09497390
               O #2 y    -0.09497390



                       Ex          Ey          Ez

      C #1    x    0.094974    0.000000    0.000000
      C #1    y    0.000000    0.094974    0.000000
      C #1    z    0.000000    0.000000    0.680491

      O #2    x   -0.094974    0.000000    0.000000
      O #2    y    0.000000   -0.094974    0.000000
      O #2    z    0.000000    0.000000   -0.680491

 @CHECKOUT-I, Total execution time (CPU/WALL):      712.47/     140.58 seconds.
--executable xvdint finished with status     0 in      140.79 seconds (walltime).
 --invoking executable--
/nfs/workspaces/public/cfour_mpi/bin/xjoda
  @GTFLGS-I, Hessian will be transformed to curvilinear coordinates.
  @GTFLGS-I, Hessian will be transformed to curvilinear coordinates.
  igrd and ihes are                      0                     1
  gradient from JOBARC 
   0.000000000000000   0.000000000000000   0.675460657722603
   0.000000000000000   0.000000000000000  -0.675460657722603
 
  @PROJFCM-I, Projecting force constant matrix onto totally symmetric subspace.
  Largest difference between matrix elements of symmetrized
  and unsymmetrized FCM :     0.7158773574E-11.
  read isotopes from ZMAT file 
 
  Summary of diagonal Born-Oppenheimer correction at the correlated level
  The total diagonal Born-Oppenheimer correction (DBOC) is:      0.0040075946 a.u.
  The total diagonal Born-Oppenheimer correction (DBOC) is:        879.565356 cm-1
  The total diagonal Born-Oppenheimer correction (DBOC) is:            10.522 kJ/mole
  hellooooooo 
  readis is  F
 
 @CHECKOUT-I, Total execution time (CPU/WALL):        0.01/       0.09 seconds.
--executable xjoda finished with status     0 in        0.12 seconds (walltime).
  The final electronic energy is      -113.200012412954521 a.u. 
  This computation required                         4693.52 seconds (walltime).
