 --invoking executable--
/nfs/workspaces/public/cfour_mpi/bin/xjoda


   *************************************************************************
         <<<     CCCCCC     CCCCCC   |||     CCCCCC     CCCCCC   >>>
       <<<      CCC        CCC       |||    CCC        CCC         >>>
      <<<      CCC        CCC        |||   CCC        CCC            >>>
    <<<        CCC        CCC        |||   CCC        CCC              >>>
      <<<      CCC        CCC        |||   CCC        CCC            >>>
       <<<      CCC        CCC       |||    CCC        CCC         >>>
         <<<     CCCCCC     CCCCCC   |||     CCCCCC     CCCCCC   >>>
   *************************************************************************

     ****************************************************************
     * CFOUR Coupled-Cluster techniques for Computational Chemistry *
     ****************************************************************
 

   Department of Chemistry                Institut fuer Physikalische Chemie
   University of Florida                  Universitaet Mainz
   Gainesville, FL 32611, USA             D-55099 Mainz, Germany

   Department of Chemistry                Fakultaet fuer Chemie und Biowiss.
   Johns Hopkins University               Karlsruher Institut fuer Technologie
   Baltimore, MD 21218, USA               D-76131 Karlsruhe, Germany

   Department of Chemistry                Department of Physical Chemistry
   Southern Methodist University          Eotvos Lorand University
   Dallas, TX 75275, USA                  H-1053 Budapest, Hungary

 
                       Version 2.1
 
                     vincent.theory.phys.ucl.ac.uk                     
                     Tue  4 Mar 12:27:32 GMT 2025                      
                     integer*8 version is running
 
********************************************************************************
*                          Input from ZMAT file                                *
********************************************************************************
Carbon Monoxide DBOC calculation                                                
C                                                                               
O 1 r                                                                           
                                                                                
r=1.7689655172413794                                                            
                                                                                
                                                                                
*CFOUR(CALC=CCSD,BASIS=AUG-PCVQZ,SCF_CONV=10                                    
CC_CONV=14,DBOC=ON,MEMORY=500000000                                             
ZFIELD=-200)                                                                    
                                                                                
%isotopes                                                                       
13                                                                              
16                                                                              
********************************************************************************
  @GTFLGS-I, Hessian will be transformed to curvilinear coordinates.
    -------------------------------------------------------------------
                    CFOUR Control Parameters 
    -------------------------------------------------------------------
        External           Internal           Value            Units
          Name               Name
    -------------------------------------------------------------------
       ABCDTYPE             IABCDT         STANDARD    [  0]    ***   
       ANHARMONIC           IANHAR         OFF         [  0]    ***   
       ANH_ALGORIT          IANALG         STANDARD    [  0]    ***   
       ANH_DERIVAT          IANDER         SECOND      [  1]    ***   
       ANH_MODE             ANHMOD         VIBRATION   [  0]    ***   
       ANH_STEPSIZ          ICUBST             50000          x 10-6  
       ANH_SYMMETR          IANHSM         ABELIAN     [  0]    ***   
       AO_LADDERS           IAOLAD         SINGLEPASS  [  1]    ***   
       AV_SCF               IAVSCF         OFF         [  0]    ***   
       BASIS                IBASIS         AUG-PCVQZ   [ 52]    ***   
       BOTHVECTORS          BOTHVC         OFF         [  0]    ***   
       BOX_POTENT           IPIAB          OFF         [  0]    ***   
       BREIT                IBREIT         OFF         [  0]    ***   
       BRUCK_CONV           IBRTOL          10D-  4             ***   
       BRUECKNER            IBRKNR         OFF         [  0]    ***   
       BUFFERSIZE           IBUFFS              4096            ***   
       CACHE_RECS           ICHREC             10               ***   
       CALCLEVEL            ICLLVL         CCSD        [ 10]    ***   
       CCORBOPT             ICCORB         OFF         [  0]  x 0.01  
       CC_CONV              ICCCNV          10D- 14             ***   
       CC_EXPORDER          ICCEOR              5               ***   
       CC_EXTRAPOL          ICCEXT         DIIS        [  1]    ***   
       CC_GUESS             ICCGES         MP2         [  0]    ***   
       CC_MAXCYC            ICCCYC            100              cycles 
       CC_PROGRAM           ICCPRO         VCC         [  0]    ***   
       CHARGE               ICHRGE              0               ***   
       CHOLESKY             ICHOLE         OFF         [  0]    ***   
       CIS_CONV             ICISTL              5               ***   
       COMM_SIZE            IPSIZE            ***               ***   
       CONSTANT             ICONST         OLD         [  1]    ***   
       CONTINUUM            ICONTU         NONE        [  0]    ***   
       CONTRACTION          ICNTYP         GENERAL     [  1]    ***   
       COORDINATES          ICOORD         INTERNAL    [  0]    ***   
       CPHF_CONVER          ICPHFT          10D- 16             ***   
       CPHF_MAXCYC          ICPHFC             64              cycles 
       CUBIC                ICUBIC         OFF         [  0]    ***   
       CURVILINEAR          ICURVY         ON          [  1]    ***   
       DBOC                 IDBOC          ON          [  1]    ***   
       DCT                  IDCT           OFF         [  0]    ***   
       DERIV_LEV            IDRLVL         SECOND      [  2]    ***   
       DEVMEM_SIZE          IDVMEM          50000000           MByte  
       DIAG_MRCC            IEOMST          10D-  0             ***   
       DIFF_TYPE            IDIFTY         RELAXED     [  0]    ***   
       DIRECT               IDIRCT         OFF         [  0]    ***   
       DROPMO               IDRPMO      NONE         
       ECP                  IECP           OFF         [  0]    ***   
       EIGENVECTOR          IVEC                1               ***   
       EL_ANHARM            IELANH         OFF         [  0]    ***   
       EOMFOLLOW            IEOMSR         ENERGY      [  0]    ***   
       EOMIP                IEOMIP         OFF         [  0]    ***   
       EOMLEVEL             HBARFM         SAME        [  0]    ***   
       EOM_MRCC             IMRCCE         NEW         [  1]    ***   
       EOM_NONIT            EOMNON         OFF         [  0]    ***   
       EOM_NSING            IEOMSI          10D-  0             ***   
       EOM_NSTATES          IMRCCD         DAVIDSON    [  0]    ***   
       EOM_NTRIP            IEOMTR          10D-  0             ***   
       EOM_ORDER            IEXORD         ENERGY      [  0]    ***   
       EOM_PROPSTA          IEOMST              0               ***   
       ESTATE_CONV          IEXTOL          10D-  5             ***   
       ESTATE_DIAG          IEXDIG         ITERATIVE   [  0]    ***   
       ESTATE_LOCK          IESLOC         ON          [  1]    ***   
       ESTATE_MAXC          IEXMXC             40               ***   
       ESTATE_PROP          IEXPRP         OFF         [  0]    ***   
       EVAL_HESS            IRECAL              0            # of cyc.
       EXCITATION           IEXCIT              0               ***   
       EXCITE               IEXCIT         NONE        [  0]    ***   
       EXTERN_POT           IEXPOT         OFF         [  0]    ***   
       FCGRADNEW            IFCGNW         OFF         [  0]    ***   
       FC_FIELD             IFINFC              0             x 10-6  
       FD_CALTYPE           IFDCAL         GRADONLY    [  0]    ***   
       FD_PROJECT           IFDPRJ         OFF         [  1]    ***   
       FD_STEPSIZE          IDISFD              0            10-4 bohr
       FD_USEGROUP          IFDGRP         FULL        [  0]    ***   
       FILE_RECSIZ          IFLREC              4096           words  
       FINITE_PERT          IFIPER              0             x 10-6  
       FIXGEOM              IFIXGM         OFF         [  0]    ***   
       FOCK                 IFOCK          AO          [  1]    ***   
       FREQ_ALGORI          IVIALG         STANDARD    [  0]    ***   
       FROZEN_CORE          IFROCO         OFF         [  0]    ***   
       GAMMA_ABCD           IGABCD         STORE       [  0]    ***   
       GAMMA_ABCI           IGABCI         STORE       [  0]    ***   
       GENBAS_1             IGNBS1              0               ***   
       GENBAS_2             IGNBS2              0               ***   
       GENBAS_3             IGNBS3              0               ***   
       GENBAS_4             IGNBS4              0               ***   
       GEO_CONV             ICONTL              5              H/bohr 
       GEO_MAXCYC           IOPTCY             50               ***   
       GEO_MAXSTEP          IMXSTP            300            millibohr
       GEO_METHOD           INR            SINGLE_POINT[  5]    ***   
       GIAO                 IGIAO          OFF         [  1]    ***   
       GIMIC                IGIMIC         OFF         [  0]    ***   
       GRID                 IGRID          OFF         [  0]    ***   
       GRID_ALGO            IGALGO         SERIAL      [  0]    ***   
       GUESS                IGUESS         MOREAD      [  0]    ***   
       HBAR                 IHBAR          OFF         [  0]    ***   
       HESS_TYPE            IHESTP         SCF         [  0]    ***   
       HF2_FILE             IHF2Fl         USE         [  1]    ***   
       HFSTABILITY          ISTABL         OFF         [  0]    ***   
       INCORE               INCORE         OFF         [  0]    ***   
       INPUT_MRCC           IMRCC          ON          [  1]    ***   
       INTEGRALS            INTTYP         VMOL        [  1]    ***   
       JODA_PRINT           IJPRNT              0               ***   
       KEYWORD_OUT          IDMPKW         NO          [  0]    ***   
       LINDEP_TOL           ILINDP              8               ***   
       LINEQ_CONV           IZTACN          10D-  7           cycles  
       LINEQ_EXPOR          ILMAXD              5               ***   
       LINEQ_MAXCY          ILMAXC            100               ***   
       LINEQ_TYPE           ILTYPE         DIIS        [  1]    ***   
       LOCK_ORBOCC          ILOCOC         OFF         [  0]    ***   
       MEMORY_SIZE          IMEMSZ         500000000           words  
       MEM_UNIT             IMEMU          INTEGERWORDS[  0]    ***   
       MRCC                 IMRCCC         OFF         [  0]    ***   
       MULTIPLICTY          IMULTP              1               ***   
       NACOUPLING           IVCOUP         OFF         [  0]    ***   
       NEGEVAL              IDIE           ABORT       [  0]    ***   
       NEWNORM              INEWNO         OFF         [  0]    ***   
       NON-HF               INONHF         OFF         [  0]    ***   
       NTOP_TAMP            ITOPT2             15               ***   
       NUC_MODEL            INUCMO         POINT       [  0]    ***   
       OCCUPATION           IOCCU   ESTIMATED BY SCF 
       OPEN-SHELL           IOPEN          SPIN-ORBITAL[  0]    ***   
       OPTVIB               IOPTVB         OFF         [  0]    ***   
       ORBITALS             IORBTP         STANDARD    [  0]    ***   
       PARALLEL             IPARAL         ON          [  1]    ***   
       PARA_INT             IPINTS         ON          [  1]    ***   
       PARA_PRINT           IPPRIN              0               ***   
       PERT_ORB             IPTORB         STANDARD    [  0]    ***   
       POINTS               IGRDFD              0               ***   
       PRINT                IPRNT               0               ***   
       PROPS                IPROPS         OFF         [  0]    ***   
       PROP_INTEGR          IINTYP         INTERNAL    [  0]    ***   
       PSI                  IPSI           OFF         [  0]    ***   
       QC_ALG               IQCALG         FLM         [  0]    ***   
       QC_LINALG            IQCLIN         TRIDIAG     [  2]    ***   
       QC_MAXCYC            IQCMAX          10D-100           cycles  
       QC_MAXSCFCY          IQCMSC          10D- 15           cycles  
       QC_RTRUST            IQCRTR          10D-  0           x 10-3  
       QC_SKIPSCF           IQCSKI         OFF         [  0]    ***   
       QC_START             IQCSTA          10D-  1             ***   
       QRHFGUESS            IQGUES         OFF         [  0]    ***   
       QUARTIC              IQUART         OFF         [  0]    ***   
       RAMAN_INT            IRAMIN         OFF         [  0]    ***   
       RAMAN_ORB            IRAMRE         UNRELAXED   [  0]    ***   
       RDO                  IRDOFM         ON          [  1]    ***   
       REDUCE_REPR          REDREP         Ir          [  0]    ***   
       REFERENCE            IREFNC         RHF         [  0]    ***   
       RELATIVIST           IRELAT         OFF         [  0]    ***   
       RELAX_DENS           IRDENS         ON          [  1]    ***   
       RESET_FLAGS          IRESET         OFF         [  0]    ***   
       RESTART_CC           ICCRES         OFF         [  0]    ***   
       ROT_EVEC             ROTVEC              0               ***   
       SAVE_INTS            ISVINT         OFF         [  0]    ***   
       SCALE_ON             ISTCRT              0               ***   
       SCF_CONV             ISCFCV          10D- 10             ***   
       SCF_DAMPING          IDAMP               0             x 10-3  
       SCF_EXPORDE          IRPPOR              6               ***   
       SCF_EXPSTAR          IRPPLS              8               ***   
       SCF_EXTRAPO          IRPP           ON          [  1]    ***   
       SCF_MAXCYC           ISCFCY            150              cycles 
       SCF_NOSTOP           ISCFST         OFF         [  0]    ***   
       SCF_PRINT            ISCFPR              0               ***   
       SCF_PROG             ISCFPR         SCF         [  0]    ***   
       SD_FIELD             IFINSD              0             x 10-6  
       SOPERT               IPERSO         OFF         [  0]    ***   
       SPHERICAL            IDFGHI         ON          [  1]    ***   
       SPINORBIT            ISOCAL         OFF         [  0]    ***   
       SPINROTATIO          ISRCON         OFF         [  0]    ***   
       SPIN_FLIP            ISPFLP         OFF         [  0]    ***   
       SPIN_ORBIT           ISPORB         OFF         [  0]    ***   
       SPIN_SCAL            ISCSMP         OFF         [  0]    ***   
       STEEPSCALE           ISTPSC              1000          x 10-3  
       SUBGROUP             ISUBGP         DEFAULT     [  0]    ***   
       SUBGRPAXIS           ISBXYZ         X           [  0]    ***   
       SYMMETRY             ISYM           ON          [  0]    ***   
       SYM_CHECK            ISYMCK         OVERRIDE    [  1]    ***   
       T3_EXTRAPOL          IT3EXT         OFF         [  0]    ***   
       T4_EXTRAPOL          IT4EXP         OFF         [  0]    ***   
       TAMP_SUM             IEVERY              5               ***   
       TESTSUITE            ITESTS         OFF         [  0]    ***   
       THERMOCH             ITHERM         OFF         [  0]    ***   
       TOL_CHOLESK          ITOLCH          10D-  4             ***   
       TRANGRAD             IRESRM         OFF         [  0]    ***   
       TRANS_INV            ITRAIN         IGNORE      [  1]    ***   
       TREAT_PERT           ITREAT         SIMULTANEOUS[  0]    ***   
       TRIP_ALGORI          ITRALG         NORMAL      [  0]    ***   
       UIJ_THRESHO          IUIJTH              1               ***   
       UNITS                IUNITS         ANGSTROM    [  0]    ***   
       UNOS                 IUNOS          OFF         [  0]    ***   
       UPDATE_HESS          IHUPDT         ON          [  1]    ***   
       VIBPHASE             ISETPH         STANDARD    [  0]    ***   
       VIBRATION            IVIB           ANALYTIC    [  1]    ***   
       VIB_ALGORIT          IGEALG         STANDARD    [  0]    ***   
       VNATORB              IVNORB         OFF         [  0]    ***   
       VTRAN                IVTRAN         FULL/PARTIAL[  0]    ***   
       XFIELD               IXEFLD              0             x 10-6  
       XFORM_TOL            IXFTOL          10D- 11             ***   
       YFIELD               IYEFLD              0             x 10-6  
       ZFIELD               IZEFLD            ***             x 10-6  
       ZSCALE_EXP           IZEXPS         OFF         [  0]    ***   
    -------------------------------------------------------------------
   2 entries found in Z-matrix 
   Job Title : Carbon Monoxide DBOC calculation                                                
   There are  1 unique internal coordinates.
   Of these,  0 will be optimized.
   User supplied Z-matrix: 
--------------------------------------------------------------------------------
       SYMBOL    BOND      LENGTH    ANGLE     ANGLE     DIHED     ANGLE
                  TO      (ANGST)    WRT      (DEG)      WRT      (DEG)
--------------------------------------------------------------------------------
        C    
        O          1         r    
                  *Initial values for internal coordinates* 
                      Name             Value
                        r               1.7689655172
--------------------------------------------------------------------------------
  read isotopes from ZMAT file 
   Rotational constants (in cm-1): 
          0.7510910067             0.7510910067
   Rotational constants (in MHz): 
      22517.1450629846         22517.1450629846
********************************************************************************
   The full molecular point group is CXv .
   The largest Abelian subgroup of the full molecular point group is C2v .
   The computational point group is C2v .
********************************************************************************
--------------------------------------------------------------------------------
   Analysis of internal coordinates specified by Z-matrix 
--------------------------------------------------------------------------------
   *The nuclear repulsion energy is   14.358957567251460 a.u.
   *There is   1 degree of freedom within the tot. symm. molecular subspace.
   *Z-matrix requests optimization of   0 coordinates.
   *The optimization is constrained.
   *The following   1 parameters can have non-zero 
    derivatives within the totally symmetric subspace:
             r    [ 1]
   *The following   0 parameters are to be optimized:

   *The following coordinates must be varied in an  unconstrained optimization.
             r    [ 1]
--------------------------------------------------------------------------------


 ----------------------------------------------------------------
         Coordinates used in calculation (QCOMP) 
 ----------------------------------------------------------------
 Z-matrix   Atomic            Coordinates (in bohr)
  Symbol    Number           X              Y              Z
 ----------------------------------------------------------------
     C         6        -0.00000000     0.00000000     1.84386097
     O         8         0.00000000     0.00000000    -1.49900009
 ----------------------------------------------------------------
 
   Interatomic distance matrix (Angstroms) 
 
                 C             O    
                [ 1]        [ 2]
  C    [ 1]     0.00000
  O    [ 2]     1.76897     0.00000
 rotcon2
   Rotational constants (in cm-1): 
          0.7510910067             0.0000000000
   Rotational constants (in MHz): 
      22517.1450629846             0.0000000000
  ECPDATA file not present.   Using default ECPDATA. 
  @GTFLGS-I, Hessian will be transformed to curvilinear coordinates.
  There are  218 basis functions.
 @CHECKOUT-I, Total execution time (CPU/WALL):        0.16/       0.25 seconds.
--executable xjoda finished with status     0 in        0.30 seconds (walltime).
 --invoking executable--
/nfs/workspaces/public/cfour_mpi/bin/xvmol
 SERIAL VERSION OF MOLECULE STARTED
********************************************************************************
                    INPUT FROM MOL FILE
********************************************************************************
INTGRL        1    0    1    0    0    0    0    0    0                         
         *** CFOUR Program System (Release V0.1) ***                            
Carbon Monoxide DBOC calculation                                                
    2    2 X  Y       0.10E-08              0    0                              
   9999.00      3.00                                                            
          6.00000000    1    5    1    1    1    1    1                         
C #1  -0.000000000000000   0.000000000000000   1.843860966567790                
   16    9                                                                      
   33980.0000000000       9.100000000000000E-005 -1.900000000000000E-005        
  0.000000000000000E+000  0.000000000000000E+000  0.000000000000000E+000        
  0.000000000000000E+000  0.000000000000000E+000  0.000000000000000E+000        
  0.000000000000000E+000                                                        
   5089.00000000000       7.040000000000000E-004 -1.510000000000000E-004        
  0.000000000000000E+000  0.000000000000000E+000  0.000000000000000E+000        
  0.000000000000000E+000  0.000000000000000E+000  0.000000000000000E+000        
  0.000000000000000E+000                                                        
   1157.00000000000       3.693000000000000E-003 -7.850000000000000E-004        
  0.000000000000000E+000  0.000000000000000E+000  0.000000000000000E+000        
  0.000000000000000E+000  0.000000000000000E+000  0.000000000000000E+000        
  0.000000000000000E+000                                                        
   326.600000000000       1.536000000000000E-002 -3.324000000000000E-003        
  0.000000000000000E+000  0.000000000000000E+000  0.000000000000000E+000        
  0.000000000000000E+000  0.000000000000000E+000  0.000000000000000E+000        
  0.000000000000000E+000                                                        
   106.100000000000       5.292900000000000E-002 -1.151200000000000E-002        
  0.000000000000000E+000  0.000000000000000E+000  0.000000000000000E+000        
  0.000000000000000E+000  0.000000000000000E+000  0.000000000000000E+000        
  0.000000000000000E+000                                                        
   38.1100000000000       0.147043000000000      -3.416000000000000E-002        
  0.000000000000000E+000  0.000000000000000E+000  0.000000000000000E+000        
  0.000000000000000E+000  0.000000000000000E+000  0.000000000000000E+000        
  0.000000000000000E+000                                                        
   14.7500000000000       0.305631000000000      -7.717300000000001E-002        
  0.000000000000000E+000  0.000000000000000E+000  0.000000000000000E+000        
  0.000000000000000E+000  0.000000000000000E+000  0.000000000000000E+000        
  0.000000000000000E+000                                                        
   6.03500000000000       0.399345000000000      -0.141493000000000             
  0.000000000000000E+000  0.000000000000000E+000  0.000000000000000E+000        
  0.000000000000000E+000  0.000000000000000E+000  0.000000000000000E+000        
  0.000000000000000E+000                                                        
   2.53000000000000       0.217051000000000      -0.118019000000000             
  0.000000000000000E+000  0.000000000000000E+000  0.000000000000000E+000        
  0.000000000000000E+000  0.000000000000000E+000  0.000000000000000E+000        
  0.000000000000000E+000                                                        
  0.735500000000000       1.589400000000000E-002  0.273806000000000             
   1.00000000000000       0.000000000000000E+000  0.000000000000000E+000        
  0.000000000000000E+000  0.000000000000000E+000  0.000000000000000E+000        
  0.000000000000000E+000                                                        
  0.290500000000000      -3.084000000000000E-003  0.586510000000000             
  0.000000000000000E+000   1.00000000000000       0.000000000000000E+000        
  0.000000000000000E+000  0.000000000000000E+000  0.000000000000000E+000        
  0.000000000000000E+000                                                        
  0.111100000000000       9.779999999999999E-004  0.285430000000000             
  0.000000000000000E+000  0.000000000000000E+000   1.00000000000000             
  0.000000000000000E+000  0.000000000000000E+000  0.000000000000000E+000        
  0.000000000000000E+000                                                        
   7.21600000000000       0.000000000000000E+000  0.000000000000000E+000        
  0.000000000000000E+000  0.000000000000000E+000  0.000000000000000E+000        
   1.00000000000000       0.000000000000000E+000  0.000000000000000E+000        
  0.000000000000000E+000                                                        
   19.5700000000000       0.000000000000000E+000  0.000000000000000E+000        
  0.000000000000000E+000  0.000000000000000E+000  0.000000000000000E+000        
  0.000000000000000E+000   1.00000000000000       0.000000000000000E+000        
  0.000000000000000E+000                                                        
   53.0730000000000       0.000000000000000E+000  0.000000000000000E+000        
  0.000000000000000E+000  0.000000000000000E+000  0.000000000000000E+000        
  0.000000000000000E+000  0.000000000000000E+000   1.00000000000000             
  0.000000000000000E+000                                                        
  4.145000000000000E-002  0.000000000000000E+000  0.000000000000000E+000        
  0.000000000000000E+000  0.000000000000000E+000  0.000000000000000E+000        
  0.000000000000000E+000  0.000000000000000E+000  0.000000000000000E+000        
   1.00000000000000                                                             
   10    8                                                                      
   34.5100000000000       5.378000000000000E-003  0.000000000000000E+000        
  0.000000000000000E+000  0.000000000000000E+000  0.000000000000000E+000        
  0.000000000000000E+000  0.000000000000000E+000  0.000000000000000E+000        
   7.91500000000000       3.613200000000000E-002  0.000000000000000E+000        
  0.000000000000000E+000  0.000000000000000E+000  0.000000000000000E+000        
  0.000000000000000E+000  0.000000000000000E+000  0.000000000000000E+000        
   2.36800000000000       0.142493000000000       0.000000000000000E+000        
  0.000000000000000E+000  0.000000000000000E+000  0.000000000000000E+000        
  0.000000000000000E+000  0.000000000000000E+000  0.000000000000000E+000        
  0.813200000000000       0.342150000000000        1.00000000000000             
  0.000000000000000E+000  0.000000000000000E+000  0.000000000000000E+000        
  0.000000000000000E+000  0.000000000000000E+000  0.000000000000000E+000        
  0.289000000000000       0.463864000000000       0.000000000000000E+000        
   1.00000000000000       0.000000000000000E+000  0.000000000000000E+000        
  0.000000000000000E+000  0.000000000000000E+000  0.000000000000000E+000        
  0.100700000000000       0.250028000000000       0.000000000000000E+000        
  0.000000000000000E+000   1.00000000000000       0.000000000000000E+000        
  0.000000000000000E+000  0.000000000000000E+000  0.000000000000000E+000        
   8.18200000000000       0.000000000000000E+000  0.000000000000000E+000        
  0.000000000000000E+000  0.000000000000000E+000   1.00000000000000             
  0.000000000000000E+000  0.000000000000000E+000  0.000000000000000E+000        
   24.1860000000000       0.000000000000000E+000  0.000000000000000E+000        
  0.000000000000000E+000  0.000000000000000E+000  0.000000000000000E+000        
   1.00000000000000       0.000000000000000E+000  0.000000000000000E+000        
   71.4940000000000       0.000000000000000E+000  0.000000000000000E+000        
  0.000000000000000E+000  0.000000000000000E+000  0.000000000000000E+000        
  0.000000000000000E+000   1.00000000000000       0.000000000000000E+000        
  3.218000000000000E-002  0.000000000000000E+000  0.000000000000000E+000        
  0.000000000000000E+000  0.000000000000000E+000  0.000000000000000E+000        
  0.000000000000000E+000  0.000000000000000E+000   1.00000000000000             
    6    6                                                                      
   1.84800000000000        1.00000000000000       0.000000000000000E+000        
  0.000000000000000E+000  0.000000000000000E+000  0.000000000000000E+000        
  0.000000000000000E+000                                                        
  0.649000000000000       0.000000000000000E+000   1.00000000000000             
  0.000000000000000E+000  0.000000000000000E+000  0.000000000000000E+000        
  0.000000000000000E+000                                                        
  0.228000000000000       0.000000000000000E+000  0.000000000000000E+000        
   1.00000000000000       0.000000000000000E+000  0.000000000000000E+000        
  0.000000000000000E+000                                                        
   8.65600000000000       0.000000000000000E+000  0.000000000000000E+000        
  0.000000000000000E+000   1.00000000000000       0.000000000000000E+000        
  0.000000000000000E+000                                                        
   33.2130000000000       0.000000000000000E+000  0.000000000000000E+000        
  0.000000000000000E+000  0.000000000000000E+000   1.00000000000000             
  0.000000000000000E+000                                                        
  7.660000000000000E-002  0.000000000000000E+000  0.000000000000000E+000        
  0.000000000000000E+000  0.000000000000000E+000  0.000000000000000E+000        
   1.00000000000000                                                             
    4    4                                                                      
   1.41900000000000        1.00000000000000       0.000000000000000E+000        
  0.000000000000000E+000  0.000000000000000E+000                                
  0.485000000000000       0.000000000000000E+000   1.00000000000000             
  0.000000000000000E+000  0.000000000000000E+000                                
   24.6940000000000       0.000000000000000E+000  0.000000000000000E+000        
   1.00000000000000       0.000000000000000E+000                                
  0.187000000000000       0.000000000000000E+000  0.000000000000000E+000        
  0.000000000000000E+000   1.00000000000000                                     
    2    2                                                                      
   1.01100000000000        1.00000000000000       0.000000000000000E+000        
  0.424000000000000       0.000000000000000E+000   1.00000000000000             
          8.00000000    1    5    1    1    1    1    1                         
O #2   0.000000000000000   0.000000000000000  -1.499000085509822                
   16    9                                                                      
   61420.0000000000       9.000000000000001E-005 -2.000000000000000E-005        
  0.000000000000000E+000  0.000000000000000E+000  0.000000000000000E+000        
  0.000000000000000E+000  0.000000000000000E+000  0.000000000000000E+000        
  0.000000000000000E+000                                                        
   9199.00000000000       6.980000000000001E-004 -1.590000000000000E-004        
  0.000000000000000E+000  0.000000000000000E+000  0.000000000000000E+000        
  0.000000000000000E+000  0.000000000000000E+000  0.000000000000000E+000        
  0.000000000000000E+000                                                        
   2091.00000000000       3.664000000000000E-003 -8.290000000000000E-004        
  0.000000000000000E+000  0.000000000000000E+000  0.000000000000000E+000        
  0.000000000000000E+000  0.000000000000000E+000  0.000000000000000E+000        
  0.000000000000000E+000                                                        
   590.900000000000       1.521800000000000E-002 -3.508000000000000E-003        
  0.000000000000000E+000  0.000000000000000E+000  0.000000000000000E+000        
  0.000000000000000E+000  0.000000000000000E+000  0.000000000000000E+000        
  0.000000000000000E+000                                                        
   192.300000000000       5.242300000000000E-002 -1.215600000000000E-002        
  0.000000000000000E+000  0.000000000000000E+000  0.000000000000000E+000        
  0.000000000000000E+000  0.000000000000000E+000  0.000000000000000E+000        
  0.000000000000000E+000                                                        
   69.3200000000000       0.145921000000000      -3.626100000000000E-002        
  0.000000000000000E+000  0.000000000000000E+000  0.000000000000000E+000        
  0.000000000000000E+000  0.000000000000000E+000  0.000000000000000E+000        
  0.000000000000000E+000                                                        
   26.9700000000000       0.305258000000000      -8.299200000000000E-002        
  0.000000000000000E+000  0.000000000000000E+000  0.000000000000000E+000        
  0.000000000000000E+000  0.000000000000000E+000  0.000000000000000E+000        
  0.000000000000000E+000                                                        
   11.1000000000000       0.398508000000000      -0.152090000000000             
  0.000000000000000E+000  0.000000000000000E+000  0.000000000000000E+000        
  0.000000000000000E+000  0.000000000000000E+000  0.000000000000000E+000        
  0.000000000000000E+000                                                        
   4.68200000000000       0.216980000000000      -0.115331000000000             
  0.000000000000000E+000  0.000000000000000E+000  0.000000000000000E+000        
  0.000000000000000E+000  0.000000000000000E+000  0.000000000000000E+000        
  0.000000000000000E+000                                                        
   1.42800000000000       1.759400000000000E-002  0.288979000000000             
   1.00000000000000       0.000000000000000E+000  0.000000000000000E+000        
  0.000000000000000E+000  0.000000000000000E+000  0.000000000000000E+000        
  0.000000000000000E+000                                                        
  0.554700000000000      -2.502000000000000E-003  0.586128000000000             
  0.000000000000000E+000   1.00000000000000       0.000000000000000E+000        
  0.000000000000000E+000  0.000000000000000E+000  0.000000000000000E+000        
  0.000000000000000E+000                                                        
  0.206700000000000       9.540000000000000E-004  0.277624000000000             
  0.000000000000000E+000  0.000000000000000E+000   1.00000000000000             
  0.000000000000000E+000  0.000000000000000E+000  0.000000000000000E+000        
  0.000000000000000E+000                                                        
   12.9740000000000       0.000000000000000E+000  0.000000000000000E+000        
  0.000000000000000E+000  0.000000000000000E+000  0.000000000000000E+000        
   1.00000000000000       0.000000000000000E+000  0.000000000000000E+000        
  0.000000000000000E+000                                                        
   34.9000000000000       0.000000000000000E+000  0.000000000000000E+000        
  0.000000000000000E+000  0.000000000000000E+000  0.000000000000000E+000        
  0.000000000000000E+000   1.00000000000000       0.000000000000000E+000        
  0.000000000000000E+000                                                        
   93.8810000000000       0.000000000000000E+000  0.000000000000000E+000        
  0.000000000000000E+000  0.000000000000000E+000  0.000000000000000E+000        
  0.000000000000000E+000  0.000000000000000E+000   1.00000000000000             
  0.000000000000000E+000                                                        
  6.959000000000000E-002  0.000000000000000E+000  0.000000000000000E+000        
  0.000000000000000E+000  0.000000000000000E+000  0.000000000000000E+000        
  0.000000000000000E+000  0.000000000000000E+000  0.000000000000000E+000        
   1.00000000000000                                                             
   10    8                                                                      
   63.4200000000000       6.044000000000000E-003  0.000000000000000E+000        
  0.000000000000000E+000  0.000000000000000E+000  0.000000000000000E+000        
  0.000000000000000E+000  0.000000000000000E+000  0.000000000000000E+000        
   14.6600000000000       4.179900000000000E-002  0.000000000000000E+000        
  0.000000000000000E+000  0.000000000000000E+000  0.000000000000000E+000        
  0.000000000000000E+000  0.000000000000000E+000  0.000000000000000E+000        
   4.45900000000000       0.161143000000000       0.000000000000000E+000        
  0.000000000000000E+000  0.000000000000000E+000  0.000000000000000E+000        
  0.000000000000000E+000  0.000000000000000E+000  0.000000000000000E+000        
   1.53100000000000       0.356731000000000        1.00000000000000             
  0.000000000000000E+000  0.000000000000000E+000  0.000000000000000E+000        
  0.000000000000000E+000  0.000000000000000E+000  0.000000000000000E+000        
  0.530200000000000       0.448309000000000       0.000000000000000E+000        
   1.00000000000000       0.000000000000000E+000  0.000000000000000E+000        
  0.000000000000000E+000  0.000000000000000E+000  0.000000000000000E+000        
  0.175000000000000       0.244940000000000       0.000000000000000E+000        
  0.000000000000000E+000   1.00000000000000       0.000000000000000E+000        
  0.000000000000000E+000  0.000000000000000E+000  0.000000000000000E+000        
   14.4750000000000       0.000000000000000E+000  0.000000000000000E+000        
  0.000000000000000E+000  0.000000000000000E+000   1.00000000000000             
  0.000000000000000E+000  0.000000000000000E+000  0.000000000000000E+000        
   42.7300000000000       0.000000000000000E+000  0.000000000000000E+000        
  0.000000000000000E+000  0.000000000000000E+000  0.000000000000000E+000        
   1.00000000000000       0.000000000000000E+000  0.000000000000000E+000        
   126.140000000000       0.000000000000000E+000  0.000000000000000E+000        
  0.000000000000000E+000  0.000000000000000E+000  0.000000000000000E+000        
  0.000000000000000E+000   1.00000000000000       0.000000000000000E+000        
  5.348000000000000E-002  0.000000000000000E+000  0.000000000000000E+000        
  0.000000000000000E+000  0.000000000000000E+000  0.000000000000000E+000        
  0.000000000000000E+000  0.000000000000000E+000   1.00000000000000             
    6    6                                                                      
   3.77500000000000        1.00000000000000       0.000000000000000E+000        
  0.000000000000000E+000  0.000000000000000E+000  0.000000000000000E+000        
  0.000000000000000E+000                                                        
   1.30000000000000       0.000000000000000E+000   1.00000000000000             
  0.000000000000000E+000  0.000000000000000E+000  0.000000000000000E+000        
  0.000000000000000E+000                                                        
  0.444000000000000       0.000000000000000E+000  0.000000000000000E+000        
   1.00000000000000       0.000000000000000E+000  0.000000000000000E+000        
  0.000000000000000E+000                                                        
   14.9270000000000       0.000000000000000E+000  0.000000000000000E+000        
  0.000000000000000E+000   1.00000000000000       0.000000000000000E+000        
  0.000000000000000E+000                                                        
   57.5440000000000       0.000000000000000E+000  0.000000000000000E+000        
  0.000000000000000E+000  0.000000000000000E+000   1.00000000000000             
  0.000000000000000E+000                                                        
  0.154000000000000       0.000000000000000E+000  0.000000000000000E+000        
  0.000000000000000E+000  0.000000000000000E+000  0.000000000000000E+000        
   1.00000000000000                                                             
    4    4                                                                      
   2.66600000000000        1.00000000000000       0.000000000000000E+000        
  0.000000000000000E+000  0.000000000000000E+000                                
  0.859000000000000       0.000000000000000E+000   1.00000000000000             
  0.000000000000000E+000  0.000000000000000E+000                                
   26.4830000000000       0.000000000000000E+000  0.000000000000000E+000        
   1.00000000000000       0.000000000000000E+000                                
  0.324000000000000       0.000000000000000E+000  0.000000000000000E+000        
  0.000000000000000E+000   1.00000000000000                                     
    2    2                                                                      
   1.84600000000000        1.00000000000000       0.000000000000000E+000        
  0.714000000000000       0.000000000000000E+000   1.00000000000000             
FINISH                                                                          
 
********************************************************************************
 ONE- AND TWO-ELECTRON INTEGRALS OVER SYMMETRY-ADAPTED AOS ARE CALCULATED.

  SPHERICAL HARMONICS ARE USED.
  
  INTEGRALS LESS THAN  0.10E-13 ARE NEGLECTED.

  NUCLEAR REPULSION ENERGY :   14.3589575673 A.U.
  @MOLECU-I, ONE ELECTRON INTEGRALS (CPU/WALL):        0.06/       0.06 SECONDS.
  @TWOEL-I,    4364111 INTEGRALS OF SYMMETRY TYPE  I I I I
  @TWOEL-I,   18829929 INTEGRALS OF SYMMETRY TYPE  I J I J
  @TWOEL-I,    9917301 INTEGRALS OF SYMMETRY TYPE  I I J J
  @TWOEL-I,   13891433 INTEGRALS OF SYMMETRY TYPE  I J K L
  @TWOEL-I, TOTAL NUMBER OF 2-E INTEGRALS   47002774.
  @MOLECU-I, TWO ELECTRON INTEGRALS (CPU/WALL):      231.33/      31.61 SECONDS.
 @CHECKOUT-I, Total execution time (CPU/WALL):      231.42/      31.70 seconds.

Running with 14 threads/proc

--executable xvmol finished with status     0 in       31.75 seconds (walltime).
 --invoking executable--
/nfs/workspaces/public/cfour_mpi/bin/xvmol2ja
 @GETMEM-I,  Allocated    3814 MB of main memory.
 @CHECKOUT-I, Total execution time (CPU/WALL):        0.16/       0.04 seconds.
--executable xvmol2ja finished with status     0 in        0.07 seconds (walltime).
 --invoking executable--
/nfs/workspaces/public/cfour_mpi/bin/xvprop
 @GETMEM-I,  Allocated    3814 MB of main memory.
   Property integrals will be calculated.
    --------------------------------------------------------------
                                   Property evaluated at 
    Property type                X             Y             Z
    --------------------------------------------------------------
    Dipole moment               ----          ----          ----  
    Quadrupole moment           ----          ----          ----  
    Octopole moment             ----          ----          ----  
    Relativisitic corr.         ----          ----          ----  
    Second moment            0.0000000     0.0000000     0.0000000
    Electron density         0.0000000     0.0000000     1.8438610
    Electron density         0.0000000     0.0000000    -1.4990001
    Field gradient           0.0000000     0.0000000     1.8438610
    Field gradient           0.0000000     0.0000000    -1.4990001
    Potential                0.0000000     0.0000000     1.8438610
    Potential                0.0000000     0.0000000    -1.4990001
    --------------------------------------------------------------
 @CHECKOUT-I, Total execution time (CPU/WALL):        1.31/       1.32 seconds.
--executable xvprop finished with status     0 in        1.35 seconds (walltime).
 --invoking executable--
/nfs/workspaces/public/cfour_mpi/bin/xvscf
  There are  218 functions in the AO basis.

  There are 4 irreducible representations.

       Irrep        # of functions
         1                 86
         2                 52
         3                 52
         4                 28


  Parameters for SCF calculation: 
        SCF reference function:  RHF  
  Maximum number of iterations:  150
     Full symmetry point group: CXv 
     Computational point group: C2v 
        Initial density matrix: MOREAD                 
     SCF convergence tolerance: 10**(-10)
  DIIS convergence acceleration:  ON
          Latest start for DIIS:   8
                     DIIS order:   6

  Memory information:    2523578 words required.
  Fock matrices are constructed from AO integral file.
 @GETMEM-I,  Allocated      19 MB of main memory.
  Initialization and symmetry analysis required      0.002 seconds.

  Adding electric field perturbation to one-electron Hamiltonian.
  Field direction     : Z
  Field strength      : -0.0002000 a.u.

  @INITGES-I, Occupancies from core Hamiltonian:

          Alpha population by irrep:   5    1    1    0
           Beta population by irrep:   5    1    1    0


 total no. of electrons in initial guess :  0.000000000000000E+000
  --------------------------------------------------------------------
  Iteration         Total Energy            Largest Density Difference
  --------------------------------------------------------------------
       0            14.358771800274994              0.0000000000D+00
   current occupation vector 
     5  1  1  0
     5  1  1  0
       1           -93.745703325920203              0.1756529651D+02
   current occupation vector 
     5  1  1  0
     5  1  1  0
       2           -97.587937164018740              0.1756529140D+02
   current occupation vector 
     5  1  1  0
     5  1  1  0
       3           -99.747193262644018              0.6997006928D+01
   current occupation vector 
     5  1  1  0
     5  1  1  0
       4           -94.164408183427341              0.6995531906D+01
   current occupation vector 
     5  1  1  0
     5  1  1  0
       5           -99.768401487189820              0.7074887526D+01
   current occupation vector 
     5  1  1  0
     5  1  1  0
       6           -94.073240868744307              0.7074899371D+01
   current occupation vector 
     5  1  1  0
     5  1  1  0
       7           -99.766302313921969              0.7078178967D+01
   current occupation vector 
     5  1  1  0
     5  1  1  0
       8           -94.071216702916843              0.7078180055D+01
   current occupation vector 
     5  1  1  0
     5  1  1  0
       9          -106.761068391948697              0.6125557761D+01
   current occupation vector 
     5  1  1  0
     5  1  1  0
      10          -110.499835612605679              0.1336474201D+01
   current occupation vector 
     5  1  1  0
     5  1  1  0
      11          -112.137964419820051              0.9585339657D+00
   current occupation vector 
     5  1  1  0
     5  1  1  0
      12          -112.306710402946450              0.7451289334D+00
   current occupation vector 
     5  1  1  0
     5  1  1  0
      13          -112.411424951143772              0.1632235247D+00
   current occupation vector 
     5  1  1  0
     5  1  1  0
      14          -112.438405841265450              0.1517555078D+00
   current occupation vector 
     5  1  1  0
     5  1  1  0
      15          -112.440410117503319              0.5585957094D-01
   current occupation vector 
     5  1  1  0
     5  1  1  0
      16          -112.442764202547536              0.9421847294D-01
   current occupation vector 
     5  1  1  0
     5  1  1  0
      17          -112.444492577960759              0.1063460371D+00
   current occupation vector 
     5  1  1  0
     5  1  1  0
      18          -112.444855721869558              0.6259575762D-01
   current occupation vector 
     5  1  1  0
     5  1  1  0
      19          -112.444857540724854              0.2419592812D-02
   current occupation vector 
     5  1  1  0
     5  1  1  0
      20          -112.444857910438230              0.2915177364D-02
   current occupation vector 
     5  1  1  0
     5  1  1  0
      21          -112.444857937776902              0.8106171984D-03
   current occupation vector 
     5  1  1  0
     5  1  1  0
      22          -112.444857940822104              0.2014008345D-03
   current occupation vector 
     5  1  1  0
     5  1  1  0
      23          -112.444857940836755              0.1552328379D-04
   current occupation vector 
     5  1  1  0
     5  1  1  0
      24          -112.444857940837224              0.1093855196D-05
   current occupation vector 
     5  1  1  0
     5  1  1  0
      25          -112.444857940838290              0.1001399506D-06
   current occupation vector 
     5  1  1  0
     5  1  1  0
      26          -112.444857940837281              0.4425268396D-07
   current occupation vector 
     5  1  1  0
     5  1  1  0
      27          -112.444857940837082              0.1469626332D-07
   current occupation vector 
     5  1  1  0
     5  1  1  0
      28          -112.444857940837849              0.2290528589D-07
   current occupation vector 
     5  1  1  0
     5  1  1  0
      29          -112.444857940836869              0.4840116974D-08
   current occupation vector 
     5  1  1  0
     5  1  1  0
      30          -112.444857940838844              0.9384184541D-09
   current occupation vector 
     5  1  1  0
     5  1  1  0
      31          -112.444857940837608              0.2734115156D-09
   current occupation vector 
     5  1  1  0
     5  1  1  0
      32          -112.444857940836854              0.2708628877D-09
   current occupation vector 
     5  1  1  0
     5  1  1  0

  SCF has converged.

 Density matrix saved to file den.dat
 total electron number:   14.0000000000000     
     E(SCF)=      -112.444857940836400              0.5158495853D-10

  Eigenvector printing suppressed.

 @PUTMOS-I, Writing converged MOs to NEWMOS. 
 @PUTMOS-I, Symmetry   1 Full Blocks 21 Partial Blocksize   2
 @PUTMOS-I, Symmetry   2 Full Blocks 13 Partial Blocksize   0
 @PUTMOS-I, Symmetry   3 Full Blocks 13 Partial Blocksize   0
 @PUTMOS-I, Symmetry   4 Full Blocks  7 Partial Blocksize   0
 @PUTFOCK-I, Writing converged Fock matrix to NEWFOCK. 
 @PUTFOCK-I, Symmetry   1 Full Blocks 21 Partial Blocksize   2
 @PUTFOCK-I, Symmetry   2 Full Blocks 13 Partial Blocksize   0
 @PUTFOCK-I, Symmetry   3 Full Blocks 13 Partial Blocksize   0
 @PUTFOCK-I, Symmetry   4 Full Blocks  7 Partial Blocksize   0


 
  ORBITAL EIGENVALUES (ALPHA)  (1H = 27.2113834 eV)

       MO #        E(hartree)               E(eV)           FULLSYM    COMPSYM
       ----   --------------------   --------------------   -------   ---------
    1     1         -20.6246152827        -561.2243139338     SG+        A1 (1)
    2     2         -11.5349198311        -313.8811260119     SG+        A1 (1)
    3     3          -1.2261515833         -33.3652808396     SG+        A1 (1)
    4     4          -0.8140286244         -22.1508449959     SG+        A1 (1)
    5     5          -0.4892299818         -13.3126246054     SG+        A1 (1)
    6   139          -0.4777424300         -13.0000324292      PI        B2 (3)
    7    87          -0.4777424300         -13.0000324292      PI        B1 (2)
  +++++++++++++++++++++++++++++++++++++++++++++++++++++++++++++++++++++++++++++
    8    88          -0.0274091392          -0.7458405959      PI        B1 (2)
    9   140          -0.0274091392          -0.7458405959      PI        B2 (3)
   10     6           0.0554734261           1.5095086669     SG+        A1 (1)
   11     7           0.0691674442           1.8821418420     SG+        A1 (1)
   12    89           0.0803214366           2.1856574070      PI        B1 (2)
   13   141           0.0803214366           2.1856574070      PI        B2 (3)
   14     8           0.1479448844           4.0257849714     SG+        A1 (1)
   15     9           0.1629238801           4.4333841661     SG+        A1 (1)
   16   142           0.1845324463           5.0213831454      PI        B2 (3)
   17    90           0.1845324463           5.0213831454      PI        B1 (2)
   18   191           0.2186313490           5.9492614621      DE        A2 (4)
   19    10           0.2186313490           5.9492614621      DE        A1 (1)
   20   143           0.2780121538           7.5650953081      PI        B2 (3)
   21    91           0.2780121538           7.5650953081      PI        B1 (2)
   22    11           0.2853794052           7.7655684090     SG+        A1 (1)
   23    12           0.3061070535           8.3295963939     SG+        A1 (1)
   24    13           0.4074635095          11.0876457786     SG+        A1 (1)
   25   144           0.4109600171          11.1827905863      PI        B2 (3)
   26    92           0.4109600171          11.1827905863      PI        B1 (2)
   27    14           0.5169635861          14.0672943445     SG+        A1 (1)
   28   192           0.5507066006          14.9854884504      DE        A2 (4)
   29    15           0.5507066006          14.9854884504      DE        A1 (1)
   30   145           0.6248479178          17.0029762578      PI        B2 (3)
   31    93           0.6248479178          17.0029762578      PI        B1 (2)
   32    16           0.6964094870          18.9502655532     SG+        A1 (1)
   33    94           0.7231220875          19.6771523673      PH        B1 (2)
   34   146           0.7231220875          19.6771523673      PH        B2 (3)
   35   193           0.7296437470          19.8546157464      DE        A2 (4)
   36    17           0.7296437470          19.8546157464      DE        A1 (1)
   37   147           0.7654059243          20.8277540627      PI        B2 (3)
   38    95           0.7654059243          20.8277540627      PI        B1 (2)
   39    18           0.8028705677          21.8472188387     SG+        A1 (1)
   40    19           0.8439293248          22.9644844193      DE        A1 (1)
   41   194           0.8439293248          22.9644844193      DE        A2 (4)
   42   148           0.8570929938          23.3226860649      PI        B2 (3)
   43    96           0.8570929938          23.3226860649      PI        B1 (2)
   44    20           0.9126569202          24.8346573669     SG+        A1 (1)
   45   149           1.0603488542          28.8535592101      PI        B2 (3)
   46    97           1.0603488542          28.8535592101      PI        B1 (2)
   47    21           1.1556873962          31.4478528284     SG+        A1 (1)
   48    22           1.3105852638          35.6628380914     SG+        A1 (1)
   49    98           1.4180227888          38.5863617753      PH        B1 (2)
   50   150           1.4180227888          38.5863617753      PH        B2 (3)
   51   151           1.4473077465          39.3832459878      PI        B2 (3)
   52    99           1.4473077465          39.3832459878      PI        B1 (2)
   53    23           1.5760064797          42.8853165593     SG+        A1 (1)
   54   195           1.5842109574          43.1085717479      DE        A2 (4)
   55    24           1.5842109574          43.1085717479      DE        A1 (1)
   56   152           1.6427651175          44.7019114488      PI        B2 (3)
   57   100           1.6427651175          44.7019114488      PI        B1 (2)
   58   196           1.6547948748          45.0292577863      DE        A2 (4)
   59    25           1.6547948748          45.0292577864      DE        A1 (1)
   60    26           1.8390771584          50.0438336603     SG+        A1 (1)
   61    27           1.9226590441          52.3182123973     SG+        A1 (1)
   62   153           2.0004901420          54.4361042410      PI        B2 (3)
   63   101           2.0004901420          54.4361042410      PI        B1 (2)
   64   197           2.0526676613          55.8559267239      PI        A2 (4)
   65    28           2.0526676613          55.8559267239      PI        A1 (1)
   66    29           2.1113215558          57.4519803345      DE        A1 (1)
   67   198           2.1113215558          57.4519803345      DE        A2 (4)
   68   102           2.1561669690          58.6722860674      PH        B1 (2)
   69   154           2.1561669690          58.6722860674      PH        B2 (3)
   70   155           2.1927919150          59.6689015148      PH        B2 (3)
   71   103           2.1927919150          59.6689015148      PH        B1 (2)
   72   156           2.1948127416          59.7238910028      PI        B2 (3)
   73   104           2.1948127416          59.7238910028      PI        B1 (2)
   74    30           2.2231573838          60.4951879303     SG+        A1 (1)
   75   199           2.2629481151          61.5779487754      DE        A2 (4)
   76    31           2.2629481151          61.5779487754      DE        A1 (1)
   77    32           2.3485828397          63.9081880981     SG+        A1 (1)
   78   157           2.4525664067          66.7377248072      PI        B2 (3)
   79   105           2.4525664067          66.7377248072      PI        B1 (2)
   80   200           2.5256162468          68.7255120117      DE        A2 (4)
   81    33           2.5256162468          68.7255120117      DE        A1 (1)
   82    34           2.6317319546          71.6130672222     SG+        A1 (1)
   83   158           2.6587403278          72.3480024199      PI        B2 (3)
   84   106           2.6587403278          72.3480024199      PI        B1 (2)
   85    35           2.7953056987          76.0641350863     SG+        A1 (1)
   86   107           3.2149722099          87.4838414231      PI        B1 (2)
   87   159           3.2149722099          87.4838414231      PI        B2 (3)
   88    36           3.7261603570         101.3939780843      PI        A1 (1)
   89   201           3.7261603570         101.3939780843      PI        A2 (4)
   90    37           3.7414480029         101.8099760781     SG+        A1 (1)
   91   160           3.8451932681         104.6330282646      PH        B2 (3)
   92   108           3.8451932681         104.6330282646      PH        B1 (2)
   93    38           4.0538986597         110.3121906927     SG+        A1 (1)
   94    39           4.1137750418         111.9415098836      DE        A1 (1)
   95   202           4.1137750418         111.9415098836      DE        A2 (4)
   96   161           4.1308255970         112.4054790795      PI        B2 (3)
   97   109           4.1308255970         112.4054790795      PI        B1 (2)
   98   162           4.1560384790         113.0915564778      PH        B2 (3)
   99   110           4.1560384790         113.0915564778      PH        B1 (2)
  100    40           4.2860677559         116.6298329842     SG+        A1 (1)
  101    41           4.3141538921         117.3940956046      DE        A1 (1)
  102   203           4.3141538921         117.3940956047      DE        A2 (4)
  103   163           4.4539095367         121.1970400319      PI        B2 (3)
  104   111           4.4539095367         121.1970400319      PI        B1 (2)
  105   204           4.5415849623         123.5828096523      DE        A2 (4)
  106    42           4.5415849623         123.5828096524      DE        A1 (1)
  107    43           4.8373972407         131.6322709760     SG+        A1 (1)
  108   112           4.9706509547         135.2582888747      PI        B1 (2)
  109   164           4.9706509547         135.2582888747      PI        B2 (3)
  110    44           5.0926133381         138.5770540509     SG+        A1 (1)
  111   113           5.3507535497         145.6014063196      PI        B1 (2)
  112   165           5.3507535497         145.6014063197      PI        B2 (3)
  113   205           5.8022873703         157.8882662297      PI        A2 (4)
  114    45           5.8022873703         157.8882662297      PI        A1 (1)
  115   166           5.8741875713         159.8447701670      PH        B2 (3)
  116   114           5.8741875713         159.8447701670      PH        B1 (2)
  117    46           5.8995633615         160.5352805214     SG+        A1 (1)
  118   206           6.0167568985         163.7242787898      DE        A2 (4)
  119    47           6.0167568985         163.7242787898      DE        A1 (1)
  120   167           6.0931068624         165.8018669306      PI        B2 (3)
  121   115           6.0931068624         165.8018669306      PI        B1 (2)
  122    48           6.1173119668         166.4605213071     SG+        A1 (1)
  123   207           6.2308030548         169.5487708143      DE        A2 (4)
  124    49           6.2308030548         169.5487708143      DE        A1 (1)
  125   168           6.3267850959         172.1605749337      PH        B2 (3)
  126   116           6.3267850959         172.1605749337      PH        B1 (2)
  127   208           6.4524249182         175.5794083083      DE        A2 (4)
  128    50           6.4524249182         175.5794083083      DE        A1 (1)
  129   117           6.6511805384         180.9878236941      PI        B1 (2)
  130   169           6.6511805384         180.9878236941      PI        B2 (3)
  131   118           6.9023856421         187.8234620808      PI        B1 (2)
  132   170           6.9023856421         187.8234620808      PI        B2 (3)
  133    51           7.0220971111         191.0809767633     SG+        A1 (1)
  134    52           7.3478174802         199.9442786082     SG+        A1 (1)
  135    53           9.2250340312         251.0259379020     SG+        A1 (1)
  136   119           9.5618672367         260.1916353982      PI        B1 (2)
  137   171           9.5618672367         260.1916353984      PI        B2 (3)
  138    54          10.6177351233         288.9232612788     SG+        A1 (1)
  139    55          10.6907750329         290.9107782625      PI        A1 (1)
  140   209          10.6907750329         290.9107782625      PI        A2 (4)
  141   172          10.7220610386         291.7621137599      PH        B2 (3)
  142   120          10.7220610386         291.7621137599      PH        B1 (2)
  143   210          10.8999226000         296.6019728990      DE        A2 (4)
  144    56          10.8999226000         296.6019728990      DE        A1 (1)
  145   173          11.0056067315         299.4777843210      PI        B2 (3)
  146   121          11.0056067315         299.4777843210      PI        B1 (2)
  147    57          11.0660813136         301.1233813604     SG+        A1 (1)
  148   122          11.9247367623         324.4885839819      PH        B1 (2)
  149   174          11.9247367623         324.4885839819      PH        B2 (3)
  150   211          11.9712531761         325.7543599529      DE        A2 (4)
  151    58          11.9712531761         325.7543599530      DE        A1 (1)
  152   123          12.1380934798         330.2943154243      PI        B1 (2)
  153   175          12.1380934798         330.2943154243      PI        B2 (3)
  154    59          12.4204458199         337.9775132036     SG+        A1 (1)
  155    60          12.7253737709         346.2750245874      DE        A1 (1)
  156   212          12.7253737709         346.2750245874      DE        A2 (4)
  157   124          13.0723869206         355.7177324487      PI        B1 (2)
  158   176          13.0723869206         355.7177324487      PI        B2 (3)
  159    61          13.2941487268         361.7521779818     SG+        A1 (1)
  160    62          17.1217460896         465.9063973213     SG+        A1 (1)
  161   125          18.6453948835         507.3669888199      PI        B1 (2)
  162   177          18.6453948835         507.3669888202      PI        B2 (3)
  163    63          19.3095524945         525.4396362092     SG+        A1 (1)
  164   213          26.2288471472         713.7232158614      DE        A2 (4)
  165    64          26.2288471472         713.7232158615      DE        A1 (1)
  166   178          26.4124590323         718.7195492641      PI        B2 (3)
  167   126          26.4124590323         718.7195492641      PI        B1 (2)
  168    65          26.8009737046         729.2915709681     SG+        A1 (1)
  169   127          33.3103620435         906.4210327586      PI        B1 (2)
  170   179          33.3103620435         906.4210327594      PI        B2 (3)
  171    66          34.0486844241         926.5118061304     SG+        A1 (1)
  172    67          35.4831460480         965.5454913500     SG+        A1 (1)
  173   214          47.0887153289        1281.3490866295      DE        A2 (4)
  174    68          47.0887153290        1281.3490866296      DE        A1 (1)
  175   128          47.2527399969        1285.8124247550      PI        B1 (2)
  176   180          47.2527399969        1285.8124247551      PI        B2 (3)
  177    69          47.3816563945        1289.3204182772     SG+        A1 (1)
  178    70          63.5887093873        1730.3367510500     SG+        A1 (1)
  179   129          66.2454253048        1802.6296664637      PI        B1 (2)
  180   181          66.2454253048        1802.6296664640      PI        B2 (3)
  181    71          66.7452362086        1816.2302125955     SG+        A1 (1)
  182   182          98.4909580201        2680.0752201170      PH        B2 (3)
  183   130          98.4909580201        2680.0752201170      PH        B1 (2)
  184   215          98.5072926751        2680.5197086774      DE        A2 (4)
  185    72          98.5072926751        2680.5197086774      DE        A1 (1)
  186   183          98.5221857798        2680.9249706606      PI        B2 (3)
  187   131          98.5221857798        2680.9249706606      PI        B1 (2)
  188    73          98.5282977997        2681.0912871757     SG+        A1 (1)
  189   216         103.3284126888        2811.7090537882      DE        A2 (4)
  190    74         103.3284126888        2811.7090537887      DE        A1 (1)
  191   132         103.3310069648        2811.7796476279      PI        B1 (2)
  192   184         103.3310069648        2811.7796476279      PI        B2 (3)
  193    75         103.3424653832        2812.0914470445     SG+        A1 (1)
  194   185         103.3438527263        2812.1291985690      PH        B2 (3)
  195   133         103.3438527263        2812.1291985690      PH        B1 (2)
  196    76         114.9400604413        3127.6780526866      DE        A1 (1)
  197   217         114.9400604413        3127.6780526866      DE        A2 (4)
  198   186         115.0301969570        3130.1307919732      PI        B2 (3)
  199   134         115.0301969570        3130.1307919732      PI        B1 (2)
  200    77         115.1933003703        3134.5690614866     SG+        A1 (1)
  201   135         116.6384539026        3173.8936883268      PI        B1 (2)
  202   187         116.6384539026        3173.8936883274      PI        B2 (3)
  203    78         117.2708422064        3191.1018489201     SG+        A1 (1)
  204    79         121.7407484558        3312.7341816337     SG+        A1 (1)
  205   218         198.5742735893        5403.4806920157      DE        A2 (4)
  206    80         198.5742735893        5403.4806920159      DE        A1 (1)
  207   136         198.6634058589        5405.9061043776      PI        B1 (2)
  208   188         198.6634058589        5405.9061043776      PI        B2 (3)
  209    81         198.7326694191        5407.7908616695     SG+        A1 (1)
  210    82         216.1293428901        5881.1784133735     SG+        A1 (1)
  211   137         224.7381873853        6115.4369815615      PI        B1 (2)
  212   189         224.7381873853        6115.4369815617      PI        B2 (3)
  213    83         225.1317221684        6126.1456074272     SG+        A1 (1)
  214   138         395.1973732994       10753.8672435234      PI        B1 (2)
  215   190         395.1973732994       10753.8672435237      PI        B2 (3)
  216    84         395.6829622620       10767.0807909602     SG+        A1 (1)
  217    85         508.5029561727       13837.0689004475     SG+        A1 (1)
  218    86         894.9404888598       24352.5687625475     SG+        A1 (1)


  VSCF finished.

 @CHECKOUT-I, Total execution time (CPU/WALL):       55.66/       9.93 seconds.
--executable xvscf finished with status     0 in        9.97 seconds (walltime).
 --invoking executable--
/nfs/workspaces/public/cfour_mpi/bin/xvtran
 @GETMEM-I,  Allocated    3814 MB of main memory.
  Full RHF integral transformation
  Transformation of IIII integrals :
  1 pass through the AO integral file was required.
     4364111 AO integrals were read.
     8556113 MO integrals were written to HF2.
  Transformation of IIJJ integrals :
  1 pass through the AO integral file was required.
     9917301 AO integrals were read.
    14311997 MO integrals were written to HF2.
  Transformation of IJIJ integrals :
  1 pass through the AO integral file was required.
    18829929 AO integrals were read.
    26672821 MO integrals were written to HF2.
  Transformation of IJKL integrals :
  1 pass through the AO integral file was required.
    13891433 AO integrals were read.
    18020473 MO integrals were written to HF2.
  Summary of active molecular orbitals: 
------------------------------------------------------------------------
 
  Index      Eigenvalue    Symmetry    Index      Eigenvalue    Symmetry
------------------------------------------------------------------------
     1       -20.6246153        1       110         4.1308256        2
     2       -11.5349198        1       111         4.1560385        2
     3        -1.2261516        1       112         4.4539095        2
     4        -0.8140286        1       113         4.9706510        2
     5        -0.4892300        1       114         5.3507535        2
     6        -0.4777424        2       115         5.8741876        2
     7        -0.4777424        3       116         6.0931069        2
     8         0.0554734        1       117         6.3267851        2
     9         0.0691674        1       118         6.6511805        2
    10         0.1479449        1       119         6.9023856        2
    11         0.1629239        1       120         9.5618672        2
    12         0.2186313        1       121        10.7220610        2
    13         0.2853794        1       122        11.0056067        2
    14         0.3061071        1       123        11.9247368        2
    15         0.4074635        1       124        12.1380935        2
    16         0.5169636        1       125        13.0723869        2
    17         0.5507066        1       126        18.6453949        2
    18         0.6964095        1       127        26.4124590        2
    19         0.7296437        1       128        33.3103620        2
    20         0.8028706        1       129        47.2527400        2
    21         0.8439293        1       130        66.2454253        2
    22         0.9126569        1       131        98.4909580        2
    23         1.1556874        1       132        98.5221858        2
    24         1.3105853        1       133       103.3310070        2
    25         1.5760065        1       134       103.3438527        2
    26         1.5842110        1       135       115.0301970        2
    27         1.6547949        1       136       116.6384539        2
    28         1.8390772        1       137       198.6634059        2
    29         1.9226590        1       138       224.7381874        2
    30         2.0526677        1       139       395.1973733        2
    31         2.1113216        1       140        -0.0274091        3
    32         2.2231574        1       141         0.0803214        3
    33         2.2629481        1       142         0.1845324        3
    34         2.3485828        1       143         0.2780122        3
    35         2.5256162        1       144         0.4109600        3
    36         2.6317320        1       145         0.6248479        3
    37         2.7953057        1       146         0.7231221        3
    38         3.7261604        1       147         0.7654059        3
    39         3.7414480        1       148         0.8570930        3
    40         4.0538987        1       149         1.0603489        3
    41         4.1137750        1       150         1.4180228        3
    42         4.2860678        1       151         1.4473077        3
    43         4.3141539        1       152         1.6427651        3
    44         4.5415850        1       153         2.0004901        3
    45         4.8373972        1       154         2.1561670        3
    46         5.0926133        1       155         2.1927919        3
    47         5.8022874        1       156         2.1948127        3
    48         5.8995634        1       157         2.4525664        3
    49         6.0167569        1       158         2.6587403        3
    50         6.1173120        1       159         3.2149722        3
    51         6.2308031        1       160         3.8451933        3
    52         6.4524249        1       161         4.1308256        3
    53         7.0220971        1       162         4.1560385        3
    54         7.3478175        1       163         4.4539095        3
    55         9.2250340        1       164         4.9706510        3
    56        10.6177351        1       165         5.3507535        3
    57        10.6907750        1       166         5.8741876        3
    58        10.8999226        1       167         6.0931069        3
    59        11.0660813        1       168         6.3267851        3
    60        11.9712532        1       169         6.6511805        3
    61        12.4204458        1       170         6.9023856        3
    62        12.7253738        1       171         9.5618672        3
    63        13.2941487        1       172        10.7220610        3
    64        17.1217461        1       173        11.0056067        3
    65        19.3095525        1       174        11.9247368        3
    66        26.2288471        1       175        12.1380935        3
    67        26.8009737        1       176        13.0723869        3
    68        34.0486844        1       177        18.6453949        3
    69        35.4831460        1       178        26.4124590        3
    70        47.0887153        1       179        33.3103620        3
    71        47.3816564        1       180        47.2527400        3
    72        63.5887094        1       181        66.2454253        3
    73        66.7452362        1       182        98.4909580        3
    74        98.5072927        1       183        98.5221858        3
    75        98.5282978        1       184       103.3310070        3
    76       103.3284127        1       185       103.3438527        3
    77       103.3424654        1       186       115.0301970        3
    78       114.9400604        1       187       116.6384539        3
    79       115.1933004        1       188       198.6634059        3
    80       117.2708422        1       189       224.7381874        3
    81       121.7407485        1       190       395.1973733        3
    82       198.5742736        1       191         0.2186313        4
    83       198.7326694        1       192         0.5507066        4
    84       216.1293429        1       193         0.7296437        4
    85       225.1317222        1       194         0.8439293        4
    86       395.6829623        1       195         1.5842110        4
    87       508.5029562        1       196         1.6547949        4
    88       894.9404889        1       197         2.0526677        4
    89        -0.0274091        2       198         2.1113216        4
    90         0.0803214        2       199         2.2629481        4
    91         0.1845324        2       200         2.5256162        4
    92         0.2780122        2       201         3.7261604        4
    93         0.4109600        2       202         4.1137750        4
    94         0.6248479        2       203         4.3141539        4
    95         0.7231221        2       204         4.5415850        4
    96         0.7654059        2       205         5.8022874        4
    97         0.8570930        2       206         6.0167569        4
    98         1.0603489        2       207         6.2308031        4
    99         1.4180228        2       208         6.4524249        4
   100         1.4473077        2       209        10.6907750        4
   101         1.6427651        2       210        10.8999226        4
   102         2.0004901        2       211        11.9712532        4
   103         2.1561670        2       212        12.7253738        4
   104         2.1927919        2       213        26.2288471        4
   105         2.1948127        2       214        47.0887153        4
   106         2.4525664        2       215        98.5072927        4
   107         2.6587403        2       216       103.3284127        4
   108         3.2149722        2       217       114.9400604        4
   109         3.8451933        2       218       198.5742736        4
------------------------------------------------------------------------
  -20.6246152826534       -11.5349198310845       -1.22615158329478     
 -0.814028624356490      -0.489229981794376      -0.477742430000013     
 -0.477742430000024       5.547342612859382E-002  6.916744416586056E-002
  0.147944884397692       0.162923880087536       0.218631349043580     
  0.285379405187199       0.306107053488779       0.407463509502572     
  0.516963586074281       0.550706600620289       0.696409486964611     
  0.729643747049045       0.802870567715997       0.843929324789300     
  0.912656920150694        1.15568739619335        1.31058526379006     
   1.57600647967250        1.58421095738567        1.65479487479343     
   1.83907715843447        1.92265904413007        2.05266766128135     
   2.11132155576267        2.22315738384268        2.26294811514100     
   2.34858283971411        2.52561624675606        2.63173195458467     
[...]
 Convergence information after    22 iterations: 
 Largest element of residual vector :  0.15087005E-06.
 Largest element of DIIS residual   :  0.95004542E-07.
 Perturbed amplitude equations converged in    22 iterations.
  Dominant contributions to perturbed wavefunction:
    7    0   46    0   0.3425048804 AA  
    7    0   22    0   0.2888896009 AA  
    7    0   32    0   0.2328563303 AA  
    7    0   36    0   0.2300677879 AA  
    7    7  140   46  -0.2271423809 ABAB
    7    7   46  140  -0.2271423809 ABAB
    7    0   28    0   0.2242214067 AA  
    7    7  140   22  -0.2237669400 ABAB
    7    7   22  140  -0.2237669400 ABAB
    7    0   54    0  -0.2083466989 AA  
    7    0   16    0  -0.2035907430 AA  
    7    0   25    0   0.1998366867 AA  
    7    0   56    0   0.1890320682 AA  
    7    7  140   32  -0.1887686926 ABAB
    7    7   32  140  -0.1887686926 ABAB
    7    0   24    0   0.1794205839 AA  
    7    0   37    0   0.1775233532 AA  
    7    0   39    0   0.1717047824 AA  
    7    0   63    0  -0.1602776193 AA  
    7    7  140   36  -0.1529532388 ABAB
  norm of converged amps    1.56929269424424     
 Starting iterative solution of the perturbed Lambda equations.
 The DIIS procedure is used to accelerate convergence.
 Convergence criterion is 10**(-7).
 Maximum number of iterations is 100.
 Convergence information after     1 iterations: 
 Largest element of residual vector :  0.75834917E-01.
 Largest element of DIIS residual   :  0.75834917E-01.
 Convergence information after     2 iterations: 
 Largest element of residual vector :  0.21277083E-01.
 Largest element of DIIS residual   :  0.14897642E-01.
 Convergence information after     3 iterations: 
 Largest element of residual vector :  0.67036535E-02.
 Largest element of DIIS residual   :  0.55225245E-02.
 Convergence information after     4 iterations: 
 Largest element of residual vector :  0.29357644E-02.
 Largest element of DIIS residual   :  0.28324451E-02.
 Convergence information after     5 iterations: 
 Largest element of residual vector :  0.29542017E-02.
 Largest element of DIIS residual   :  0.26241851E-02.
 Convergence information after     6 iterations: 
 Largest element of residual vector :  0.18214540E-02.
 Largest element of DIIS residual   :  0.97130881E-03.
 Convergence information after     7 iterations: 
 Largest element of residual vector :  0.10474340E-02.
 Largest element of DIIS residual   :  0.50315702E-03.
 Convergence information after     8 iterations: 
 Largest element of residual vector :  0.39623155E-03.
 Largest element of DIIS residual   :  0.19447937E-03.
 Convergence information after     9 iterations: 
 Largest element of residual vector :  0.15931820E-03.
 Largest element of DIIS residual   :  0.99184644E-04.
 Convergence information after    10 iterations: 
 Largest element of residual vector :  0.11794652E-03.
 Largest element of DIIS residual   :  0.83283367E-04.
 Convergence information after    11 iterations: 
 Largest element of residual vector :  0.41030752E-04.
 Largest element of DIIS residual   : -0.21977705E-04.
 Convergence information after    12 iterations: 
 Largest element of residual vector :  0.31424368E-04.
 Largest element of DIIS residual   :  0.15799350E-04.
 Convergence information after    13 iterations: 
 Largest element of residual vector :  0.94249414E-05.
 Largest element of DIIS residual   :  0.69222053E-05.
 Convergence information after    14 iterations: 
 Largest element of residual vector :  0.84720539E-05.
 Largest element of DIIS residual   :  0.40474579E-05.
 Convergence information after    15 iterations: 
 Largest element of residual vector :  0.47651270E-05.
 Largest element of DIIS residual   :  0.25222793E-05.
 Convergence information after    16 iterations: 
 Largest element of residual vector :  0.19152461E-05.
 Largest element of DIIS residual   :  0.56897758E-06.
 Convergence information after    17 iterations: 
 Largest element of residual vector :  0.11221067E-05.
 Largest element of DIIS residual   :  0.55878645E-06.
 Convergence information after    18 iterations: 
 Largest element of residual vector :  0.28032913E-06.
 Largest element of DIIS residual   : -0.18212000E-06.
 Convergence information after    19 iterations: 
 Largest element of residual vector :  0.25419630E-06.
 Largest element of DIIS residual   :  0.12899507E-06.
 Convergence information after    20 iterations: 
 Largest element of residual vector :  0.89588005E-07.
 Largest element of DIIS residual   :  0.68189091E-07.
 Perturbed Lambda equations converged in    20 iterations.
  Dominant contributions to perturbed wavefunction:
    7    7  140   22  -0.1478705940 ABAB
    7    7   22  140  -0.1478705940 ABAB
    7    7  140   46  -0.1456965698 ABAB
    7    7   46  140  -0.1456965698 ABAB
    7    7  140   32  -0.1255537701 ABAB
    7    7   32  140  -0.1255537701 ABAB
    7    0   46    0   0.0995655840 AA  
    7    7  140   36  -0.0986434784 ABAB
    7    7   36  140  -0.0986434784 ABAB
    7    6   22   89  -0.0938137343 ABAB
    6    7   89   22  -0.0938137343 ABAB
    7    6   46   89  -0.0935399366 ABAB
    6    7   89   46  -0.0935399366 ABAB
    7    7  140   16   0.0928301558 ABAB
    7    7   16  140   0.0928301558 ABAB
    7    7  140   56  -0.0921391672 ABAB
    7    7   56  140  -0.0921391672 ABAB
    7    7  140   28  -0.0904094107 ABAB
    7    7   28  140  -0.0904094107 ABAB
    7    7  140   39  -0.0858587650 ABAB
        The DBOC first-order density matrix is being calculated 
             (Symmetry block 3, perturbation   2)
 term   2.59973862817734     
 final tnorm  0.641625657803923     
  norm contr. I: |<0|L dT/dx|0>|^2   0.000000000000000E+000
  norm contr. II: <0|[nabla(1+L)e-T][nabla e^T]|0>   2.59973862817734     
  total norm contribution   2.59973862817734     
 oo  1.370054264460813E-002
 vv  -19.4215123074017     
 vo -2.461362246936476E-002
  Correlated perturbed 1-el contribution to DBOC  -19.4324253872265       cm**-1
  SUM_I |dc_I/dx|^2 contribution to DBOC   9.78726099026448       cm**-1
 
 
  The total diagonal Born-Oppenheimer correction (DBOC) is:      0.0040039261 a.u.
  The total diagonal Born-Oppenheimer correction (DBOC) is:        878.760196 cm-1
 
 Total CC energy including DBOC  -113.001873509534     
 First-order density matrix is being calculated  (Symmetry block 3, perturbation   2)
 Calculation of the contributions of <pq||rs> to dI(i,j)/dx required   1.4 seconds.
 Calculation of the contributions of <pq||rs> to dI(a,b)/dx required  15.0 seconds.
 Calculation of the contributions of <pq||rs> to dI(i,a)/dx required   9.2 seconds.
 First-order Z-vector equations are solved for 1 perturbation.
 Convergence reached after  20 iterations.
        U*G(pq,rs) contribution is being calculated
             (Symmetry block 3, perturbation   2)

 CCSD contribution to force constants 

        0.0000000000        0.0000000000        0.0000000000
        0.0000000000        0.0000000000        0.0000000000
        0.0000000000        0.0000000000        0.0000000000
        0.0000000000        0.0000000000        0.0000000000
        0.0000000000        0.0000000000        0.0000000000
        0.0000000000        0.0000000000        0.0000000000
        0.0000000000        0.0000000000        0.0000000000
        0.0000000000        0.0000000000        0.0000000000
        0.0000000000        0.0000000000        0.0000000000
        0.0000000000        0.0000000000        0.0000000000
        0.0000000000        0.0000000000        0.0000000000
        0.0000000000      -11.1586696534       11.1586696534

 CCSD contribution to dipole derivatives 

        0.0000000000        0.0000000000        0.0000000000
        0.0000000000        0.0000000000        0.0000000000
        0.0000000000        0.0000000000        0.0000000000
        0.0000000000        0.0000000000       -0.0549724952
        0.0000000000        0.0000000000        0.0000000000
        0.0000000000        0.0000000000        0.0000000000
 @CHECKOUT-I, Total execution time (CPU/WALL):     1105.81/     336.63 seconds.
--executable xsdcc finished with status     0 in      336.81 seconds (walltime).
 --invoking executable--
/nfs/workspaces/public/cfour_mpi/bin/xanti
 @GETMEM-I,  Allocated    3814 MB of main memory.
 CCSD MO derivative gammas will be sorted to Mulliken order.
 @CHECKOUT-I, Total execution time (CPU/WALL):       12.55/      35.09 seconds.
--executable xanti finished with status     0 in       35.18 seconds (walltime).
 --invoking executable--
/nfs/workspaces/public/cfour_mpi/bin/xbcktrn
 @GETMEM-I,  Allocated    3814 MB of main memory.
 CCSD MO derivative gammas will be transformed to the AO basis.
 @CHECKOUT-I, Total execution time (CPU/WALL):       20.43/       8.94 seconds.
--executable xbcktrn finished with status     0 in        8.98 seconds (walltime).
 --invoking executable--
/nfs/workspaces/public/cfour_mpi/bin/xvdint
 @GETMEM-I,  Allocated    3814 MB of main memory.
 One- and two-electron integral derivatives are calculated
 for RHF-CC/MBPT hessians and dipole derivatives.
 Spherical gaussians are used.
  magnet F F
                    8722  records have been written to the Sort file.
  Total length of Sort file :             178609116  words.
 Evaluation of 2el integral derivatives

                      Two-electron integral gradient
                      ------------------------------

                         C #1 z     0.0000000000
                         O #2 z     0.0000000000


 C #1       0.0000000000            0.0615153677            0.0000000000
 O #2       0.0000000000           -0.0615153677            0.0000000000


 Evaluation of 2e integral derivatives required  269.47 seconds.
  contribution to Hessian
        0.0000000000        0.0000000000        0.0000000000
        0.0000000000        0.0615153677       -0.0615153677
 @CHECKOUT-I, Total execution time (CPU/WALL):      269.45/      58.99 seconds.
--executable xvdint finished with status     0 in       59.14 seconds (walltime).
 --invoking executable--
/nfs/workspaces/public/cfour_mpi/bin/xanti
 @GETMEM-I,  Allocated    3814 MB of main memory.
 CCSD MO gammas will be sorted to Mulliken order.
 @CHECKOUT-I, Total execution time (CPU/WALL):       13.17/      29.65 seconds.
--executable xanti finished with status     0 in       29.76 seconds (walltime).
 --invoking executable--
/nfs/workspaces/public/cfour_mpi/bin/xbcktrn
 @GETMEM-I,  Allocated    3814 MB of main memory.
 CCSD MO gammas will be transformed to the AO basis.
 @CHECKOUT-I, Total execution time (CPU/WALL):       24.90/       6.02 seconds.
--executable xbcktrn finished with status     0 in        6.06 seconds (walltime).
 --invoking executable--
/nfs/workspaces/public/cfour_mpi/bin/xvdint
 @GETMEM-I,  Allocated    3814 MB of main memory.
 One- and two-electron integral derivatives are calculated
 for RHF-CC/MBPT hessians and dipole derivatives.
 Spherical gaussians are used.
  magnet F F

                     Kinetic energy integral gradient
                     --------------------------------

                         C #1 z    -0.3697719626
                         O #2 z     0.3697719626


 C #1       0.0000000000            0.0000000000           -0.3697719626
 O #2       0.0000000000            0.0000000000            0.3697719626



                   Nuclear attraction integral gradient
                   ------------------------------------

                         C #1 z    11.4300156069
                         O #2 z   -11.4300156069


 C #1       0.0000000000            0.0000000000           11.4300156069
 O #2       0.0000000000            0.0000000000          -11.4300156069



                      Reorthonormalization gradient
                      -----------------------------

                         C #1 z     0.0000000000
                         O #2 z     0.0000000000


 C #1       0.0000000000            0.0000000000            0.0000000000
 O #2       0.0000000000            0.0000000000            0.0000000000



                     Kinetic energy integral Hessian
                     -------------------------------


           Symmetry 1

           C #1 z      O #2 z

 C #1 z    0.394253
 O #2 z   -0.394253    0.394253


           Symmetry 2

           C #1 x      O #2 x

 C #1 x   -0.239216
 O #2 x    0.239216   -0.239216


           Symmetry 3

           C #1 y      O #2 y

 C #1 y   -0.239216
 O #2 y    0.239216   -0.239216




           C #1 x      C #1 y      C #1 z      O #2 x      O #2 y      O #2 z

 C #1 x   -0.239216
 C #1 y    0.000000   -0.239216
 C #1 z    0.000000    0.000000    0.394253

 O #2 x    0.239216    0.000000    0.000000   -0.239216
 O #2 y    0.000000    0.239216    0.000000    0.000000   -0.239216
 O #2 z    0.000000    0.000000   -0.394253    0.000000    0.000000    0.394253




                   Nuclear attraction integral Hessian
                   -----------------------------------


           Symmetry 1

           C #1 z      O #2 z

 C #1 z   -6.725891
 O #2 z    6.725891   -6.725891


           Symmetry 2

           C #1 x      O #2 x

 C #1 x    5.247037
 O #2 x   -5.247037    5.247037


           Symmetry 3

           C #1 y      O #2 y

 C #1 y    5.247037
 O #2 y   -5.247037    5.247037




           C #1 x      C #1 y      C #1 z      O #2 x      O #2 y      O #2 z

 C #1 x    5.247037
 C #1 y    0.000000    5.247037
 C #1 z    0.000000    0.000000   -6.725891

 O #2 x   -5.247037    0.000000    0.000000    5.247037
 O #2 y    0.000000   -5.247037    0.000000    0.000000    5.247037
 O #2 z    0.000000    0.000000    6.725891    0.000000    0.000000   -6.725891




                Highest order reorthonormalization Hessian
                ------------------------------------------


           Symmetry 1

           C #1 z      O #2 z

 C #1 z    0.000000
 O #2 z    0.000000    0.000000


           Symmetry 2

           C #1 x      O #2 x

 C #1 x    0.000000
 O #2 x    0.000000    0.000000


           Symmetry 3

           C #1 y      O #2 y

 C #1 y    0.000000
 O #2 y    0.000000    0.000000




           C #1 x      C #1 y      C #1 z      O #2 x      O #2 y      O #2 z




                Electronic contributions to dipole moment
                -----------------------------------------

                               au             Debye

                    z      1.51751475      3.85713842

  Conversion factor used: 1 a.u. =   2.54174691 Debye 



   Electronic contributions to static part of dipole moment derivatives
   --------------------------------------------------------------------


                     Total dipole moment derivatives
                     -------------------------------


           Symmetry 1
                              Ez

               C #1 z    -5.71004310
               O #2 z    -8.28995690

           Symmetry 2
                              Ex

               C #1 x    -5.69852231
               O #2 x    -8.30147769

           Symmetry 3
                              Ey

               C #1 y    -5.69852231
               O #2 y    -8.30147769



                       Ex          Ey          Ez

      C #1    x   -5.698522    0.000000    0.000000
      C #1    y    0.000000   -5.698522    0.000000
      C #1    z    0.000000    0.000000   -5.710043

      O #2    x   -8.301478    0.000000    0.000000
      O #2    y    0.000000   -8.301478    0.000000
      O #2    z    0.000000    0.000000   -8.289957

 Evaluation of 1e integral derivatives required    1.72 seconds.
                    8815  records have been written to the Sort file.
  Total length of Sort file :             180513570  words.
 Evaluation of 2el integral derivatives

                      Two-electron integral gradient
                      ------------------------------

                         C #1 z    -6.2727304963
                         O #2 z     6.2727304963


 C #1       0.0000000000            0.0000000000           -6.2727304963
 O #2       0.0000000000            0.0000000000            6.2727304963


 Evaluation of 2e integral derivatives required  575.73 seconds.

                            Molecular gradient
                            ------------------

                         C #1 z     0.4921035143
                         O #2 z    -0.4921035143


 C #1       0.0000000000            0.0000000000            0.4921035143
 O #2       0.0000000000            0.0000000000           -0.4921035143


  Molecular gradient norm 0.696E+00

                            Molecular hessian
                            -----------------


           Symmetry 1

           C #1 z      O #2 z

 C #1 z    6.727960
 O #2 z   -6.727960    6.727960


           Symmetry 2

           C #1 x      O #2 x

 C #1 x   11.318866
 O #2 x  -11.318866   11.318866


           Symmetry 3

           C #1 y      O #2 y

 C #1 y   11.318866
 O #2 y  -11.318866   11.318866




           C #1 x      C #1 y      C #1 z      O #2 x      O #2 y      O #2 z

 C #1 x   11.318866
 C #1 y    0.000000   11.318866
 C #1 z    0.000000    0.000000    6.727960

 O #2 x  -11.318866    0.000000    0.000000   11.318866
 O #2 y    0.000000  -11.318866    0.000000    0.000000   11.318866
 O #2 z    0.000000    0.000000   -6.727960    0.000000    0.000000    6.727960




                           Total dipole moment
                           -------------------

                               au             Debye

                    z      0.58867986      1.49627522

  Conversion factor used: 1 a.u. =   2.54174691 Debye 



                     Total dipole moment derivatives
                     -------------------------------


           Symmetry 1
                              Ez

               C #1 z     0.37023517
               O #2 z    -0.37023517

           Symmetry 2
                              Ex

               C #1 x     0.19256125
               O #2 x    -0.19256125

           Symmetry 3
                              Ey

               C #1 y     0.19256125
               O #2 y    -0.19256125



                       Ex          Ey          Ez

      C #1    x    0.192561    0.000000    0.000000
      C #1    y    0.000000    0.192561    0.000000
      C #1    z    0.000000    0.000000    0.370235

      O #2    x   -0.192561    0.000000    0.000000
      O #2    y    0.000000   -0.192561    0.000000
      O #2    z    0.000000    0.000000   -0.370235

 @CHECKOUT-I, Total execution time (CPU/WALL):      577.44/     100.91 seconds.
--executable xvdint finished with status     0 in      101.05 seconds (walltime).
 --invoking executable--
/nfs/workspaces/public/cfour_mpi/bin/xjoda
  @GTFLGS-I, Hessian will be transformed to curvilinear coordinates.
  @GTFLGS-I, Hessian will be transformed to curvilinear coordinates.
  igrd and ihes are                      0                     1
  gradient from JOBARC 
   0.000000000000000   0.000000000000000   0.492103514294169
   0.000000000000000   0.000000000000000  -0.492103514294169
 
  @PROJFCM-I, Projecting force constant matrix onto totally symmetric subspace.
  Largest difference between matrix elements of symmetrized
  and unsymmetrized FCM :     0.5329070518E-14.
  read isotopes from ZMAT file 
 
  Summary of diagonal Born-Oppenheimer correction at the correlated level
  The total diagonal Born-Oppenheimer correction (DBOC) is:      0.0040039261 a.u.
  The total diagonal Born-Oppenheimer correction (DBOC) is:        878.760196 cm-1
  The total diagonal Born-Oppenheimer correction (DBOC) is:            10.512 kJ/mole
  hellooooooo 
  readis is  F
 
 @CHECKOUT-I, Total execution time (CPU/WALL):        0.02/       0.08 seconds.
--executable xjoda finished with status     0 in        0.11 seconds (walltime).
  The final electronic energy is      -113.001873509534292 a.u. 
  This computation required                         3936.14 seconds (walltime).
