 --invoking executable--
/nfs/workspaces/public/cfour_mpi/bin/xjoda


   *************************************************************************
         <<<     CCCCCC     CCCCCC   |||     CCCCCC     CCCCCC   >>>
       <<<      CCC        CCC       |||    CCC        CCC         >>>
      <<<      CCC        CCC        |||   CCC        CCC            >>>
    <<<        CCC        CCC        |||   CCC        CCC              >>>
      <<<      CCC        CCC        |||   CCC        CCC            >>>
       <<<      CCC        CCC       |||    CCC        CCC         >>>
         <<<     CCCCCC     CCCCCC   |||     CCCCCC     CCCCCC   >>>
   *************************************************************************

     ****************************************************************
     * CFOUR Coupled-Cluster techniques for Computational Chemistry *
     ****************************************************************
 

   Department of Chemistry                Institut fuer Physikalische Chemie
   University of Florida                  Universitaet Mainz
   Gainesville, FL 32611, USA             D-55099 Mainz, Germany

   Department of Chemistry                Fakultaet fuer Chemie und Biowiss.
   Johns Hopkins University               Karlsruher Institut fuer Technologie
   Baltimore, MD 21218, USA               D-76131 Karlsruhe, Germany

   Department of Chemistry                Department of Physical Chemistry
   Southern Methodist University          Eotvos Lorand University
   Dallas, TX 75275, USA                  H-1053 Budapest, Hungary

 
                       Version 2.1
 
                     vincent.theory.phys.ucl.ac.uk                     
                     Fri 28 Feb 08:04:48 GMT 2025                      
                     integer*8 version is running
 
********************************************************************************
*                          Input from ZMAT file                                *
********************************************************************************
Carbon Monoxide DBOC calculation                                                
C                                                                               
O 1 r                                                                           
                                                                                
r=1.5827586206896551                                                            
                                                                                
                                                                                
*CFOUR(CALC=CCSD,BASIS=AUG-PCVQZ,SCF_CONV=10                                    
CC_CONV=14,DBOC=ON,MEMORY=500000000                                             
ZFIELD=200)                                                                     
                                                                                
%isotopes                                                                       
13                                                                              
16                                                                              
********************************************************************************
  @GTFLGS-I, Hessian will be transformed to curvilinear coordinates.
    -------------------------------------------------------------------
                    CFOUR Control Parameters 
    -------------------------------------------------------------------
        External           Internal           Value            Units
          Name               Name
    -------------------------------------------------------------------
       ABCDTYPE             IABCDT         STANDARD    [  0]    ***   
       ANHARMONIC           IANHAR         OFF         [  0]    ***   
       ANH_ALGORIT          IANALG         STANDARD    [  0]    ***   
       ANH_DERIVAT          IANDER         SECOND      [  1]    ***   
       ANH_MODE             ANHMOD         VIBRATION   [  0]    ***   
       ANH_STEPSIZ          ICUBST             50000          x 10-6  
       ANH_SYMMETR          IANHSM         ABELIAN     [  0]    ***   
       AO_LADDERS           IAOLAD         SINGLEPASS  [  1]    ***   
       AV_SCF               IAVSCF         OFF         [  0]    ***   
       BASIS                IBASIS         AUG-PCVQZ   [ 52]    ***   
       BOTHVECTORS          BOTHVC         OFF         [  0]    ***   
       BOX_POTENT           IPIAB          OFF         [  0]    ***   
       BREIT                IBREIT         OFF         [  0]    ***   
       BRUCK_CONV           IBRTOL          10D-  4             ***   
       BRUECKNER            IBRKNR         OFF         [  0]    ***   
       BUFFERSIZE           IBUFFS              4096            ***   
       CACHE_RECS           ICHREC             10               ***   
       CALCLEVEL            ICLLVL         CCSD        [ 10]    ***   
       CCORBOPT             ICCORB         OFF         [  0]  x 0.01  
       CC_CONV              ICCCNV          10D- 14             ***   
       CC_EXPORDER          ICCEOR              5               ***   
       CC_EXTRAPOL          ICCEXT         DIIS        [  1]    ***   
       CC_GUESS             ICCGES         MP2         [  0]    ***   
       CC_MAXCYC            ICCCYC            100              cycles 
       CC_PROGRAM           ICCPRO         VCC         [  0]    ***   
       CHARGE               ICHRGE              0               ***   
       CHOLESKY             ICHOLE         OFF         [  0]    ***   
       CIS_CONV             ICISTL              5               ***   
       COMM_SIZE            IPSIZE            ***               ***   
       CONSTANT             ICONST         OLD         [  1]    ***   
       CONTINUUM            ICONTU         NONE        [  0]    ***   
       CONTRACTION          ICNTYP         GENERAL     [  1]    ***   
       COORDINATES          ICOORD         INTERNAL    [  0]    ***   
       CPHF_CONVER          ICPHFT          10D- 16             ***   
       CPHF_MAXCYC          ICPHFC             64              cycles 
       CUBIC                ICUBIC         OFF         [  0]    ***   
       CURVILINEAR          ICURVY         ON          [  1]    ***   
       DBOC                 IDBOC          ON          [  1]    ***   
       DCT                  IDCT           OFF         [  0]    ***   
       DERIV_LEV            IDRLVL         SECOND      [  2]    ***   
       DEVMEM_SIZE          IDVMEM          50000000           MByte  
       DIAG_MRCC            IEOMST          10D-  0             ***   
       DIFF_TYPE            IDIFTY         RELAXED     [  0]    ***   
       DIRECT               IDIRCT         OFF         [  0]    ***   
       DROPMO               IDRPMO      NONE         
       ECP                  IECP           OFF         [  0]    ***   
       EIGENVECTOR          IVEC                1               ***   
       EL_ANHARM            IELANH         OFF         [  0]    ***   
       EOMFOLLOW            IEOMSR         ENERGY      [  0]    ***   
       EOMIP                IEOMIP         OFF         [  0]    ***   
       EOMLEVEL             HBARFM         SAME        [  0]    ***   
       EOM_MRCC             IMRCCE         NEW         [  1]    ***   
       EOM_NONIT            EOMNON         OFF         [  0]    ***   
       EOM_NSING            IEOMSI          10D-  0             ***   
       EOM_NSTATES          IMRCCD         DAVIDSON    [  0]    ***   
       EOM_NTRIP            IEOMTR          10D-  0             ***   
       EOM_ORDER            IEXORD         ENERGY      [  0]    ***   
       EOM_PROPSTA          IEOMST              0               ***   
       ESTATE_CONV          IEXTOL          10D-  5             ***   
       ESTATE_DIAG          IEXDIG         ITERATIVE   [  0]    ***   
       ESTATE_LOCK          IESLOC         ON          [  1]    ***   
       ESTATE_MAXC          IEXMXC             40               ***   
       ESTATE_PROP          IEXPRP         OFF         [  0]    ***   
       EVAL_HESS            IRECAL              0            # of cyc.
       EXCITATION           IEXCIT              0               ***   
       EXCITE               IEXCIT         NONE        [  0]    ***   
       EXTERN_POT           IEXPOT         OFF         [  0]    ***   
       FCGRADNEW            IFCGNW         OFF         [  0]    ***   
       FC_FIELD             IFINFC              0             x 10-6  
       FD_CALTYPE           IFDCAL         GRADONLY    [  0]    ***   
       FD_PROJECT           IFDPRJ         OFF         [  1]    ***   
       FD_STEPSIZE          IDISFD              0            10-4 bohr
       FD_USEGROUP          IFDGRP         FULL        [  0]    ***   
       FILE_RECSIZ          IFLREC              4096           words  
       FINITE_PERT          IFIPER              0             x 10-6  
       FIXGEOM              IFIXGM         OFF         [  0]    ***   
       FOCK                 IFOCK          AO          [  1]    ***   
       FREQ_ALGORI          IVIALG         STANDARD    [  0]    ***   
       FROZEN_CORE          IFROCO         OFF         [  0]    ***   
       GAMMA_ABCD           IGABCD         STORE       [  0]    ***   
       GAMMA_ABCI           IGABCI         STORE       [  0]    ***   
       GENBAS_1             IGNBS1              0               ***   
       GENBAS_2             IGNBS2              0               ***   
       GENBAS_3             IGNBS3              0               ***   
       GENBAS_4             IGNBS4              0               ***   
       GEO_CONV             ICONTL              5              H/bohr 
       GEO_MAXCYC           IOPTCY             50               ***   
       GEO_MAXSTEP          IMXSTP            300            millibohr
       GEO_METHOD           INR            SINGLE_POINT[  5]    ***   
       GIAO                 IGIAO          OFF         [  1]    ***   
       GIMIC                IGIMIC         OFF         [  0]    ***   
       GRID                 IGRID          OFF         [  0]    ***   
       GRID_ALGO            IGALGO         SERIAL      [  0]    ***   
       GUESS                IGUESS         MOREAD      [  0]    ***   
       HBAR                 IHBAR          OFF         [  0]    ***   
       HESS_TYPE            IHESTP         SCF         [  0]    ***   
       HF2_FILE             IHF2Fl         USE         [  1]    ***   
       HFSTABILITY          ISTABL         OFF         [  0]    ***   
       INCORE               INCORE         OFF         [  0]    ***   
       INPUT_MRCC           IMRCC          ON          [  1]    ***   
       INTEGRALS            INTTYP         VMOL        [  1]    ***   
       JODA_PRINT           IJPRNT              0               ***   
       KEYWORD_OUT          IDMPKW         NO          [  0]    ***   
       LINDEP_TOL           ILINDP              8               ***   
       LINEQ_CONV           IZTACN          10D-  7           cycles  
       LINEQ_EXPOR          ILMAXD              5               ***   
       LINEQ_MAXCY          ILMAXC            100               ***   
       LINEQ_TYPE           ILTYPE         DIIS        [  1]    ***   
       LOCK_ORBOCC          ILOCOC         OFF         [  0]    ***   
       MEMORY_SIZE          IMEMSZ         500000000           words  
       MEM_UNIT             IMEMU          INTEGERWORDS[  0]    ***   
       MRCC                 IMRCCC         OFF         [  0]    ***   
       MULTIPLICTY          IMULTP              1               ***   
       NACOUPLING           IVCOUP         OFF         [  0]    ***   
       NEGEVAL              IDIE           ABORT       [  0]    ***   
       NEWNORM              INEWNO         OFF         [  0]    ***   
       NON-HF               INONHF         OFF         [  0]    ***   
       NTOP_TAMP            ITOPT2             15               ***   
       NUC_MODEL            INUCMO         POINT       [  0]    ***   
       OCCUPATION           IOCCU   ESTIMATED BY SCF 
       OPEN-SHELL           IOPEN          SPIN-ORBITAL[  0]    ***   
       OPTVIB               IOPTVB         OFF         [  0]    ***   
       ORBITALS             IORBTP         STANDARD    [  0]    ***   
       PARALLEL             IPARAL         ON          [  1]    ***   
       PARA_INT             IPINTS         ON          [  1]    ***   
       PARA_PRINT           IPPRIN              0               ***   
       PERT_ORB             IPTORB         STANDARD    [  0]    ***   
       POINTS               IGRDFD              0               ***   
       PRINT                IPRNT               0               ***   
       PROPS                IPROPS         OFF         [  0]    ***   
       PROP_INTEGR          IINTYP         INTERNAL    [  0]    ***   
       PSI                  IPSI           OFF         [  0]    ***   
       QC_ALG               IQCALG         FLM         [  0]    ***   
       QC_LINALG            IQCLIN         TRIDIAG     [  2]    ***   
       QC_MAXCYC            IQCMAX          10D-100           cycles  
       QC_MAXSCFCY          IQCMSC          10D- 15           cycles  
       QC_RTRUST            IQCRTR          10D-  0           x 10-3  
       QC_SKIPSCF           IQCSKI         OFF         [  0]    ***   
       QC_START             IQCSTA          10D-  1             ***   
       QRHFGUESS            IQGUES         OFF         [  0]    ***   
       QUARTIC              IQUART         OFF         [  0]    ***   
       RAMAN_INT            IRAMIN         OFF         [  0]    ***   
       RAMAN_ORB            IRAMRE         UNRELAXED   [  0]    ***   
       RDO                  IRDOFM         ON          [  1]    ***   
       REDUCE_REPR          REDREP         Ir          [  0]    ***   
       REFERENCE            IREFNC         RHF         [  0]    ***   
       RELATIVIST           IRELAT         OFF         [  0]    ***   
       RELAX_DENS           IRDENS         ON          [  1]    ***   
       RESET_FLAGS          IRESET         OFF         [  0]    ***   
       RESTART_CC           ICCRES         OFF         [  0]    ***   
       ROT_EVEC             ROTVEC              0               ***   
       SAVE_INTS            ISVINT         OFF         [  0]    ***   
       SCALE_ON             ISTCRT              0               ***   
       SCF_CONV             ISCFCV          10D- 10             ***   
       SCF_DAMPING          IDAMP               0             x 10-3  
       SCF_EXPORDE          IRPPOR              6               ***   
       SCF_EXPSTAR          IRPPLS              8               ***   
       SCF_EXTRAPO          IRPP           ON          [  1]    ***   
       SCF_MAXCYC           ISCFCY            150              cycles 
       SCF_NOSTOP           ISCFST         OFF         [  0]    ***   
       SCF_PRINT            ISCFPR              0               ***   
       SCF_PROG             ISCFPR         SCF         [  0]    ***   
       SD_FIELD             IFINSD              0             x 10-6  
       SOPERT               IPERSO         OFF         [  0]    ***   
       SPHERICAL            IDFGHI         ON          [  1]    ***   
       SPINORBIT            ISOCAL         OFF         [  0]    ***   
       SPINROTATIO          ISRCON         OFF         [  0]    ***   
       SPIN_FLIP            ISPFLP         OFF         [  0]    ***   
       SPIN_ORBIT           ISPORB         OFF         [  0]    ***   
       SPIN_SCAL            ISCSMP         OFF         [  0]    ***   
       STEEPSCALE           ISTPSC              1000          x 10-3  
       SUBGROUP             ISUBGP         DEFAULT     [  0]    ***   
       SUBGRPAXIS           ISBXYZ         X           [  0]    ***   
       SYMMETRY             ISYM           ON          [  0]    ***   
       SYM_CHECK            ISYMCK         OVERRIDE    [  1]    ***   
       T3_EXTRAPOL          IT3EXT         OFF         [  0]    ***   
       T4_EXTRAPOL          IT4EXP         OFF         [  0]    ***   
       TAMP_SUM             IEVERY              5               ***   
       TESTSUITE            ITESTS         OFF         [  0]    ***   
       THERMOCH             ITHERM         OFF         [  0]    ***   
       TOL_CHOLESK          ITOLCH          10D-  4             ***   
       TRANGRAD             IRESRM         OFF         [  0]    ***   
       TRANS_INV            ITRAIN         IGNORE      [  1]    ***   
       TREAT_PERT           ITREAT         SIMULTANEOUS[  0]    ***   
       TRIP_ALGORI          ITRALG         NORMAL      [  0]    ***   
       UIJ_THRESHO          IUIJTH              1               ***   
       UNITS                IUNITS         ANGSTROM    [  0]    ***   
       UNOS                 IUNOS          OFF         [  0]    ***   
       UPDATE_HESS          IHUPDT         ON          [  1]    ***   
       VIBPHASE             ISETPH         STANDARD    [  0]    ***   
       VIBRATION            IVIB           ANALYTIC    [  1]    ***   
       VIB_ALGORIT          IGEALG         STANDARD    [  0]    ***   
       VNATORB              IVNORB         OFF         [  0]    ***   
       VTRAN                IVTRAN         FULL/PARTIAL[  0]    ***   
       XFIELD               IXEFLD              0             x 10-6  
       XFORM_TOL            IXFTOL          10D- 11             ***   
       YFIELD               IYEFLD              0             x 10-6  
       ZFIELD               IZEFLD            200             x 10-6  
       ZSCALE_EXP           IZEXPS         OFF         [  0]    ***   
    -------------------------------------------------------------------
   2 entries found in Z-matrix 
   Job Title : Carbon Monoxide DBOC calculation                                                
   There are  1 unique internal coordinates.
   Of these,  0 will be optimized.
   User supplied Z-matrix: 
--------------------------------------------------------------------------------
       SYMBOL    BOND      LENGTH    ANGLE     ANGLE     DIHED     ANGLE
                  TO      (ANGST)    WRT      (DEG)      WRT      (DEG)
--------------------------------------------------------------------------------
        C    
        O          1         r    
                  *Initial values for internal coordinates* 
                      Name             Value
                        r               1.5827586207
--------------------------------------------------------------------------------
  read isotopes from ZMAT file 
   Rotational constants (in cm-1): 
          0.9382140257             0.9382140257
   Rotational constants (in MHz): 
      28126.9528295413         28126.9528295413
********************************************************************************
   The full molecular point group is CXv .
   The largest Abelian subgroup of the full molecular point group is C2v .
   The computational point group is C2v .
********************************************************************************
--------------------------------------------------------------------------------
   Analysis of internal coordinates specified by Z-matrix 
--------------------------------------------------------------------------------
   *The nuclear repulsion energy is   16.048246692810455 a.u.
   *There is   1 degree of freedom within the tot. symm. molecular subspace.
   *Z-matrix requests optimization of   0 coordinates.
   *The optimization is constrained.
   *The following   1 parameters can have non-zero 
    derivatives within the totally symmetric subspace:
             r    [ 1]
   *The following   0 parameters are to be optimized:

   *The following coordinates must be varied in an  unconstrained optimization.
             r    [ 1]
--------------------------------------------------------------------------------


 ----------------------------------------------------------------
         Coordinates used in calculation (QCOMP) 
 ----------------------------------------------------------------
 Z-matrix   Atomic            Coordinates (in bohr)
  Symbol    Number           X              Y              Z
 ----------------------------------------------------------------
     C         6        -0.00000000     0.00000000     1.64977034
     O         8         0.00000000     0.00000000    -1.34121060
 ----------------------------------------------------------------
 
   Interatomic distance matrix (Angstroms) 
 
                 C             O    
                [ 1]        [ 2]
  C    [ 1]     0.00000
  O    [ 2]     1.58276     0.00000
 rotcon2
   Rotational constants (in cm-1): 
          0.9382140257             0.0000000000
   Rotational constants (in MHz): 
      28126.9528295413             0.0000000000
  ECPDATA file not present.   Using default ECPDATA. 
  @GTFLGS-I, Hessian will be transformed to curvilinear coordinates.
  There are  218 basis functions.
 @CHECKOUT-I, Total execution time (CPU/WALL):        0.19/       0.26 seconds.
--executable xjoda finished with status     0 in        0.28 seconds (walltime).
 --invoking executable--
/nfs/workspaces/public/cfour_mpi/bin/xvmol
 SERIAL VERSION OF MOLECULE STARTED
********************************************************************************
                    INPUT FROM MOL FILE
********************************************************************************
INTGRL        1    0    1    0    0    0    0    0    0                         
         *** CFOUR Program System (Release V0.1) ***                            
Carbon Monoxide DBOC calculation                                                
    2    2 X  Y       0.10E-08              0    0                              
   9999.00      3.00                                                            
          6.00000000    1    5    1    1    1    1    1                         
C #1  -0.000000000000000   0.000000000000000   1.649770338508022                
   16    9                                                                      
   33980.0000000000       9.100000000000000E-005 -1.900000000000000E-005        
  0.000000000000000E+000  0.000000000000000E+000  0.000000000000000E+000        
  0.000000000000000E+000  0.000000000000000E+000  0.000000000000000E+000        
  0.000000000000000E+000                                                        
   5089.00000000000       7.040000000000000E-004 -1.510000000000000E-004        
  0.000000000000000E+000  0.000000000000000E+000  0.000000000000000E+000        
  0.000000000000000E+000  0.000000000000000E+000  0.000000000000000E+000        
  0.000000000000000E+000                                                        
   1157.00000000000       3.693000000000000E-003 -7.850000000000000E-004        
  0.000000000000000E+000  0.000000000000000E+000  0.000000000000000E+000        
  0.000000000000000E+000  0.000000000000000E+000  0.000000000000000E+000        
  0.000000000000000E+000                                                        
   326.600000000000       1.536000000000000E-002 -3.324000000000000E-003        
  0.000000000000000E+000  0.000000000000000E+000  0.000000000000000E+000        
  0.000000000000000E+000  0.000000000000000E+000  0.000000000000000E+000        
  0.000000000000000E+000                                                        
   106.100000000000       5.292900000000000E-002 -1.151200000000000E-002        
  0.000000000000000E+000  0.000000000000000E+000  0.000000000000000E+000        
  0.000000000000000E+000  0.000000000000000E+000  0.000000000000000E+000        
  0.000000000000000E+000                                                        
   38.1100000000000       0.147043000000000      -3.416000000000000E-002        
  0.000000000000000E+000  0.000000000000000E+000  0.000000000000000E+000        
  0.000000000000000E+000  0.000000000000000E+000  0.000000000000000E+000        
  0.000000000000000E+000                                                        
   14.7500000000000       0.305631000000000      -7.717300000000001E-002        
  0.000000000000000E+000  0.000000000000000E+000  0.000000000000000E+000        
  0.000000000000000E+000  0.000000000000000E+000  0.000000000000000E+000        
  0.000000000000000E+000                                                        
   6.03500000000000       0.399345000000000      -0.141493000000000             
  0.000000000000000E+000  0.000000000000000E+000  0.000000000000000E+000        
  0.000000000000000E+000  0.000000000000000E+000  0.000000000000000E+000        
  0.000000000000000E+000                                                        
   2.53000000000000       0.217051000000000      -0.118019000000000             
  0.000000000000000E+000  0.000000000000000E+000  0.000000000000000E+000        
  0.000000000000000E+000  0.000000000000000E+000  0.000000000000000E+000        
  0.000000000000000E+000                                                        
  0.735500000000000       1.589400000000000E-002  0.273806000000000             
   1.00000000000000       0.000000000000000E+000  0.000000000000000E+000        
  0.000000000000000E+000  0.000000000000000E+000  0.000000000000000E+000        
  0.000000000000000E+000                                                        
  0.290500000000000      -3.084000000000000E-003  0.586510000000000             
  0.000000000000000E+000   1.00000000000000       0.000000000000000E+000        
  0.000000000000000E+000  0.000000000000000E+000  0.000000000000000E+000        
  0.000000000000000E+000                                                        
  0.111100000000000       9.779999999999999E-004  0.285430000000000             
  0.000000000000000E+000  0.000000000000000E+000   1.00000000000000             
  0.000000000000000E+000  0.000000000000000E+000  0.000000000000000E+000        
  0.000000000000000E+000                                                        
   7.21600000000000       0.000000000000000E+000  0.000000000000000E+000        
  0.000000000000000E+000  0.000000000000000E+000  0.000000000000000E+000        
   1.00000000000000       0.000000000000000E+000  0.000000000000000E+000        
  0.000000000000000E+000                                                        
   19.5700000000000       0.000000000000000E+000  0.000000000000000E+000        
  0.000000000000000E+000  0.000000000000000E+000  0.000000000000000E+000        
  0.000000000000000E+000   1.00000000000000       0.000000000000000E+000        
  0.000000000000000E+000                                                        
   53.0730000000000       0.000000000000000E+000  0.000000000000000E+000        
  0.000000000000000E+000  0.000000000000000E+000  0.000000000000000E+000        
  0.000000000000000E+000  0.000000000000000E+000   1.00000000000000             
  0.000000000000000E+000                                                        
  4.145000000000000E-002  0.000000000000000E+000  0.000000000000000E+000        
  0.000000000000000E+000  0.000000000000000E+000  0.000000000000000E+000        
  0.000000000000000E+000  0.000000000000000E+000  0.000000000000000E+000        
   1.00000000000000                                                             
   10    8                                                                      
   34.5100000000000       5.378000000000000E-003  0.000000000000000E+000        
  0.000000000000000E+000  0.000000000000000E+000  0.000000000000000E+000        
  0.000000000000000E+000  0.000000000000000E+000  0.000000000000000E+000        
   7.91500000000000       3.613200000000000E-002  0.000000000000000E+000        
  0.000000000000000E+000  0.000000000000000E+000  0.000000000000000E+000        
  0.000000000000000E+000  0.000000000000000E+000  0.000000000000000E+000        
   2.36800000000000       0.142493000000000       0.000000000000000E+000        
  0.000000000000000E+000  0.000000000000000E+000  0.000000000000000E+000        
  0.000000000000000E+000  0.000000000000000E+000  0.000000000000000E+000        
  0.813200000000000       0.342150000000000        1.00000000000000             
  0.000000000000000E+000  0.000000000000000E+000  0.000000000000000E+000        
  0.000000000000000E+000  0.000000000000000E+000  0.000000000000000E+000        
  0.289000000000000       0.463864000000000       0.000000000000000E+000        
   1.00000000000000       0.000000000000000E+000  0.000000000000000E+000        
  0.000000000000000E+000  0.000000000000000E+000  0.000000000000000E+000        
  0.100700000000000       0.250028000000000       0.000000000000000E+000        
  0.000000000000000E+000   1.00000000000000       0.000000000000000E+000        
  0.000000000000000E+000  0.000000000000000E+000  0.000000000000000E+000        
   8.18200000000000       0.000000000000000E+000  0.000000000000000E+000        
  0.000000000000000E+000  0.000000000000000E+000   1.00000000000000             
  0.000000000000000E+000  0.000000000000000E+000  0.000000000000000E+000        
   24.1860000000000       0.000000000000000E+000  0.000000000000000E+000        
  0.000000000000000E+000  0.000000000000000E+000  0.000000000000000E+000        
   1.00000000000000       0.000000000000000E+000  0.000000000000000E+000        
   71.4940000000000       0.000000000000000E+000  0.000000000000000E+000        
  0.000000000000000E+000  0.000000000000000E+000  0.000000000000000E+000        
  0.000000000000000E+000   1.00000000000000       0.000000000000000E+000        
  3.218000000000000E-002  0.000000000000000E+000  0.000000000000000E+000        
  0.000000000000000E+000  0.000000000000000E+000  0.000000000000000E+000        
  0.000000000000000E+000  0.000000000000000E+000   1.00000000000000             
    6    6                                                                      
   1.84800000000000        1.00000000000000       0.000000000000000E+000        
  0.000000000000000E+000  0.000000000000000E+000  0.000000000000000E+000        
  0.000000000000000E+000                                                        
  0.649000000000000       0.000000000000000E+000   1.00000000000000             
  0.000000000000000E+000  0.000000000000000E+000  0.000000000000000E+000        
  0.000000000000000E+000                                                        
  0.228000000000000       0.000000000000000E+000  0.000000000000000E+000        
   1.00000000000000       0.000000000000000E+000  0.000000000000000E+000        
  0.000000000000000E+000                                                        
   8.65600000000000       0.000000000000000E+000  0.000000000000000E+000        
  0.000000000000000E+000   1.00000000000000       0.000000000000000E+000        
  0.000000000000000E+000                                                        
   33.2130000000000       0.000000000000000E+000  0.000000000000000E+000        
  0.000000000000000E+000  0.000000000000000E+000   1.00000000000000             
  0.000000000000000E+000                                                        
  7.660000000000000E-002  0.000000000000000E+000  0.000000000000000E+000        
  0.000000000000000E+000  0.000000000000000E+000  0.000000000000000E+000        
   1.00000000000000                                                             
    4    4                                                                      
   1.41900000000000        1.00000000000000       0.000000000000000E+000        
  0.000000000000000E+000  0.000000000000000E+000                                
  0.485000000000000       0.000000000000000E+000   1.00000000000000             
  0.000000000000000E+000  0.000000000000000E+000                                
   24.6940000000000       0.000000000000000E+000  0.000000000000000E+000        
   1.00000000000000       0.000000000000000E+000                                
  0.187000000000000       0.000000000000000E+000  0.000000000000000E+000        
  0.000000000000000E+000   1.00000000000000                                     
    2    2                                                                      
   1.01100000000000        1.00000000000000       0.000000000000000E+000        
  0.424000000000000       0.000000000000000E+000   1.00000000000000             
          8.00000000    1    5    1    1    1    1    1                         
O #2   0.000000000000000   0.000000000000000  -1.341210602824577                
   16    9                                                                      
   61420.0000000000       9.000000000000001E-005 -2.000000000000000E-005        
  0.000000000000000E+000  0.000000000000000E+000  0.000000000000000E+000        
  0.000000000000000E+000  0.000000000000000E+000  0.000000000000000E+000        
  0.000000000000000E+000                                                        
   9199.00000000000       6.980000000000001E-004 -1.590000000000000E-004        
  0.000000000000000E+000  0.000000000000000E+000  0.000000000000000E+000        
  0.000000000000000E+000  0.000000000000000E+000  0.000000000000000E+000        
  0.000000000000000E+000                                                        
   2091.00000000000       3.664000000000000E-003 -8.290000000000000E-004        
  0.000000000000000E+000  0.000000000000000E+000  0.000000000000000E+000        
  0.000000000000000E+000  0.000000000000000E+000  0.000000000000000E+000        
  0.000000000000000E+000                                                        
   590.900000000000       1.521800000000000E-002 -3.508000000000000E-003        
  0.000000000000000E+000  0.000000000000000E+000  0.000000000000000E+000        
  0.000000000000000E+000  0.000000000000000E+000  0.000000000000000E+000        
  0.000000000000000E+000                                                        
   192.300000000000       5.242300000000000E-002 -1.215600000000000E-002        
  0.000000000000000E+000  0.000000000000000E+000  0.000000000000000E+000        
  0.000000000000000E+000  0.000000000000000E+000  0.000000000000000E+000        
  0.000000000000000E+000                                                        
   69.3200000000000       0.145921000000000      -3.626100000000000E-002        
  0.000000000000000E+000  0.000000000000000E+000  0.000000000000000E+000        
  0.000000000000000E+000  0.000000000000000E+000  0.000000000000000E+000        
  0.000000000000000E+000                                                        
   26.9700000000000       0.305258000000000      -8.299200000000000E-002        
  0.000000000000000E+000  0.000000000000000E+000  0.000000000000000E+000        
  0.000000000000000E+000  0.000000000000000E+000  0.000000000000000E+000        
  0.000000000000000E+000                                                        
   11.1000000000000       0.398508000000000      -0.152090000000000             
  0.000000000000000E+000  0.000000000000000E+000  0.000000000000000E+000        
  0.000000000000000E+000  0.000000000000000E+000  0.000000000000000E+000        
  0.000000000000000E+000                                                        
   4.68200000000000       0.216980000000000      -0.115331000000000             
  0.000000000000000E+000  0.000000000000000E+000  0.000000000000000E+000        
  0.000000000000000E+000  0.000000000000000E+000  0.000000000000000E+000        
  0.000000000000000E+000                                                        
   1.42800000000000       1.759400000000000E-002  0.288979000000000             
   1.00000000000000       0.000000000000000E+000  0.000000000000000E+000        
  0.000000000000000E+000  0.000000000000000E+000  0.000000000000000E+000        
  0.000000000000000E+000                                                        
  0.554700000000000      -2.502000000000000E-003  0.586128000000000             
  0.000000000000000E+000   1.00000000000000       0.000000000000000E+000        
  0.000000000000000E+000  0.000000000000000E+000  0.000000000000000E+000        
  0.000000000000000E+000                                                        
  0.206700000000000       9.540000000000000E-004  0.277624000000000             
  0.000000000000000E+000  0.000000000000000E+000   1.00000000000000             
  0.000000000000000E+000  0.000000000000000E+000  0.000000000000000E+000        
  0.000000000000000E+000                                                        
   12.9740000000000       0.000000000000000E+000  0.000000000000000E+000        
  0.000000000000000E+000  0.000000000000000E+000  0.000000000000000E+000        
   1.00000000000000       0.000000000000000E+000  0.000000000000000E+000        
  0.000000000000000E+000                                                        
   34.9000000000000       0.000000000000000E+000  0.000000000000000E+000        
  0.000000000000000E+000  0.000000000000000E+000  0.000000000000000E+000        
  0.000000000000000E+000   1.00000000000000       0.000000000000000E+000        
  0.000000000000000E+000                                                        
   93.8810000000000       0.000000000000000E+000  0.000000000000000E+000        
  0.000000000000000E+000  0.000000000000000E+000  0.000000000000000E+000        
  0.000000000000000E+000  0.000000000000000E+000   1.00000000000000             
  0.000000000000000E+000                                                        
  6.959000000000000E-002  0.000000000000000E+000  0.000000000000000E+000        
  0.000000000000000E+000  0.000000000000000E+000  0.000000000000000E+000        
  0.000000000000000E+000  0.000000000000000E+000  0.000000000000000E+000        
   1.00000000000000                                                             
   10    8                                                                      
   63.4200000000000       6.044000000000000E-003  0.000000000000000E+000        
  0.000000000000000E+000  0.000000000000000E+000  0.000000000000000E+000        
  0.000000000000000E+000  0.000000000000000E+000  0.000000000000000E+000        
   14.6600000000000       4.179900000000000E-002  0.000000000000000E+000        
  0.000000000000000E+000  0.000000000000000E+000  0.000000000000000E+000        
  0.000000000000000E+000  0.000000000000000E+000  0.000000000000000E+000        
   4.45900000000000       0.161143000000000       0.000000000000000E+000        
  0.000000000000000E+000  0.000000000000000E+000  0.000000000000000E+000        
  0.000000000000000E+000  0.000000000000000E+000  0.000000000000000E+000        
   1.53100000000000       0.356731000000000        1.00000000000000             
  0.000000000000000E+000  0.000000000000000E+000  0.000000000000000E+000        
  0.000000000000000E+000  0.000000000000000E+000  0.000000000000000E+000        
  0.530200000000000       0.448309000000000       0.000000000000000E+000        
   1.00000000000000       0.000000000000000E+000  0.000000000000000E+000        
  0.000000000000000E+000  0.000000000000000E+000  0.000000000000000E+000        
  0.175000000000000       0.244940000000000       0.000000000000000E+000        
  0.000000000000000E+000   1.00000000000000       0.000000000000000E+000        
  0.000000000000000E+000  0.000000000000000E+000  0.000000000000000E+000        
   14.4750000000000       0.000000000000000E+000  0.000000000000000E+000        
  0.000000000000000E+000  0.000000000000000E+000   1.00000000000000             
  0.000000000000000E+000  0.000000000000000E+000  0.000000000000000E+000        
   42.7300000000000       0.000000000000000E+000  0.000000000000000E+000        
  0.000000000000000E+000  0.000000000000000E+000  0.000000000000000E+000        
   1.00000000000000       0.000000000000000E+000  0.000000000000000E+000        
   126.140000000000       0.000000000000000E+000  0.000000000000000E+000        
  0.000000000000000E+000  0.000000000000000E+000  0.000000000000000E+000        
  0.000000000000000E+000   1.00000000000000       0.000000000000000E+000        
  5.348000000000000E-002  0.000000000000000E+000  0.000000000000000E+000        
  0.000000000000000E+000  0.000000000000000E+000  0.000000000000000E+000        
  0.000000000000000E+000  0.000000000000000E+000   1.00000000000000             
    6    6                                                                      
   3.77500000000000        1.00000000000000       0.000000000000000E+000        
  0.000000000000000E+000  0.000000000000000E+000  0.000000000000000E+000        
  0.000000000000000E+000                                                        
   1.30000000000000       0.000000000000000E+000   1.00000000000000             
  0.000000000000000E+000  0.000000000000000E+000  0.000000000000000E+000        
  0.000000000000000E+000                                                        
  0.444000000000000       0.000000000000000E+000  0.000000000000000E+000        
   1.00000000000000       0.000000000000000E+000  0.000000000000000E+000        
  0.000000000000000E+000                                                        
   14.9270000000000       0.000000000000000E+000  0.000000000000000E+000        
  0.000000000000000E+000   1.00000000000000       0.000000000000000E+000        
  0.000000000000000E+000                                                        
   57.5440000000000       0.000000000000000E+000  0.000000000000000E+000        
  0.000000000000000E+000  0.000000000000000E+000   1.00000000000000             
  0.000000000000000E+000                                                        
  0.154000000000000       0.000000000000000E+000  0.000000000000000E+000        
  0.000000000000000E+000  0.000000000000000E+000  0.000000000000000E+000        
   1.00000000000000                                                             
    4    4                                                                      
   2.66600000000000        1.00000000000000       0.000000000000000E+000        
  0.000000000000000E+000  0.000000000000000E+000                                
  0.859000000000000       0.000000000000000E+000   1.00000000000000             
  0.000000000000000E+000  0.000000000000000E+000                                
   26.4830000000000       0.000000000000000E+000  0.000000000000000E+000        
   1.00000000000000       0.000000000000000E+000                                
  0.324000000000000       0.000000000000000E+000  0.000000000000000E+000        
  0.000000000000000E+000   1.00000000000000                                     
    2    2                                                                      
   1.84600000000000        1.00000000000000       0.000000000000000E+000        
  0.714000000000000       0.000000000000000E+000   1.00000000000000             
FINISH                                                                          
 
********************************************************************************
 ONE- AND TWO-ELECTRON INTEGRALS OVER SYMMETRY-ADAPTED AOS ARE CALCULATED.

  SPHERICAL HARMONICS ARE USED.
  
  INTEGRALS LESS THAN  0.10E-13 ARE NEGLECTED.

  NUCLEAR REPULSION ENERGY :   16.0482466928 A.U.
  @MOLECU-I, ONE ELECTRON INTEGRALS (CPU/WALL):        0.05/       0.08 SECONDS.
  @TWOEL-I,    4439157 INTEGRALS OF SYMMETRY TYPE  I I I I
  @TWOEL-I,   19151769 INTEGRALS OF SYMMETRY TYPE  I J I J
  @TWOEL-I,   10083863 INTEGRALS OF SYMMETRY TYPE  I I J J
  @TWOEL-I,   14156321 INTEGRALS OF SYMMETRY TYPE  I J K L
  @TWOEL-I, TOTAL NUMBER OF 2-E INTEGRALS   47831110.
  @MOLECU-I, TWO ELECTRON INTEGRALS (CPU/WALL):      245.50/      33.57 SECONDS.
 @CHECKOUT-I, Total execution time (CPU/WALL):      245.57/      33.67 seconds.

Running with 14 threads/proc

--executable xvmol finished with status     0 in       33.71 seconds (walltime).
 --invoking executable--
/nfs/workspaces/public/cfour_mpi/bin/xvmol2ja
 @GETMEM-I,  Allocated    3814 MB of main memory.
 @CHECKOUT-I, Total execution time (CPU/WALL):        0.21/       0.13 seconds.
--executable xvmol2ja finished with status     0 in        0.17 seconds (walltime).
 --invoking executable--
/nfs/workspaces/public/cfour_mpi/bin/xvprop
 @GETMEM-I,  Allocated    3814 MB of main memory.
   Property integrals will be calculated.
    --------------------------------------------------------------
                                   Property evaluated at 
    Property type                X             Y             Z
    --------------------------------------------------------------
    Dipole moment               ----          ----          ----  
    Quadrupole moment           ----          ----          ----  
    Octopole moment             ----          ----          ----  
    Relativisitic corr.         ----          ----          ----  
    Second moment            0.0000000     0.0000000     0.0000000
    Electron density         0.0000000     0.0000000     1.6497703
    Electron density         0.0000000     0.0000000    -1.3412106
    Field gradient           0.0000000     0.0000000     1.6497703
    Field gradient           0.0000000     0.0000000    -1.3412106
    Potential                0.0000000     0.0000000     1.6497703
    Potential                0.0000000     0.0000000    -1.3412106
    --------------------------------------------------------------
 @CHECKOUT-I, Total execution time (CPU/WALL):        1.32/       1.37 seconds.
--executable xvprop finished with status     0 in        1.39 seconds (walltime).
 --invoking executable--
/nfs/workspaces/public/cfour_mpi/bin/xvscf
  There are  218 functions in the AO basis.

  There are 4 irreducible representations.

       Irrep        # of functions
         1                 86
         2                 52
         3                 52
         4                 28


  Parameters for SCF calculation: 
        SCF reference function:  RHF  
  Maximum number of iterations:  150
     Full symmetry point group: CXv 
     Computational point group: C2v 
        Initial density matrix: MOREAD                 
     SCF convergence tolerance: 10**(-10)
  DIIS convergence acceleration:  ON
          Latest start for DIIS:   8
                     DIIS order:   6

  Memory information:    2523578 words required.
  Fock matrices are constructed from AO integral file.
 @GETMEM-I,  Allocated      19 MB of main memory.
  Initialization and symmetry analysis required      0.001 seconds.

  Adding electric field perturbation to one-electron Hamiltonian.
  Field direction     : Z
  Field strength      :  0.0002000 a.u.

  @INITGES-I, Occupancies from core Hamiltonian:

          Alpha population by irrep:   5    1    1    0
           Beta population by irrep:   5    1    1    0


 total no. of electrons in initial guess :  0.000000000000000E+000
  --------------------------------------------------------------------
  Iteration         Total Energy            Largest Density Difference
  --------------------------------------------------------------------
       0            16.048412905368352              0.0000000000D+00
   current occupation vector 
     5  1  1  0
     5  1  1  0
       1           -93.569970316918699              0.1754673921D+02
   current occupation vector 
     5  1  1  0
     5  1  1  0
       2           -98.038055664640765              0.1754672118D+02
   current occupation vector 
     5  1  1  0
     5  1  1  0
       3          -100.521336320817667              0.6614161091D+01
   current occupation vector 
     5  1  1  0
     5  1  1  0
       4           -95.456759017802810              0.6609085261D+01
   current occupation vector 
     5  1  1  0
     5  1  1  0
       5          -100.351449027846158              0.6942423728D+01
   current occupation vector 
     5  1  1  0
     5  1  1  0
       6           -95.203597335834658              0.6942955517D+01
   current occupation vector 
     5  1  1  0
     5  1  1  0
       7          -100.339574447570953              0.6961505482D+01
   current occupation vector 
     5  1  1  0
     5  1  1  0
       8           -95.195285578731529              0.6961545946D+01
   current occupation vector 
     5  1  1  0
     5  1  1  0
       9          -107.474554970827924              0.5799862685D+01
   current occupation vector 
     5  1  1  0
     5  1  1  0
      10          -110.458987314256049              0.1312170667D+01
   current occupation vector 
     5  1  1  0
     5  1  1  0
      11          -112.389764706854649              0.1092312114D+01
   current occupation vector 
     5  1  1  0
     5  1  1  0
      12          -112.527549861537508              0.4831488092D+00
   current occupation vector 
     5  1  1  0
     5  1  1  0
      13          -112.540213130583183              0.1265586794D+00
   current occupation vector 
     5  1  1  0
     5  1  1  0
      14          -112.544172550409868              0.7546572328D-01
   current occupation vector 
     5  1  1  0
     5  1  1  0
      15          -112.544450740286450              0.2068653247D-01
   current occupation vector 
     5  1  1  0
     5  1  1  0
      16          -112.544666989444167              0.2675757198D-01
   current occupation vector 
     5  1  1  0
     5  1  1  0
      17          -112.544745241493032              0.1875960112D-01
   current occupation vector 
     5  1  1  0
     5  1  1  0
      18          -112.544760364587788              0.1071173502D-01
   current occupation vector 
     5  1  1  0
     5  1  1  0
      19          -112.544760495636453              0.9359691471D-03
   current occupation vector 
     5  1  1  0
     5  1  1  0
      20          -112.544760496571783              0.4450107662D-04
   current occupation vector 
     5  1  1  0
     5  1  1  0
      21          -112.544760496642468              0.1106346323D-04
   current occupation vector 
     5  1  1  0
     5  1  1  0
      22          -112.544760496643406              0.1794049287D-05
   current occupation vector 
     5  1  1  0
     5  1  1  0
      23          -112.544760496642837              0.4557224693D-06
   current occupation vector 
     5  1  1  0
     5  1  1  0
      24          -112.544760496644116              0.1833706933D-06
   current occupation vector 
     5  1  1  0
     5  1  1  0
      25          -112.544760496641587              0.5161165462D-07
   current occupation vector 
     5  1  1  0
     5  1  1  0
      26          -112.544760496643860              0.1081430256D-07
   current occupation vector 
     5  1  1  0
     5  1  1  0
      27          -112.544760496643633              0.4636433903D-08
   current occupation vector 
     5  1  1  0
     5  1  1  0
      28          -112.544760496643264              0.7753633291D-09
   current occupation vector 
     5  1  1  0
     5  1  1  0

  SCF has converged.

 Density matrix saved to file den.dat
 total electron number:   14.0000000000003     
     E(SCF)=      -112.544760496643320              0.5768585609D-10

  Eigenvector printing suppressed.

 @PUTMOS-I, Writing converged MOs to NEWMOS. 
 @PUTMOS-I, Symmetry   1 Full Blocks 21 Partial Blocksize   2
 @PUTMOS-I, Symmetry   2 Full Blocks 13 Partial Blocksize   0
 @PUTMOS-I, Symmetry   3 Full Blocks 13 Partial Blocksize   0
 @PUTMOS-I, Symmetry   4 Full Blocks  7 Partial Blocksize   0
 @PUTFOCK-I, Writing converged Fock matrix to NEWFOCK. 
 @PUTFOCK-I, Symmetry   1 Full Blocks 21 Partial Blocksize   2
 @PUTFOCK-I, Symmetry   2 Full Blocks 13 Partial Blocksize   0
 @PUTFOCK-I, Symmetry   3 Full Blocks 13 Partial Blocksize   0
 @PUTFOCK-I, Symmetry   4 Full Blocks  7 Partial Blocksize   0


 
  ORBITAL EIGENVALUES (ALPHA)  (1H = 27.2113834 eV)

       MO #        E(hartree)               E(eV)           FULLSYM    COMPSYM
       ----   --------------------   --------------------   -------   ---------
    1     1         -20.6467692853        -561.8271549944     SG+        A1 (1)
    2     2         -11.5188703869        -313.4443984332     SG+        A1 (1)
    3     3          -1.2830683939         -34.9140659936     SG+        A1 (1)
    4     4          -0.8037035121         -21.8698844075     SG+        A1 (1)
    5     5          -0.5340794284         -14.5330400925     SG+        A1 (1)
    6   139          -0.5006318363         -13.6228848403      PI        B2 (3)
    7    87          -0.5006318363         -13.6228848403      PI        B1 (2)
  +++++++++++++++++++++++++++++++++++++++++++++++++++++++++++++++++++++++++++++
    8   140          -0.0034743852          -0.0945428274      PI        B2 (3)
    9    88          -0.0034743852          -0.0945428274      PI        B1 (2)
   10     6           0.0613241768           1.6687156860     SG+        A1 (1)
   11     7           0.0683881510           1.8609361981     SG+        A1 (1)
   12   141           0.0826304834           2.2484897634      PI        B2 (3)
   13    89           0.0826304834           2.2484897634      PI        B1 (2)
   14     8           0.1566468401           4.2625772234     SG+        A1 (1)
   15    90           0.1787446347           4.8638887858      PI        B1 (2)
   16   142           0.1787446347           4.8638887858      PI        B2 (3)
   17     9           0.2016385536           5.4868639912     SG+        A1 (1)
   18    10           0.2225602720           6.0561728902      DE        A1 (1)
   19   191           0.2225602720           6.0561728902      DE        A2 (4)
   20    91           0.2864773374           7.7954446632      PI        B1 (2)
   21   143           0.2864773374           7.7954446632      PI        B2 (3)
   22    11           0.3008717190           8.1871356993     SG+        A1 (1)
   23    12           0.3163759736           8.6090279161     SG+        A1 (1)
   24   144           0.4048185497          11.0156727634      PI        B2 (3)
   25    92           0.4048185497          11.0156727634      PI        B1 (2)
   26    13           0.4229044551          11.5078152700     SG+        A1 (1)
   27    14           0.5131804299          13.9643494308     SG+        A1 (1)
   28   192           0.5497263395          14.9588141890      DE        A2 (4)
   29    15           0.5497263395          14.9588141890      DE        A1 (1)
   30    93           0.6228332473          16.9481542878      PI        B1 (2)
   31   145           0.6228332473          16.9481542878      PI        B2 (3)
   32    16           0.7060177255          19.2117190161     SG+        A1 (1)
   33    94           0.7323822716          19.9291347869      PH        B1 (2)
   34   146           0.7323822716          19.9291347869      PH        B2 (3)
   35   193           0.7397432411          20.1294369525      DE        A2 (4)
   36    17           0.7397432411          20.1294369525      DE        A1 (1)
   37   147           0.7774582113          21.1557134653      PI        B2 (3)
   38    95           0.7774582113          21.1557134653      PI        B1 (2)
   39    18           0.8202908302          22.3212482812     SG+        A1 (1)
   40   194           0.8604181061          23.4131669689      DE        A2 (4)
   41    19           0.8604181061          23.4131669689      DE        A1 (1)
   42    20           0.8830935687          24.0301976762     SG+        A1 (1)
   43    96           0.8857025302          24.1011911289      PI        B1 (2)
   44   148           0.8857025302          24.1011911289      PI        B2 (3)
   45    97           1.0392743995          28.2800941429      PI        B1 (2)
   46   149           1.0392743995          28.2800941430      PI        B2 (3)
   47    21           1.1327379181          30.8233657810     SG+        A1 (1)
   48    22           1.3631650144          37.0936058433     SG+        A1 (1)
   49   150           1.4211303272          38.6709221951      PH        B2 (3)
   50    98           1.4211303272          38.6709221951      PH        B1 (2)
   51    99           1.4924196326          40.6108028170      PI        B1 (2)
   52   151           1.4924196326          40.6108028170      PI        B2 (3)
   53    23           1.5840315603          43.1036901039      DE        A1 (1)
   54   195           1.5840315603          43.1036901039      DE        A2 (4)
   55    24           1.5924748431          43.3334435106     SG+        A1 (1)
   56   100           1.6381762234          44.5770412917      PI        B1 (2)
   57   152           1.6381762234          44.5770412917      PI        B2 (3)
   58    25           1.6790251947          45.6885983117      DE        A1 (1)
   59   196           1.6790251947          45.6885983118      DE        A2 (4)
   60    26           1.9186682084          52.2096162348     SG+        A1 (1)
   61    27           1.9547437624          53.1912819664     SG+        A1 (1)
   62   197           2.0688809581          56.2971129609      PI        A2 (4)
   63    28           2.0688809581          56.2971129609      PI        A1 (1)
   64   101           2.0737417540          56.4293819408      PI        B1 (2)
   65   153           2.0737417540          56.4293819408      PI        B2 (3)
   66    29           2.1271591888          57.8829442395      DE        A1 (1)
   67   198           2.1271591888          57.8829442395      DE        A2 (4)
   68   102           2.2042723181          59.9812991648      PH        B1 (2)
   69   154           2.2042723181          59.9812991648      PH        B2 (3)
   70   103           2.2130585070          60.2203835195      PH        B1 (2)
   71   155           2.2130585070          60.2203835195      PH        B2 (3)
   72    30           2.2222815925          60.4713564355     SG+        A1 (1)
   73   104           2.2254284309          60.5569862637      PI        B1 (2)
   74   156           2.2254284309          60.5569862637      PI        B2 (3)
   75    31           2.2855457923          62.1928628322      DE        A1 (1)
   76   199           2.2855457923          62.1928628322      DE        A2 (4)
   77    32           2.4023703585          65.3718208950     SG+        A1 (1)
   78   105           2.5107804703          68.3218100108      PI        B1 (2)
   79   157           2.5107804703          68.3218100108      PI        B2 (3)
   80   106           2.5943514965          70.5958932462      PI        B1 (2)
   81   158           2.5943514965          70.5958932462      PI        B2 (3)
   82    33           2.6324473166          71.6325332124     SG+        A1 (1)
   83    34           2.6451951660          71.9794198296      DE        A1 (1)
   84   200           2.6451951660          71.9794198296      DE        A2 (4)
   85    35           2.9379943187          79.9468898323     SG+        A1 (1)
   86   107           3.3962549848          92.4167965151      PI        B1 (2)
   87   159           3.3962549848          92.4167965151      PI        B2 (3)
   88   201           3.7084180890         100.9111864286      PI        A2 (4)
   89    36           3.7084180890         100.9111864286      PI        A1 (1)
   90    37           3.8954902644         106.0016791160     SG+        A1 (1)
   91   160           3.9183143448         106.6227539193      PH        B2 (3)
   92   108           3.9183143448         106.6227539193      PH        B1 (2)
   93    38           4.1243197066         112.2284447992     SG+        A1 (1)
   94   109           4.1382857714         112.6084807439      PH        B1 (2)
   95   161           4.1382857714         112.6084807439      PH        B2 (3)
   96   110           4.1566285256         113.1076124618      PI        B1 (2)
   97   162           4.1566285256         113.1076124618      PI        B2 (3)
   98   202           4.1840177497         113.8529111382      DE        A2 (4)
   99    39           4.1840177497         113.8529111382      DE        A1 (1)
  100    40           4.2920943607         116.7938252375      DE        A1 (1)
  101   203           4.2920943607         116.7938252376      DE        A2 (4)
  102    41           4.4069285868         119.9186233929     SG+        A1 (1)
  103   111           4.5375767740         123.4737413033      PI        B1 (2)
  104   163           4.5375767740         123.4737413033      PI        B2 (3)
  105   204           4.6815036566         127.3901908882      DE        A2 (4)
  106    42           4.6815036566         127.3901908882      DE        A1 (1)
  107    43           4.7748548212         129.9304052182     SG+        A1 (1)
  108   164           5.1582670777         140.3635831296      PI        B2 (3)
  109   112           5.1582670777         140.3635831296      PI        B1 (2)
  110    44           5.2256519350         142.1972183181     SG+        A1 (1)
  111   113           5.3440736539         145.4196371148      PI        B1 (2)
  112   165           5.3440736539         145.4196371148      PI        B2 (3)
  113    45           5.8281314805         158.5915202223      PI        A1 (1)
  114   205           5.8281314805         158.5915202223      PI        A2 (4)
  115   166           5.9001326173         160.5507707590      PH        B2 (3)
  116   114           5.9001326173         160.5507707590      PH        B1 (2)
  117    46           6.0412861015         164.3917523364     SG+        A1 (1)
  118    47           6.1021103013         166.0468629570      DE        A1 (1)
  119   206           6.1021103013         166.0468629570      DE        A2 (4)
  120   115           6.1301220613         166.8091016993      PI        B1 (2)
  121   167           6.1301220613         166.8091016993      PI        B2 (3)
  122    48           6.1856447233         168.3199501423     SG+        A1 (1)
  123   207           6.3158517136         171.8630624765      DE        A2 (4)
  124    49           6.3158517136         171.8630624766      DE        A1 (1)
  125   116           6.3547588908         172.9217805932      PH        B1 (2)
  126   168           6.3547588908         172.9217805932      PH        B2 (3)
  127    50           6.4888336295         176.5701397103      DE        A1 (1)
  128   208           6.4888336295         176.5701397103      DE        A2 (4)
  129   117           6.7896987261         184.7570952066      PI        B1 (2)
  130   169           6.7896987261         184.7570952066      PI        B2 (3)
  131    51           7.0953278377         193.0736861400     SG+        A1 (1)
  132   170           7.2576832486         197.4916014736      PI        B2 (3)
  133   118           7.2576832486         197.4916014736      PI        B1 (2)
  134    52           7.8213487830         212.8297204381     SG+        A1 (1)
  135    53           9.5594732357         260.1264913200     SG+        A1 (1)
  136   171           9.7338386124         264.8712144369      PI        B2 (3)
  137   119           9.7338386124         264.8712144370      PI        B1 (2)
  138   209          10.6545694880         289.9255752988      PI        A2 (4)
  139    54          10.6545694880         289.9255752988      PI        A1 (1)
  140    55          10.6836407870         290.7166455620     SG+        A1 (1)
  141   120          10.7372372298         292.1750789165      PH        B1 (2)
  142   172          10.7372372298         292.1750789165      PH        B2 (3)
  143   210          10.9631521692         298.3225369475      DE        A2 (4)
  144    56          10.9631521692         298.3225369475      DE        A1 (1)
  145   121          10.9761169116         298.6753255242      PI        B1 (2)
  146   173          10.9761169116         298.6753255242      PI        B2 (3)
  147    57          11.1611596173         303.7105935341     SG+        A1 (1)
  148   122          11.8917879204         323.5920004139      PH        B1 (2)
  149   174          11.8917879204         323.5920004139      PH        B2 (3)
  150    58          11.9921432671         326.3228082295      DE        A1 (1)
  151   211          11.9921432671         326.3228082295      DE        A2 (4)
  152   175          12.3556252092         336.2136547142      PI        B2 (3)
  153   123          12.3556252092         336.2136547142      PI        B1 (2)
  154    59          12.5912271875         342.6247104756     SG+        A1 (1)
  155   212          12.7285070739         346.3602860981      DE        A2 (4)
  156    60          12.7285070739         346.3602860982      DE        A1 (1)
  157   176          13.1044562054         356.5903820542      PI        B2 (3)
  158   124          13.1044562054         356.5903820543      PI        B1 (2)
  159    61          13.5177936874         367.8378667494     SG+        A1 (1)
  160    62          17.3467094651         472.0279619843     SG+        A1 (1)
  161   125          18.7230801908         509.4809135004      PI        B1 (2)
  162   177          18.7230801908         509.4809135006      PI        B2 (3)
  163    63          19.6791624286         535.4972338343     SG+        A1 (1)
  164    64          26.2593658648         714.5536723889      DE        A1 (1)
  165   213          26.2593658648         714.5536723889      DE        A2 (4)
  166   126          26.5604811008         722.7474345211      PI        B1 (2)
  167   178          26.5604811008         722.7474345211      PI        B2 (3)
  168    65          27.0286749621         735.4876371879     SG+        A1 (1)
  169   179          33.4311928193         909.7090053258      PI        B2 (3)
  170   127          33.4311928193         909.7090053259      PI        B1 (2)
  171    66          34.3177402791         933.8331881562     SG+        A1 (1)
  172    67          35.5889469357         968.4244798690     SG+        A1 (1)
  173   214          47.0735701617        1280.9369656773      DE        A2 (4)
  174    68          47.0735701617        1280.9369656774      DE        A1 (1)
  175   128          47.2619969425        1286.0643190524      PI        B1 (2)
  176   180          47.2619969425        1286.0643190524      PI        B2 (3)
  177    69          47.5008037205        1292.5625818471     SG+        A1 (1)
  178    70          63.7675173363        1735.2023627053     SG+        A1 (1)
  179   129          66.3068230885        1804.3003850984      PI        B1 (2)
  180   181          66.3068230886        1804.3003850986      PI        B2 (3)
  181    71          67.0084533075        1823.3927139918     SG+        A1 (1)
  182   182          98.5103458227        2680.6027890491      PH        B2 (3)
  183   130          98.5103458227        2680.6027890491      PH        B1 (2)
  184   215          98.5239977526        2680.9742769454      DE        A2 (4)
  185    72          98.5239977526        2680.9742769455      DE        A1 (1)
  186   131          98.5371004834        2681.3308203784      PI        B1 (2)
  187   183          98.5371004834        2681.3308203784      PI        B2 (3)
  188    73          98.5474823780        2681.6133260935     SG+        A1 (1)
  189   132         103.3104516518        2811.2203091254      PH        B1 (2)
  190   184         103.3104516518        2811.2203091254      PH        B2 (3)
  191   216         103.3107430121        2811.2282374418      DE        A2 (4)
  192    74         103.3107430122        2811.2282374444      DE        A1 (1)
  193   133         103.3378160904        2811.9649333556      PI        B1 (2)
  194   185         103.3378160904        2811.9649333556      PI        B2 (3)
  195    75         103.3453392825        2812.1696498204     SG+        A1 (1)
  196   217         114.9620332553        3128.2759633546      DE        A2 (4)
  197    76         114.9620332553        3128.2759633546      DE        A1 (1)
  198   186         115.1082262854        3132.2540779467      PI        B2 (3)
  199   134         115.1082262854        3132.2540779467      PI        B1 (2)
  200    77         115.3295907745        3138.2777119311     SG+        A1 (1)
  201   135         116.7341865311        3176.4987055841      PI        B1 (2)
  202   187         116.7341865311        3176.4987055842      PI        B2 (3)
  203    78         117.4510359871        3196.0051709721     SG+        A1 (1)
  204    79         121.8647433180        3316.1082533683     SG+        A1 (1)
  205   218         198.5551688635        5402.9608259968      DE        A2 (4)
  206    80         198.5551688635        5402.9608259970      DE        A1 (1)
  207   136         198.6579519623        5405.7576963039      PI        B1 (2)
  208   188         198.6579519623        5405.7576963040      PI        B2 (3)
  209    81         198.7805361865        5409.0933826291     SG+        A1 (1)
  210    82         216.2920046761        5885.6046655958     SG+        A1 (1)
  211   137         224.7881311952        6116.7960217216      PI        B1 (2)
  212   189         224.7881311952        6116.7960217217      PI        B2 (3)
  213    83         225.3405053508        6131.8268866492     SG+        A1 (1)
  214   138         395.2622704673       10755.6331852404      PI        B1 (2)
  215   190         395.2622704673       10755.6331852407      PI        B2 (3)
  216    84         395.8273767127       10771.0105079446     SG+        A1 (1)
  217    85         508.5963557860       13839.6104331351     SG+        A1 (1)
  218    86         895.1071130672       24357.1028377387     SG+        A1 (1)


  VSCF finished.

 @CHECKOUT-I, Total execution time (CPU/WALL):       51.97/      11.04 seconds.
--executable xvscf finished with status     0 in       11.07 seconds (walltime).
 --invoking executable--
/nfs/workspaces/public/cfour_mpi/bin/xvtran
 @GETMEM-I,  Allocated    3814 MB of main memory.
  Full RHF integral transformation
  Transformation of IIII integrals :
  1 pass through the AO integral file was required.
     4439157 AO integrals were read.
     8591354 MO integrals were written to HF2.
  Transformation of IIJJ integrals :
  1 pass through the AO integral file was required.
    10083863 AO integrals were read.
    14368570 MO integrals were written to HF2.
  Transformation of IJIJ integrals :
  1 pass through the AO integral file was required.
    19151769 AO integrals were read.
    26684106 MO integrals were written to HF2.
  Transformation of IJKL integrals :
  1 pass through the AO integral file was required.
    14156321 AO integrals were read.
    18043825 MO integrals were written to HF2.
  Summary of active molecular orbitals: 
------------------------------------------------------------------------
 
  Index      Eigenvalue    Symmetry    Index      Eigenvalue    Symmetry
------------------------------------------------------------------------
     1       -20.6467693        1       110         4.1382858        2
     2       -11.5188704        1       111         4.1566285        2
     3        -1.2830684        1       112         4.5375768        2
     4        -0.8037035        1       113         5.1582671        2
     5        -0.5340794        1       114         5.3440737        2
     6        -0.5006318        2       115         5.9001326        2
     7        -0.5006318        3       116         6.1301221        2
     8         0.0613242        1       117         6.3547589        2
     9         0.0683882        1       118         6.7896987        2
    10         0.1566468        1       119         7.2576832        2
    11         0.2016386        1       120         9.7338386        2
    12         0.2225603        1       121        10.7372372        2
    13         0.3008717        1       122        10.9761169        2
    14         0.3163760        1       123        11.8917879        2
    15         0.4229045        1       124        12.3556252        2
    16         0.5131804        1       125        13.1044562        2
    17         0.5497263        1       126        18.7230802        2
    18         0.7060177        1       127        26.5604811        2
    19         0.7397432        1       128        33.4311928        2
    20         0.8202908        1       129        47.2619969        2
    21         0.8604181        1       130        66.3068231        2
    22         0.8830936        1       131        98.5103458        2
    23         1.1327379        1       132        98.5371005        2
    24         1.3631650        1       133       103.3104517        2
    25         1.5840316        1       134       103.3378161        2
    26         1.5924748        1       135       115.1082263        2
    27         1.6790252        1       136       116.7341865        2
    28         1.9186682        1       137       198.6579520        2
    29         1.9547438        1       138       224.7881312        2
    30         2.0688810        1       139       395.2622705        2
    31         2.1271592        1       140        -0.0034744        3
    32         2.2222816        1       141         0.0826305        3
    33         2.2855458        1       142         0.1787446        3
    34         2.4023704        1       143         0.2864773        3
    35         2.6324473        1       144         0.4048185        3
    36         2.6451952        1       145         0.6228332        3
    37         2.9379943        1       146         0.7323823        3
    38         3.7084181        1       147         0.7774582        3
    39         3.8954903        1       148         0.8857025        3
    40         4.1243197        1       149         1.0392744        3
    41         4.1840177        1       150         1.4211303        3
    42         4.2920944        1       151         1.4924196        3
    43         4.4069286        1       152         1.6381762        3
    44         4.6815037        1       153         2.0737418        3
    45         4.7748548        1       154         2.2042723        3
    46         5.2256519        1       155         2.2130585        3
    47         5.8281315        1       156         2.2254284        3
    48         6.0412861        1       157         2.5107805        3
    49         6.1021103        1       158         2.5943515        3
    50         6.1856447        1       159         3.3962550        3
    51         6.3158517        1       160         3.9183143        3
    52         6.4888336        1       161         4.1382858        3
    53         7.0953278        1       162         4.1566285        3
    54         7.8213488        1       163         4.5375768        3
    55         9.5594732        1       164         5.1582671        3
    56        10.6545695        1       165         5.3440737        3
    57        10.6836408        1       166         5.9001326        3
    58        10.9631522        1       167         6.1301221        3
    59        11.1611596        1       168         6.3547589        3
    60        11.9921433        1       169         6.7896987        3
    61        12.5912272        1       170         7.2576832        3
    62        12.7285071        1       171         9.7338386        3
    63        13.5177937        1       172        10.7372372        3
    64        17.3467095        1       173        10.9761169        3
    65        19.6791624        1       174        11.8917879        3
    66        26.2593659        1       175        12.3556252        3
    67        27.0286750        1       176        13.1044562        3
    68        34.3177403        1       177        18.7230802        3
    69        35.5889469        1       178        26.5604811        3
    70        47.0735702        1       179        33.4311928        3
    71        47.5008037        1       180        47.2619969        3
    72        63.7675173        1       181        66.3068231        3
    73        67.0084533        1       182        98.5103458        3
    74        98.5239978        1       183        98.5371005        3
    75        98.5474824        1       184       103.3104517        3
    76       103.3107430        1       185       103.3378161        3
    77       103.3453393        1       186       115.1082263        3
    78       114.9620333        1       187       116.7341865        3
    79       115.3295908        1       188       198.6579520        3
    80       117.4510360        1       189       224.7881312        3
    81       121.8647433        1       190       395.2622705        3
    82       198.5551689        1       191         0.2225603        4
    83       198.7805362        1       192         0.5497263        4
    84       216.2920047        1       193         0.7397432        4
    85       225.3405054        1       194         0.8604181        4
    86       395.8273767        1       195         1.5840316        4
    87       508.5963558        1       196         1.6790252        4
    88       895.1071131        1       197         2.0688810        4
    89        -0.0034744        2       198         2.1271592        4
    90         0.0826305        2       199         2.2855458        4
    91         0.1787446        2       200         2.6451952        4
    92         0.2864773        2       201         3.7084181        4
    93         0.4048185        2       202         4.1840177        4
    94         0.6228332        2       203         4.2920944        4
    95         0.7323823        2       204         4.6815037        4
    96         0.7774582        2       205         5.8281315        4
    97         0.8857025        2       206         6.1021103        4
    98         1.0392744        2       207         6.3158517        4
    99         1.4211303        2       208         6.4888336        4
   100         1.4924196        2       209        10.6545695        4
   101         1.6381762        2       210        10.9631522        4
   102         2.0737418        2       211        11.9921433        4
   103         2.2042723        2       212        12.7285071        4
   104         2.2130585        2       213        26.2593659        4
   105         2.2254284        2       214        47.0735702        4
   106         2.5107805        2       215        98.5239978        4
   107         2.5943515        2       216       103.3107430        4
   108         3.3962550        2       217       114.9620333        4
   109         3.9183143        2       218       198.5551689        4
------------------------------------------------------------------------
  -20.6467692853262       -11.5188703869134       -1.28306839385538     
 -0.803703512093951      -0.534079428409724      -0.500631836317016     
 -0.500631836317028       6.132417677748478E-002  6.838815104416746E-002
  0.156646840064438       0.201638553637322       0.222560271971363     
  0.300871718978207       0.316375973597539       0.422904455125424     
  0.513180429877794       0.549726339493783       0.706017725510854     
  0.739743241148812       0.820290830241512       0.860418106080342     
  0.883093568709255        1.13273791809396        1.36316501436179     
   1.58403156025752        1.59247484310656        1.67902519471842     
   1.91866820835126        1.95474376236242        2.06888095813948     
   2.12715918880663        2.22228159247147        2.28554579228811     
   2.40237035854029        2.63244731660373        2.64519516598993     
   2.93799431866763        3.70841808904951        3.89549026441588     
   4.12431970655367        4.18401774965210        4.29209436068395     
   4.40692858684083        4.68150365659759        4.77485482117137     
   5.22565193499581        5.82813148052857        6.04128610147594     
   6.10211030127223        6.18564472331478        6.31585171360874     
   6.48883362947021        7.09532783768783        7.82134878295421     
   9.55947323574892        10.6545694879601        10.6836407869649     
   10.9631521691566        11.1611596172692        11.9921432671273     
[...]
 Convergence information after    13 iterations: 
 Largest element of residual vector : -0.19158924E-05.
 Largest element of DIIS residual   : -0.15032984E-05.
 Convergence information after    14 iterations: 
 Largest element of residual vector : -0.98697751E-06.
 Largest element of DIIS residual   : -0.86048166E-06.
 Convergence information after    15 iterations: 
 Largest element of residual vector : -0.42131306E-06.
 Largest element of DIIS residual   : -0.28709994E-06.
 Convergence information after    16 iterations: 
 Largest element of residual vector : -0.27427167E-06.
 Largest element of DIIS residual   : -0.14020810E-06.
 Convergence information after    17 iterations: 
 Largest element of residual vector : -0.12978919E-06.
 Largest element of DIIS residual   : -0.82734146E-07.
 Perturbed amplitude equations converged in    17 iterations.
  Dominant contributions to perturbed wavefunction:
    7    7  140   45  -0.2350277142 ABAB
    7    7   45  140  -0.2350277142 ABAB
    7    7  140   22  -0.2166242580 ABAB
    7    7   22  140  -0.2166242580 ABAB
    7    7  140   39  -0.2048473869 ABAB
    7    7   39  140  -0.2048473869 ABAB
    7    7  140   28   0.1910573242 ABAB
    7    7   28  140   0.1910573242 ABAB
    7    0   35    0   0.1747829828 AA  
    7    7  140   29  -0.1602895921 ABAB
    7    7   29  140  -0.1602895921 ABAB
    7    7  140   57  -0.1601827505 ABAB
    7    7   57  140  -0.1601827505 ABAB
    7    6   45   89  -0.1467718257 ABAB
    6    7   89   45  -0.1467718257 ABAB
    7    0   39    0   0.1439216631 AA  
    7    7  140   32  -0.1430602324 ABAB
    7    7   32  140  -0.1430602324 ABAB
    7    0   45    0   0.1430192963 AA  
    7    7  140   54   0.1412307746 ABAB
  norm of converged amps    1.67418593524977     
 Starting iterative solution of the perturbed Lambda equations.
 The DIIS procedure is used to accelerate convergence.
 Convergence criterion is 10**(-7).
 Maximum number of iterations is 100.
 Convergence information after     1 iterations: 
 Largest element of residual vector :  0.78020471E-01.
 Largest element of DIIS residual   :  0.78020471E-01.
 Convergence information after     2 iterations: 
 Largest element of residual vector :  0.16301516E-01.
 Largest element of DIIS residual   :  0.12394765E-01.
 Convergence information after     3 iterations: 
 Largest element of residual vector : -0.65279212E-02.
 Largest element of DIIS residual   : -0.62415893E-02.
 Convergence information after     4 iterations: 
 Largest element of residual vector : -0.37936414E-02.
 Largest element of DIIS residual   : -0.34371118E-02.
 Convergence information after     5 iterations: 
 Largest element of residual vector : -0.32649105E-02.
 Largest element of DIIS residual   : -0.25920544E-02.
 Convergence information after     6 iterations: 
 Largest element of residual vector : -0.16884634E-02.
 Largest element of DIIS residual   : -0.75040380E-03.
 Convergence information after     7 iterations: 
 Largest element of residual vector : -0.78478668E-03.
 Largest element of DIIS residual   : -0.38213835E-03.
 Convergence information after     8 iterations: 
 Largest element of residual vector : -0.27222232E-03.
 Largest element of DIIS residual   : -0.17466920E-03.
 Convergence information after     9 iterations: 
 Largest element of residual vector : -0.11703474E-03.
 Largest element of DIIS residual   : -0.59679144E-04.
 Convergence information after    10 iterations: 
 Largest element of residual vector : -0.53217739E-04.
 Largest element of DIIS residual   : -0.24450776E-04.
 Convergence information after    11 iterations: 
 Largest element of residual vector : -0.11588692E-04.
 Largest element of DIIS residual   : -0.56516305E-05.
 Convergence information after    12 iterations: 
 Largest element of residual vector : -0.34684239E-05.
 Largest element of DIIS residual   : -0.21716985E-05.
 Convergence information after    13 iterations: 
 Largest element of residual vector : -0.16947497E-05.
 Largest element of DIIS residual   : -0.14719112E-05.
 Convergence information after    14 iterations: 
 Largest element of residual vector : -0.70098706E-06.
 Largest element of DIIS residual   : -0.55624268E-06.
 Convergence information after    15 iterations: 
 Largest element of residual vector : -0.41150736E-06.
 Largest element of DIIS residual   : -0.19681666E-06.
 Convergence information after    16 iterations: 
 Largest element of residual vector : -0.16895229E-06.
 Largest element of DIIS residual   : -0.94862677E-07.
 Perturbed Lambda equations converged in    16 iterations.
  Dominant contributions to perturbed wavefunction:
    7    7  140   45  -0.1941053121 ABAB
    7    7   45  140  -0.1941053121 ABAB
    7    7  140   22  -0.1783692814 ABAB
    7    7   22  140  -0.1783692814 ABAB
    7    7  140   39  -0.1673518352 ABAB
    7    7   39  140  -0.1673518352 ABAB
    7    7  140   28   0.1600694926 ABAB
    7    7   28  140   0.1600694926 ABAB
    7    7  140   57  -0.1312235142 ABAB
    7    7   57  140  -0.1312235142 ABAB
    7    7  140   29  -0.1290703071 ABAB
    7    7   29  140  -0.1290703071 ABAB
    7    6   45   89  -0.1199389374 ABAB
    6    7   89   45  -0.1199389374 ABAB
    7    7  140   32  -0.1183583705 ABAB
    7    7   32  140  -0.1183583705 ABAB
    7    7  140   54   0.1167564277 ABAB
    7    7   54  140   0.1167564277 ABAB
    7    6   22   89  -0.1093642972 ABAB
    6    7   89   22  -0.1093642972 ABAB
        The DBOC first-order density matrix is being calculated 
             (Symmetry block 3, perturbation   2)
 term   2.95030420517948     
 final tnorm  0.797569221227914     
  norm contr. I: |<0|L dT/dx|0>|^2   0.000000000000000E+000
  norm contr. II: <0|[nabla(1+L)e-T][nabla e^T]|0>   2.95030420517948     
  total norm contribution   2.95030420517948     
 oo  9.175680348319046E-003
 vv  -22.0749730815589     
 vo  6.614236936649949E-002
  Correlated perturbed 1-el contribution to DBOC  -21.9996550318441       cm**-1
  SUM_I |dc_I/dx|^2 contribution to DBOC   11.1070385860331       cm**-1
 
 
  The total diagonal Born-Oppenheimer correction (DBOC) is:      0.0040095503 a.u.
  The total diagonal Born-Oppenheimer correction (DBOC) is:        879.994575 cm-1
 
 Total CC energy including DBOC  -113.086760995849     
 First-order density matrix is being calculated  (Symmetry block 3, perturbation   2)
 Calculation of the contributions of <pq||rs> to dI(i,j)/dx required   3.1 seconds.
 Calculation of the contributions of <pq||rs> to dI(a,b)/dx required  16.6 seconds.
 Calculation of the contributions of <pq||rs> to dI(i,a)/dx required   9.6 seconds.
 First-order Z-vector equations are solved for 1 perturbation.
 Convergence reached after  19 iterations.
        U*G(pq,rs) contribution is being calculated
             (Symmetry block 3, perturbation   2)

 CCSD contribution to force constants 

        0.0000000000        0.0000000000        0.0000000000
        0.0000000000        0.0000000000        0.0000000000
        0.0000000000        0.0000000000        0.0000000000
        0.0000000000        0.0000000000        0.0000000000
        0.0000000000        0.0000000000        0.0000000000
        0.0000000000        0.0000000000        0.0000000000
        0.0000000000        0.0000000000        0.0000000000
        0.0000000000        0.0000000000        0.0000000000
        0.0000000000        0.0000000000        0.0000000000
        0.0000000000        0.0000000000        0.0000000000
        0.0000000000        0.0000000000        0.0000000000
        0.0000000000       -4.2331223041        4.2331223041

 CCSD contribution to dipole derivatives 

        0.0000000000        0.0000000000        0.0000000000
        0.0000000000        0.0000000000        0.0000000000
        0.0000000000        0.0000000000        0.0000000000
        0.0000000000        0.0000000000       -0.0573230798
        0.0000000000        0.0000000000        0.0000000000
        0.0000000000        0.0000000000        0.0000000000
 @CHECKOUT-I, Total execution time (CPU/WALL):     1306.91/     519.49 seconds.
--executable xsdcc finished with status     0 in      519.70 seconds (walltime).
 --invoking executable--
/nfs/workspaces/public/cfour_mpi/bin/xanti
 @GETMEM-I,  Allocated    3814 MB of main memory.
 CCSD MO derivative gammas will be sorted to Mulliken order.
 @CHECKOUT-I, Total execution time (CPU/WALL):       19.19/      35.01 seconds.
--executable xanti finished with status     0 in       35.17 seconds (walltime).
 --invoking executable--
/nfs/workspaces/public/cfour_mpi/bin/xbcktrn
 @GETMEM-I,  Allocated    3814 MB of main memory.
 CCSD MO derivative gammas will be transformed to the AO basis.
 @CHECKOUT-I, Total execution time (CPU/WALL):       31.74/      17.81 seconds.
--executable xbcktrn finished with status     0 in       17.88 seconds (walltime).
 --invoking executable--
/nfs/workspaces/public/cfour_mpi/bin/xvdint
 @GETMEM-I,  Allocated    3814 MB of main memory.
 One- and two-electron integral derivatives are calculated
 for RHF-CC/MBPT hessians and dipole derivatives.
 Spherical gaussians are used.
  magnet F F
                    8722  records have been written to the Sort file.
  Total length of Sort file :             178609116  words.
 Evaluation of 2el integral derivatives

                      Two-electron integral gradient
                      ------------------------------

                         C #1 z     0.0000000000
                         O #2 z     0.0000000000


 C #1       0.0000000000            0.0675495626            0.0000000000
 O #2       0.0000000000           -0.0675495626            0.0000000000


 Evaluation of 2e integral derivatives required  349.75 seconds.
  contribution to Hessian
        0.0000000000        0.0000000000        0.0000000000
        0.0000000000        0.0675495626       -0.0675495626
 @CHECKOUT-I, Total execution time (CPU/WALL):      349.73/      70.12 seconds.
--executable xvdint finished with status     0 in       70.30 seconds (walltime).
 --invoking executable--
/nfs/workspaces/public/cfour_mpi/bin/xanti
 @GETMEM-I,  Allocated    3814 MB of main memory.
 CCSD MO gammas will be sorted to Mulliken order.
 @CHECKOUT-I, Total execution time (CPU/WALL):       16.49/      64.62 seconds.
--executable xanti finished with status     0 in       64.75 seconds (walltime).
 --invoking executable--
/nfs/workspaces/public/cfour_mpi/bin/xbcktrn
 @GETMEM-I,  Allocated    3814 MB of main memory.
 CCSD MO gammas will be transformed to the AO basis.
 @CHECKOUT-I, Total execution time (CPU/WALL):       51.64/       9.87 seconds.
--executable xbcktrn finished with status     0 in        9.93 seconds (walltime).
 --invoking executable--
/nfs/workspaces/public/cfour_mpi/bin/xvdint
 @GETMEM-I,  Allocated    3814 MB of main memory.
 One- and two-electron integral derivatives are calculated
 for RHF-CC/MBPT hessians and dipole derivatives.
 Spherical gaussians are used.
  magnet F F

                     Kinetic energy integral gradient
                     --------------------------------

                         C #1 z    -0.5479080853
                         O #2 z     0.5479080853


 C #1       0.0000000000            0.0000000000           -0.5479080853
 O #2       0.0000000000            0.0000000000            0.5479080853



                   Nuclear attraction integral gradient
                   ------------------------------------

                         C #1 z    13.9136022603
                         O #2 z   -13.9136022603


 C #1       0.0000000000            0.0000000000           13.9136022603
 O #2       0.0000000000            0.0000000000          -13.9136022603



                      Reorthonormalization gradient
                      -----------------------------

                         C #1 z     0.0000000000
                         O #2 z     0.0000000000


 C #1       0.0000000000            0.0000000000            0.0000000000
 O #2       0.0000000000            0.0000000000            0.0000000000



                     Kinetic energy integral Hessian
                     -------------------------------


           Symmetry 1

           C #1 z      O #2 z

 C #1 z    0.575317
 O #2 z   -0.575317    0.575317


           Symmetry 2

           C #1 x      O #2 x

 C #1 x   -0.423384
 O #2 x    0.423384   -0.423384


           Symmetry 3

           C #1 y      O #2 y

 C #1 y   -0.423384
 O #2 y    0.423384   -0.423384




           C #1 x      C #1 y      C #1 z      O #2 x      O #2 y      O #2 z

 C #1 x   -0.423384
 C #1 y    0.000000   -0.423384
 C #1 z    0.000000    0.000000    0.575317

 O #2 x    0.423384    0.000000    0.000000   -0.423384
 O #2 y    0.000000    0.423384    0.000000    0.000000   -0.423384
 O #2 z    0.000000    0.000000   -0.575317    0.000000    0.000000    0.575317




                   Nuclear attraction integral Hessian
                   -----------------------------------


           Symmetry 1

           C #1 z      O #2 z

 C #1 z   -8.474239
 O #2 z    8.474239   -8.474239


           Symmetry 2

           C #1 x      O #2 x

 C #1 x    7.531740
 O #2 x   -7.531740    7.531740


           Symmetry 3

           C #1 y      O #2 y

 C #1 y    7.531740
 O #2 y   -7.531740    7.531740




           C #1 x      C #1 y      C #1 z      O #2 x      O #2 y      O #2 z

 C #1 x    7.531740
 C #1 y    0.000000    7.531740
 C #1 z    0.000000    0.000000   -8.474239

 O #2 x   -7.531740    0.000000    0.000000    7.531740
 O #2 y    0.000000   -7.531740    0.000000    0.000000    7.531740
 O #2 z    0.000000    0.000000    8.474239    0.000000    0.000000   -8.474239




                Highest order reorthonormalization Hessian
                ------------------------------------------


           Symmetry 1

           C #1 z      O #2 z

 C #1 z    0.000000
 O #2 z    0.000000    0.000000


           Symmetry 2

           C #1 x      O #2 x

 C #1 x    0.000000
 O #2 x    0.000000    0.000000


           Symmetry 3

           C #1 y      O #2 y

 C #1 y    0.000000
 O #2 y    0.000000    0.000000




           C #1 x      C #1 y      C #1 z      O #2 x      O #2 y      O #2 z




                Electronic contributions to dipole moment
                -----------------------------------------

                               au             Debye

                    z      1.30397663      3.31437858

  Conversion factor used: 1 a.u. =   2.54174691 Debye 



   Electronic contributions to static part of dipole moment derivatives
   --------------------------------------------------------------------


                     Total dipole moment derivatives
                     -------------------------------


           Symmetry 1
                              Ez

               C #1 z    -5.67640799
               O #2 z    -8.32359201

           Symmetry 2
                              Ex

               C #1 x    -5.67178098
               O #2 x    -8.32821902

           Symmetry 3
                              Ey

               C #1 y    -5.67178098
               O #2 y    -8.32821902



                       Ex          Ey          Ez

      C #1    x   -5.671781    0.000000    0.000000
      C #1    y    0.000000   -5.671781    0.000000
      C #1    z    0.000000    0.000000   -5.676408

      O #2    x   -8.328219    0.000000    0.000000
      O #2    y    0.000000   -8.328219    0.000000
      O #2    z    0.000000    0.000000   -8.323592

 Evaluation of 1e integral derivatives required    1.90 seconds.
                    8815  records have been written to the Sort file.
  Total length of Sort file :             180513570  words.
 Evaluation of 2el integral derivatives

                      Two-electron integral gradient
                      ------------------------------

                         C #1 z    -7.4069088895
                         O #2 z     7.4069088895


 C #1       0.0000000000            0.0000000000           -7.4069088895
 O #2       0.0000000000            0.0000000000            7.4069088895


 Evaluation of 2e integral derivatives required  723.92 seconds.

                            Molecular gradient
                            ------------------

                         C #1 z     0.5932389958
                         O #2 z    -0.5932389958


 C #1       0.0000000000            0.0000000000            0.5932389958
 O #2       0.0000000000            0.0000000000           -0.5932389958


  Molecular gradient norm 0.839E+00

                            Molecular hessian
                            -----------------


           Symmetry 1

           C #1 z      O #2 z

 C #1 z   16.572182
 O #2 z  -16.572182   16.572182


           Symmetry 2

           C #1 x      O #2 x

 C #1 x    4.419712
 O #2 x   -4.419712    4.419712


           Symmetry 3

           C #1 y      O #2 y

 C #1 y    4.419712
 O #2 y   -4.419712    4.419712




           C #1 x      C #1 y      C #1 z      O #2 x      O #2 y      O #2 z

 C #1 x    4.419712
 C #1 y    0.000000    4.419712
 C #1 z    0.000000    0.000000   16.572182

 O #2 x   -4.419712    0.000000    0.000000    4.419712
 O #2 y    0.000000   -4.419712    0.000000    0.000000    4.419712
 O #2 z    0.000000    0.000000  -16.572182    0.000000    0.000000   16.572182




                           Total dipole moment
                           -------------------

                               au             Debye

                    z      0.47291384      1.20202729

  Conversion factor used: 1 a.u. =   2.54174691 Debye 



                     Total dipole moment derivatives
                     -------------------------------


           Symmetry 1
                              Ez

               C #1 z     0.59083538
               O #2 z    -0.59083538

           Symmetry 2
                              Ex

               C #1 x     0.16468943
               O #2 x    -0.16468943

           Symmetry 3
                              Ey

               C #1 y     0.16468943
               O #2 y    -0.16468943



                       Ex          Ey          Ez

      C #1    x    0.164689    0.000000    0.000000
      C #1    y    0.000000    0.164689    0.000000
      C #1    z    0.000000    0.000000    0.590835

      O #2    x   -0.164689    0.000000    0.000000
      O #2    y    0.000000   -0.164689    0.000000
      O #2    z    0.000000    0.000000   -0.590835

 @CHECKOUT-I, Total execution time (CPU/WALL):      725.81/     138.49 seconds.
--executable xvdint finished with status     0 in      138.66 seconds (walltime).
 --invoking executable--
/nfs/workspaces/public/cfour_mpi/bin/xjoda
  @GTFLGS-I, Hessian will be transformed to curvilinear coordinates.
  @GTFLGS-I, Hessian will be transformed to curvilinear coordinates.
  igrd and ihes are                      0                     1
  gradient from JOBARC 
   0.000000000000000   0.000000000000000   0.593238995751324
   0.000000000000000   0.000000000000000  -0.593238995751324
 
  @PROJFCM-I, Projecting force constant matrix onto totally symmetric subspace.
  Largest difference between matrix elements of symmetrized
  and unsymmetrized FCM :    -0.5204725539E-12.
  read isotopes from ZMAT file 
 
  Summary of diagonal Born-Oppenheimer correction at the correlated level
  The total diagonal Born-Oppenheimer correction (DBOC) is:      0.0040095503 a.u.
  The total diagonal Born-Oppenheimer correction (DBOC) is:        879.994575 cm-1
  The total diagonal Born-Oppenheimer correction (DBOC) is:            10.527 kJ/mole
  hellooooooo 
  readis is  F
 
 @CHECKOUT-I, Total execution time (CPU/WALL):        0.03/       0.11 seconds.
--executable xjoda finished with status     0 in        0.17 seconds (walltime).
  The final electronic energy is      -113.086760995849289 a.u. 
  This computation required                         4662.76 seconds (walltime).
