 --invoking executable--
/nfs/workspaces/public/cfour_mpi/bin/xjoda


   *************************************************************************
         <<<     CCCCCC     CCCCCC   |||     CCCCCC     CCCCCC   >>>
       <<<      CCC        CCC       |||    CCC        CCC         >>>
      <<<      CCC        CCC        |||   CCC        CCC            >>>
    <<<        CCC        CCC        |||   CCC        CCC              >>>
      <<<      CCC        CCC        |||   CCC        CCC            >>>
       <<<      CCC        CCC       |||    CCC        CCC         >>>
         <<<     CCCCCC     CCCCCC   |||     CCCCCC     CCCCCC   >>>
   *************************************************************************

     ****************************************************************
     * CFOUR Coupled-Cluster techniques for Computational Chemistry *
     ****************************************************************
 

   Department of Chemistry                Institut fuer Physikalische Chemie
   University of Florida                  Universitaet Mainz
   Gainesville, FL 32611, USA             D-55099 Mainz, Germany

   Department of Chemistry                Fakultaet fuer Chemie und Biowiss.
   Johns Hopkins University               Karlsruher Institut fuer Technologie
   Baltimore, MD 21218, USA               D-76131 Karlsruhe, Germany

   Department of Chemistry                Department of Physical Chemistry
   Southern Methodist University          Eotvos Lorand University
   Dallas, TX 75275, USA                  H-1053 Budapest, Hungary

 
                       Version 2.1
 
                     vincent.theory.phys.ucl.ac.uk                     
                     Wed 26 Feb 17:15:29 GMT 2025                      
                     integer*8 version is running
 
********************************************************************************
*                          Input from ZMAT file                                *
********************************************************************************
Carbon Monoxide DBOC calculation                                                
C                                                                               
O 1 r                                                                           
                                                                                
r=0.993103448275862                                                             
                                                                                
                                                                                
*CFOUR(CALC=CCSD,BASIS=AUG-PCVQZ,SCF_CONV=10                                    
CC_CONV=14,DBOC=ON,MEMORY=500000000                                             
ZFIELD=-200)                                                                    
                                                                                
%isotopes                                                                       
13                                                                              
16                                                                              
********************************************************************************
  @GTFLGS-I, Hessian will be transformed to curvilinear coordinates.
    -------------------------------------------------------------------
                    CFOUR Control Parameters 
    -------------------------------------------------------------------
        External           Internal           Value            Units
          Name               Name
    -------------------------------------------------------------------
       ABCDTYPE             IABCDT         STANDARD    [  0]    ***   
       ANHARMONIC           IANHAR         OFF         [  0]    ***   
       ANH_ALGORIT          IANALG         STANDARD    [  0]    ***   
       ANH_DERIVAT          IANDER         SECOND      [  1]    ***   
       ANH_MODE             ANHMOD         VIBRATION   [  0]    ***   
       ANH_STEPSIZ          ICUBST             50000          x 10-6  
       ANH_SYMMETR          IANHSM         ABELIAN     [  0]    ***   
       AO_LADDERS           IAOLAD         SINGLEPASS  [  1]    ***   
       AV_SCF               IAVSCF         OFF         [  0]    ***   
       BASIS                IBASIS         AUG-PCVQZ   [ 52]    ***   
       BOTHVECTORS          BOTHVC         OFF         [  0]    ***   
       BOX_POTENT           IPIAB          OFF         [  0]    ***   
       BREIT                IBREIT         OFF         [  0]    ***   
       BRUCK_CONV           IBRTOL          10D-  4             ***   
       BRUECKNER            IBRKNR         OFF         [  0]    ***   
       BUFFERSIZE           IBUFFS              4096            ***   
       CACHE_RECS           ICHREC             10               ***   
       CALCLEVEL            ICLLVL         CCSD        [ 10]    ***   
       CCORBOPT             ICCORB         OFF         [  0]  x 0.01  
       CC_CONV              ICCCNV          10D- 14             ***   
       CC_EXPORDER          ICCEOR              5               ***   
       CC_EXTRAPOL          ICCEXT         DIIS        [  1]    ***   
       CC_GUESS             ICCGES         MP2         [  0]    ***   
       CC_MAXCYC            ICCCYC            100              cycles 
       CC_PROGRAM           ICCPRO         VCC         [  0]    ***   
       CHARGE               ICHRGE              0               ***   
       CHOLESKY             ICHOLE         OFF         [  0]    ***   
       CIS_CONV             ICISTL              5               ***   
       COMM_SIZE            IPSIZE            ***               ***   
       CONSTANT             ICONST         OLD         [  1]    ***   
       CONTINUUM            ICONTU         NONE        [  0]    ***   
       CONTRACTION          ICNTYP         GENERAL     [  1]    ***   
       COORDINATES          ICOORD         INTERNAL    [  0]    ***   
       CPHF_CONVER          ICPHFT          10D- 16             ***   
       CPHF_MAXCYC          ICPHFC             64              cycles 
       CUBIC                ICUBIC         OFF         [  0]    ***   
       CURVILINEAR          ICURVY         ON          [  1]    ***   
       DBOC                 IDBOC          ON          [  1]    ***   
       DCT                  IDCT           OFF         [  0]    ***   
       DERIV_LEV            IDRLVL         SECOND      [  2]    ***   
       DEVMEM_SIZE          IDVMEM          50000000           MByte  
       DIAG_MRCC            IEOMST          10D-  0             ***   
       DIFF_TYPE            IDIFTY         RELAXED     [  0]    ***   
       DIRECT               IDIRCT         OFF         [  0]    ***   
       DROPMO               IDRPMO      NONE         
       ECP                  IECP           OFF         [  0]    ***   
       EIGENVECTOR          IVEC                1               ***   
       EL_ANHARM            IELANH         OFF         [  0]    ***   
       EOMFOLLOW            IEOMSR         ENERGY      [  0]    ***   
       EOMIP                IEOMIP         OFF         [  0]    ***   
       EOMLEVEL             HBARFM         SAME        [  0]    ***   
       EOM_MRCC             IMRCCE         NEW         [  1]    ***   
       EOM_NONIT            EOMNON         OFF         [  0]    ***   
       EOM_NSING            IEOMSI          10D-  0             ***   
       EOM_NSTATES          IMRCCD         DAVIDSON    [  0]    ***   
       EOM_NTRIP            IEOMTR          10D-  0             ***   
       EOM_ORDER            IEXORD         ENERGY      [  0]    ***   
       EOM_PROPSTA          IEOMST              0               ***   
       ESTATE_CONV          IEXTOL          10D-  5             ***   
       ESTATE_DIAG          IEXDIG         ITERATIVE   [  0]    ***   
       ESTATE_LOCK          IESLOC         ON          [  1]    ***   
       ESTATE_MAXC          IEXMXC             40               ***   
       ESTATE_PROP          IEXPRP         OFF         [  0]    ***   
       EVAL_HESS            IRECAL              0            # of cyc.
       EXCITATION           IEXCIT              0               ***   
       EXCITE               IEXCIT         NONE        [  0]    ***   
       EXTERN_POT           IEXPOT         OFF         [  0]    ***   
       FCGRADNEW            IFCGNW         OFF         [  0]    ***   
       FC_FIELD             IFINFC              0             x 10-6  
       FD_CALTYPE           IFDCAL         GRADONLY    [  0]    ***   
       FD_PROJECT           IFDPRJ         OFF         [  1]    ***   
       FD_STEPSIZE          IDISFD              0            10-4 bohr
       FD_USEGROUP          IFDGRP         FULL        [  0]    ***   
       FILE_RECSIZ          IFLREC              4096           words  
       FINITE_PERT          IFIPER              0             x 10-6  
       FIXGEOM              IFIXGM         OFF         [  0]    ***   
       FOCK                 IFOCK          AO          [  1]    ***   
       FREQ_ALGORI          IVIALG         STANDARD    [  0]    ***   
       FROZEN_CORE          IFROCO         OFF         [  0]    ***   
       GAMMA_ABCD           IGABCD         STORE       [  0]    ***   
       GAMMA_ABCI           IGABCI         STORE       [  0]    ***   
       GENBAS_1             IGNBS1              0               ***   
       GENBAS_2             IGNBS2              0               ***   
       GENBAS_3             IGNBS3              0               ***   
       GENBAS_4             IGNBS4              0               ***   
       GEO_CONV             ICONTL              5              H/bohr 
       GEO_MAXCYC           IOPTCY             50               ***   
       GEO_MAXSTEP          IMXSTP            300            millibohr
       GEO_METHOD           INR            SINGLE_POINT[  5]    ***   
       GIAO                 IGIAO          OFF         [  1]    ***   
       GIMIC                IGIMIC         OFF         [  0]    ***   
       GRID                 IGRID          OFF         [  0]    ***   
       GRID_ALGO            IGALGO         SERIAL      [  0]    ***   
       GUESS                IGUESS         MOREAD      [  0]    ***   
       HBAR                 IHBAR          OFF         [  0]    ***   
       HESS_TYPE            IHESTP         SCF         [  0]    ***   
       HF2_FILE             IHF2Fl         USE         [  1]    ***   
       HFSTABILITY          ISTABL         OFF         [  0]    ***   
       INCORE               INCORE         OFF         [  0]    ***   
       INPUT_MRCC           IMRCC          ON          [  1]    ***   
       INTEGRALS            INTTYP         VMOL        [  1]    ***   
       JODA_PRINT           IJPRNT              0               ***   
       KEYWORD_OUT          IDMPKW         NO          [  0]    ***   
       LINDEP_TOL           ILINDP              8               ***   
       LINEQ_CONV           IZTACN          10D-  7           cycles  
       LINEQ_EXPOR          ILMAXD              5               ***   
       LINEQ_MAXCY          ILMAXC            100               ***   
       LINEQ_TYPE           ILTYPE         DIIS        [  1]    ***   
       LOCK_ORBOCC          ILOCOC         OFF         [  0]    ***   
       MEMORY_SIZE          IMEMSZ         500000000           words  
       MEM_UNIT             IMEMU          INTEGERWORDS[  0]    ***   
       MRCC                 IMRCCC         OFF         [  0]    ***   
       MULTIPLICTY          IMULTP              1               ***   
       NACOUPLING           IVCOUP         OFF         [  0]    ***   
       NEGEVAL              IDIE           ABORT       [  0]    ***   
       NEWNORM              INEWNO         OFF         [  0]    ***   
       NON-HF               INONHF         OFF         [  0]    ***   
       NTOP_TAMP            ITOPT2             15               ***   
       NUC_MODEL            INUCMO         POINT       [  0]    ***   
       OCCUPATION           IOCCU   ESTIMATED BY SCF 
       OPEN-SHELL           IOPEN          SPIN-ORBITAL[  0]    ***   
       OPTVIB               IOPTVB         OFF         [  0]    ***   
       ORBITALS             IORBTP         STANDARD    [  0]    ***   
       PARALLEL             IPARAL         ON          [  1]    ***   
       PARA_INT             IPINTS         ON          [  1]    ***   
       PARA_PRINT           IPPRIN              0               ***   
       PERT_ORB             IPTORB         STANDARD    [  0]    ***   
       POINTS               IGRDFD              0               ***   
       PRINT                IPRNT               0               ***   
       PROPS                IPROPS         OFF         [  0]    ***   
       PROP_INTEGR          IINTYP         INTERNAL    [  0]    ***   
       PSI                  IPSI           OFF         [  0]    ***   
       QC_ALG               IQCALG         FLM         [  0]    ***   
       QC_LINALG            IQCLIN         TRIDIAG     [  2]    ***   
       QC_MAXCYC            IQCMAX          10D-100           cycles  
       QC_MAXSCFCY          IQCMSC          10D- 15           cycles  
       QC_RTRUST            IQCRTR          10D-  0           x 10-3  
       QC_SKIPSCF           IQCSKI         OFF         [  0]    ***   
       QC_START             IQCSTA          10D-  1             ***   
       QRHFGUESS            IQGUES         OFF         [  0]    ***   
       QUARTIC              IQUART         OFF         [  0]    ***   
       RAMAN_INT            IRAMIN         OFF         [  0]    ***   
       RAMAN_ORB            IRAMRE         UNRELAXED   [  0]    ***   
       RDO                  IRDOFM         ON          [  1]    ***   
       REDUCE_REPR          REDREP         Ir          [  0]    ***   
       REFERENCE            IREFNC         RHF         [  0]    ***   
       RELATIVIST           IRELAT         OFF         [  0]    ***   
       RELAX_DENS           IRDENS         ON          [  1]    ***   
       RESET_FLAGS          IRESET         OFF         [  0]    ***   
       RESTART_CC           ICCRES         OFF         [  0]    ***   
       ROT_EVEC             ROTVEC              0               ***   
       SAVE_INTS            ISVINT         OFF         [  0]    ***   
       SCALE_ON             ISTCRT              0               ***   
       SCF_CONV             ISCFCV          10D- 10             ***   
       SCF_DAMPING          IDAMP               0             x 10-3  
       SCF_EXPORDE          IRPPOR              6               ***   
       SCF_EXPSTAR          IRPPLS              8               ***   
       SCF_EXTRAPO          IRPP           ON          [  1]    ***   
       SCF_MAXCYC           ISCFCY            150              cycles 
       SCF_NOSTOP           ISCFST         OFF         [  0]    ***   
       SCF_PRINT            ISCFPR              0               ***   
       SCF_PROG             ISCFPR         SCF         [  0]    ***   
       SD_FIELD             IFINSD              0             x 10-6  
       SOPERT               IPERSO         OFF         [  0]    ***   
       SPHERICAL            IDFGHI         ON          [  1]    ***   
       SPINORBIT            ISOCAL         OFF         [  0]    ***   
       SPINROTATIO          ISRCON         OFF         [  0]    ***   
       SPIN_FLIP            ISPFLP         OFF         [  0]    ***   
       SPIN_ORBIT           ISPORB         OFF         [  0]    ***   
       SPIN_SCAL            ISCSMP         OFF         [  0]    ***   
       STEEPSCALE           ISTPSC              1000          x 10-3  
       SUBGROUP             ISUBGP         DEFAULT     [  0]    ***   
       SUBGRPAXIS           ISBXYZ         X           [  0]    ***   
       SYMMETRY             ISYM           ON          [  0]    ***   
       SYM_CHECK            ISYMCK         OVERRIDE    [  1]    ***   
       T3_EXTRAPOL          IT3EXT         OFF         [  0]    ***   
       T4_EXTRAPOL          IT4EXP         OFF         [  0]    ***   
       TAMP_SUM             IEVERY              5               ***   
       TESTSUITE            ITESTS         OFF         [  0]    ***   
       THERMOCH             ITHERM         OFF         [  0]    ***   
       TOL_CHOLESK          ITOLCH          10D-  4             ***   
       TRANGRAD             IRESRM         OFF         [  0]    ***   
       TRANS_INV            ITRAIN         IGNORE      [  1]    ***   
       TREAT_PERT           ITREAT         SIMULTANEOUS[  0]    ***   
       TRIP_ALGORI          ITRALG         NORMAL      [  0]    ***   
       UIJ_THRESHO          IUIJTH              1               ***   
       UNITS                IUNITS         ANGSTROM    [  0]    ***   
       UNOS                 IUNOS          OFF         [  0]    ***   
       UPDATE_HESS          IHUPDT         ON          [  1]    ***   
       VIBPHASE             ISETPH         STANDARD    [  0]    ***   
       VIBRATION            IVIB           ANALYTIC    [  1]    ***   
       VIB_ALGORIT          IGEALG         STANDARD    [  0]    ***   
       VNATORB              IVNORB         OFF         [  0]    ***   
       VTRAN                IVTRAN         FULL/PARTIAL[  0]    ***   
       XFIELD               IXEFLD              0             x 10-6  
       XFORM_TOL            IXFTOL          10D- 11             ***   
       YFIELD               IYEFLD              0             x 10-6  
       ZFIELD               IZEFLD            ***             x 10-6  
       ZSCALE_EXP           IZEXPS         OFF         [  0]    ***   
    -------------------------------------------------------------------
   2 entries found in Z-matrix 
   Job Title : Carbon Monoxide DBOC calculation                                                
   There are  1 unique internal coordinates.
   Of these,  0 will be optimized.
   User supplied Z-matrix: 
--------------------------------------------------------------------------------
       SYMBOL    BOND      LENGTH    ANGLE     ANGLE     DIHED     ANGLE
                  TO      (ANGST)    WRT      (DEG)      WRT      (DEG)
--------------------------------------------------------------------------------
        C    
        O          1         r    
                  *Initial values for internal coordinates* 
                      Name             Value
                        r               0.9931034483
--------------------------------------------------------------------------------
  read isotopes from ZMAT file 
   Rotational constants (in cm-1): 
          2.3831002742             2.3831002742
   Rotational constants (in MHz): 
      71443.5588961297         71443.5588961297
********************************************************************************
   The full molecular point group is CXv .
   The largest Abelian subgroup of the full molecular point group is C2v .
   The computational point group is C2v .
********************************************************************************
--------------------------------------------------------------------------------
   Analysis of internal coordinates specified by Z-matrix 
--------------------------------------------------------------------------------
   *The nuclear repulsion energy is   25.576893166666665 a.u.
   *There is   1 degree of freedom within the tot. symm. molecular subspace.
   *Z-matrix requests optimization of   0 coordinates.
   *The optimization is constrained.
   *The following   1 parameters can have non-zero 
    derivatives within the totally symmetric subspace:
             r    [ 1]
   *The following   0 parameters are to be optimized:

   *The following coordinates must be varied in an  unconstrained optimization.
             r    [ 1]
--------------------------------------------------------------------------------


 ----------------------------------------------------------------
         Coordinates used in calculation (QCOMP) 
 ----------------------------------------------------------------
 Z-matrix   Atomic            Coordinates (in bohr)
  Symbol    Number           X              Y              Z
 ----------------------------------------------------------------
     C         6        -0.00000000     0.00000000     1.03515002
     O         8         0.00000000     0.00000000    -0.84154391
 ----------------------------------------------------------------
 
   Interatomic distance matrix (Angstroms) 
 
                 C             O    
                [ 1]        [ 2]
  C    [ 1]     0.00000
  O    [ 2]     0.99310     0.00000
 rotcon2
   Rotational constants (in cm-1): 
          2.3831002742             0.0000000000
   Rotational constants (in MHz): 
      71443.5588961297             0.0000000000
  ECPDATA file not present.   Using default ECPDATA. 
  @GTFLGS-I, Hessian will be transformed to curvilinear coordinates.
  There are  218 basis functions.
 @CHECKOUT-I, Total execution time (CPU/WALL):        0.13/       0.25 seconds.
--executable xjoda finished with status     0 in        0.28 seconds (walltime).
 --invoking executable--
/nfs/workspaces/public/cfour_mpi/bin/xvmol
 SERIAL VERSION OF MOLECULE STARTED
********************************************************************************
                    INPUT FROM MOL FILE
********************************************************************************
INTGRL        1    0    1    0    0    0    0    0    0                         
         *** CFOUR Program System (Release V0.1) ***                            
Carbon Monoxide DBOC calculation                                                
    2    2 X  Y       0.10E-08              0    0                              
   9999.00      3.00                                                            
          6.00000000    1    5    1    1    1    1    1                         
C #1  -0.000000000000000   0.000000000000000   1.035150016318759                
   16    9                                                                      
   33980.0000000000       9.100000000000000E-005 -1.900000000000000E-005        
  0.000000000000000E+000  0.000000000000000E+000  0.000000000000000E+000        
  0.000000000000000E+000  0.000000000000000E+000  0.000000000000000E+000        
  0.000000000000000E+000                                                        
   5089.00000000000       7.040000000000000E-004 -1.510000000000000E-004        
  0.000000000000000E+000  0.000000000000000E+000  0.000000000000000E+000        
  0.000000000000000E+000  0.000000000000000E+000  0.000000000000000E+000        
  0.000000000000000E+000                                                        
   1157.00000000000       3.693000000000000E-003 -7.850000000000000E-004        
  0.000000000000000E+000  0.000000000000000E+000  0.000000000000000E+000        
  0.000000000000000E+000  0.000000000000000E+000  0.000000000000000E+000        
  0.000000000000000E+000                                                        
   326.600000000000       1.536000000000000E-002 -3.324000000000000E-003        
  0.000000000000000E+000  0.000000000000000E+000  0.000000000000000E+000        
  0.000000000000000E+000  0.000000000000000E+000  0.000000000000000E+000        
  0.000000000000000E+000                                                        
   106.100000000000       5.292900000000000E-002 -1.151200000000000E-002        
  0.000000000000000E+000  0.000000000000000E+000  0.000000000000000E+000        
  0.000000000000000E+000  0.000000000000000E+000  0.000000000000000E+000        
  0.000000000000000E+000                                                        
   38.1100000000000       0.147043000000000      -3.416000000000000E-002        
  0.000000000000000E+000  0.000000000000000E+000  0.000000000000000E+000        
  0.000000000000000E+000  0.000000000000000E+000  0.000000000000000E+000        
  0.000000000000000E+000                                                        
   14.7500000000000       0.305631000000000      -7.717300000000001E-002        
  0.000000000000000E+000  0.000000000000000E+000  0.000000000000000E+000        
  0.000000000000000E+000  0.000000000000000E+000  0.000000000000000E+000        
  0.000000000000000E+000                                                        
   6.03500000000000       0.399345000000000      -0.141493000000000             
  0.000000000000000E+000  0.000000000000000E+000  0.000000000000000E+000        
  0.000000000000000E+000  0.000000000000000E+000  0.000000000000000E+000        
  0.000000000000000E+000                                                        
   2.53000000000000       0.217051000000000      -0.118019000000000             
  0.000000000000000E+000  0.000000000000000E+000  0.000000000000000E+000        
  0.000000000000000E+000  0.000000000000000E+000  0.000000000000000E+000        
  0.000000000000000E+000                                                        
  0.735500000000000       1.589400000000000E-002  0.273806000000000             
   1.00000000000000       0.000000000000000E+000  0.000000000000000E+000        
  0.000000000000000E+000  0.000000000000000E+000  0.000000000000000E+000        
  0.000000000000000E+000                                                        
  0.290500000000000      -3.084000000000000E-003  0.586510000000000             
  0.000000000000000E+000   1.00000000000000       0.000000000000000E+000        
  0.000000000000000E+000  0.000000000000000E+000  0.000000000000000E+000        
  0.000000000000000E+000                                                        
  0.111100000000000       9.779999999999999E-004  0.285430000000000             
  0.000000000000000E+000  0.000000000000000E+000   1.00000000000000             
  0.000000000000000E+000  0.000000000000000E+000  0.000000000000000E+000        
  0.000000000000000E+000                                                        
   7.21600000000000       0.000000000000000E+000  0.000000000000000E+000        
  0.000000000000000E+000  0.000000000000000E+000  0.000000000000000E+000        
   1.00000000000000       0.000000000000000E+000  0.000000000000000E+000        
  0.000000000000000E+000                                                        
   19.5700000000000       0.000000000000000E+000  0.000000000000000E+000        
  0.000000000000000E+000  0.000000000000000E+000  0.000000000000000E+000        
  0.000000000000000E+000   1.00000000000000       0.000000000000000E+000        
  0.000000000000000E+000                                                        
   53.0730000000000       0.000000000000000E+000  0.000000000000000E+000        
  0.000000000000000E+000  0.000000000000000E+000  0.000000000000000E+000        
  0.000000000000000E+000  0.000000000000000E+000   1.00000000000000             
  0.000000000000000E+000                                                        
  4.145000000000000E-002  0.000000000000000E+000  0.000000000000000E+000        
  0.000000000000000E+000  0.000000000000000E+000  0.000000000000000E+000        
  0.000000000000000E+000  0.000000000000000E+000  0.000000000000000E+000        
   1.00000000000000                                                             
   10    8                                                                      
   34.5100000000000       5.378000000000000E-003  0.000000000000000E+000        
  0.000000000000000E+000  0.000000000000000E+000  0.000000000000000E+000        
  0.000000000000000E+000  0.000000000000000E+000  0.000000000000000E+000        
   7.91500000000000       3.613200000000000E-002  0.000000000000000E+000        
  0.000000000000000E+000  0.000000000000000E+000  0.000000000000000E+000        
  0.000000000000000E+000  0.000000000000000E+000  0.000000000000000E+000        
   2.36800000000000       0.142493000000000       0.000000000000000E+000        
  0.000000000000000E+000  0.000000000000000E+000  0.000000000000000E+000        
  0.000000000000000E+000  0.000000000000000E+000  0.000000000000000E+000        
  0.813200000000000       0.342150000000000        1.00000000000000             
  0.000000000000000E+000  0.000000000000000E+000  0.000000000000000E+000        
  0.000000000000000E+000  0.000000000000000E+000  0.000000000000000E+000        
  0.289000000000000       0.463864000000000       0.000000000000000E+000        
   1.00000000000000       0.000000000000000E+000  0.000000000000000E+000        
  0.000000000000000E+000  0.000000000000000E+000  0.000000000000000E+000        
  0.100700000000000       0.250028000000000       0.000000000000000E+000        
  0.000000000000000E+000   1.00000000000000       0.000000000000000E+000        
  0.000000000000000E+000  0.000000000000000E+000  0.000000000000000E+000        
   8.18200000000000       0.000000000000000E+000  0.000000000000000E+000        
  0.000000000000000E+000  0.000000000000000E+000   1.00000000000000             
  0.000000000000000E+000  0.000000000000000E+000  0.000000000000000E+000        
   24.1860000000000       0.000000000000000E+000  0.000000000000000E+000        
  0.000000000000000E+000  0.000000000000000E+000  0.000000000000000E+000        
   1.00000000000000       0.000000000000000E+000  0.000000000000000E+000        
   71.4940000000000       0.000000000000000E+000  0.000000000000000E+000        
  0.000000000000000E+000  0.000000000000000E+000  0.000000000000000E+000        
  0.000000000000000E+000   1.00000000000000       0.000000000000000E+000        
  3.218000000000000E-002  0.000000000000000E+000  0.000000000000000E+000        
  0.000000000000000E+000  0.000000000000000E+000  0.000000000000000E+000        
  0.000000000000000E+000  0.000000000000000E+000   1.00000000000000             
    6    6                                                                      
   1.84800000000000        1.00000000000000       0.000000000000000E+000        
  0.000000000000000E+000  0.000000000000000E+000  0.000000000000000E+000        
  0.000000000000000E+000                                                        
  0.649000000000000       0.000000000000000E+000   1.00000000000000             
  0.000000000000000E+000  0.000000000000000E+000  0.000000000000000E+000        
  0.000000000000000E+000                                                        
  0.228000000000000       0.000000000000000E+000  0.000000000000000E+000        
   1.00000000000000       0.000000000000000E+000  0.000000000000000E+000        
  0.000000000000000E+000                                                        
   8.65600000000000       0.000000000000000E+000  0.000000000000000E+000        
  0.000000000000000E+000   1.00000000000000       0.000000000000000E+000        
  0.000000000000000E+000                                                        
   33.2130000000000       0.000000000000000E+000  0.000000000000000E+000        
  0.000000000000000E+000  0.000000000000000E+000   1.00000000000000             
  0.000000000000000E+000                                                        
  7.660000000000000E-002  0.000000000000000E+000  0.000000000000000E+000        
  0.000000000000000E+000  0.000000000000000E+000  0.000000000000000E+000        
   1.00000000000000                                                             
    4    4                                                                      
   1.41900000000000        1.00000000000000       0.000000000000000E+000        
  0.000000000000000E+000  0.000000000000000E+000                                
  0.485000000000000       0.000000000000000E+000   1.00000000000000             
  0.000000000000000E+000  0.000000000000000E+000                                
   24.6940000000000       0.000000000000000E+000  0.000000000000000E+000        
   1.00000000000000       0.000000000000000E+000                                
  0.187000000000000       0.000000000000000E+000  0.000000000000000E+000        
  0.000000000000000E+000   1.00000000000000                                     
    2    2                                                                      
   1.01100000000000        1.00000000000000       0.000000000000000E+000        
  0.424000000000000       0.000000000000000E+000   1.00000000000000             
          8.00000000    1    5    1    1    1    1    1                         
O #2   0.000000000000000   0.000000000000000  -0.841543907654637                
   16    9                                                                      
   61420.0000000000       9.000000000000001E-005 -2.000000000000000E-005        
  0.000000000000000E+000  0.000000000000000E+000  0.000000000000000E+000        
  0.000000000000000E+000  0.000000000000000E+000  0.000000000000000E+000        
  0.000000000000000E+000                                                        
   9199.00000000000       6.980000000000001E-004 -1.590000000000000E-004        
  0.000000000000000E+000  0.000000000000000E+000  0.000000000000000E+000        
  0.000000000000000E+000  0.000000000000000E+000  0.000000000000000E+000        
  0.000000000000000E+000                                                        
   2091.00000000000       3.664000000000000E-003 -8.290000000000000E-004        
  0.000000000000000E+000  0.000000000000000E+000  0.000000000000000E+000        
  0.000000000000000E+000  0.000000000000000E+000  0.000000000000000E+000        
  0.000000000000000E+000                                                        
   590.900000000000       1.521800000000000E-002 -3.508000000000000E-003        
  0.000000000000000E+000  0.000000000000000E+000  0.000000000000000E+000        
  0.000000000000000E+000  0.000000000000000E+000  0.000000000000000E+000        
  0.000000000000000E+000                                                        
   192.300000000000       5.242300000000000E-002 -1.215600000000000E-002        
  0.000000000000000E+000  0.000000000000000E+000  0.000000000000000E+000        
  0.000000000000000E+000  0.000000000000000E+000  0.000000000000000E+000        
  0.000000000000000E+000                                                        
   69.3200000000000       0.145921000000000      -3.626100000000000E-002        
  0.000000000000000E+000  0.000000000000000E+000  0.000000000000000E+000        
  0.000000000000000E+000  0.000000000000000E+000  0.000000000000000E+000        
  0.000000000000000E+000                                                        
   26.9700000000000       0.305258000000000      -8.299200000000000E-002        
  0.000000000000000E+000  0.000000000000000E+000  0.000000000000000E+000        
  0.000000000000000E+000  0.000000000000000E+000  0.000000000000000E+000        
  0.000000000000000E+000                                                        
   11.1000000000000       0.398508000000000      -0.152090000000000             
  0.000000000000000E+000  0.000000000000000E+000  0.000000000000000E+000        
  0.000000000000000E+000  0.000000000000000E+000  0.000000000000000E+000        
  0.000000000000000E+000                                                        
   4.68200000000000       0.216980000000000      -0.115331000000000             
  0.000000000000000E+000  0.000000000000000E+000  0.000000000000000E+000        
  0.000000000000000E+000  0.000000000000000E+000  0.000000000000000E+000        
  0.000000000000000E+000                                                        
   1.42800000000000       1.759400000000000E-002  0.288979000000000             
   1.00000000000000       0.000000000000000E+000  0.000000000000000E+000        
  0.000000000000000E+000  0.000000000000000E+000  0.000000000000000E+000        
  0.000000000000000E+000                                                        
  0.554700000000000      -2.502000000000000E-003  0.586128000000000             
  0.000000000000000E+000   1.00000000000000       0.000000000000000E+000        
  0.000000000000000E+000  0.000000000000000E+000  0.000000000000000E+000        
  0.000000000000000E+000                                                        
  0.206700000000000       9.540000000000000E-004  0.277624000000000             
  0.000000000000000E+000  0.000000000000000E+000   1.00000000000000             
  0.000000000000000E+000  0.000000000000000E+000  0.000000000000000E+000        
  0.000000000000000E+000                                                        
   12.9740000000000       0.000000000000000E+000  0.000000000000000E+000        
  0.000000000000000E+000  0.000000000000000E+000  0.000000000000000E+000        
   1.00000000000000       0.000000000000000E+000  0.000000000000000E+000        
  0.000000000000000E+000                                                        
   34.9000000000000       0.000000000000000E+000  0.000000000000000E+000        
  0.000000000000000E+000  0.000000000000000E+000  0.000000000000000E+000        
  0.000000000000000E+000   1.00000000000000       0.000000000000000E+000        
  0.000000000000000E+000                                                        
   93.8810000000000       0.000000000000000E+000  0.000000000000000E+000        
  0.000000000000000E+000  0.000000000000000E+000  0.000000000000000E+000        
  0.000000000000000E+000  0.000000000000000E+000   1.00000000000000             
  0.000000000000000E+000                                                        
  6.959000000000000E-002  0.000000000000000E+000  0.000000000000000E+000        
  0.000000000000000E+000  0.000000000000000E+000  0.000000000000000E+000        
  0.000000000000000E+000  0.000000000000000E+000  0.000000000000000E+000        
   1.00000000000000                                                             
   10    8                                                                      
   63.4200000000000       6.044000000000000E-003  0.000000000000000E+000        
  0.000000000000000E+000  0.000000000000000E+000  0.000000000000000E+000        
  0.000000000000000E+000  0.000000000000000E+000  0.000000000000000E+000        
   14.6600000000000       4.179900000000000E-002  0.000000000000000E+000        
  0.000000000000000E+000  0.000000000000000E+000  0.000000000000000E+000        
  0.000000000000000E+000  0.000000000000000E+000  0.000000000000000E+000        
   4.45900000000000       0.161143000000000       0.000000000000000E+000        
  0.000000000000000E+000  0.000000000000000E+000  0.000000000000000E+000        
  0.000000000000000E+000  0.000000000000000E+000  0.000000000000000E+000        
   1.53100000000000       0.356731000000000        1.00000000000000             
  0.000000000000000E+000  0.000000000000000E+000  0.000000000000000E+000        
  0.000000000000000E+000  0.000000000000000E+000  0.000000000000000E+000        
  0.530200000000000       0.448309000000000       0.000000000000000E+000        
   1.00000000000000       0.000000000000000E+000  0.000000000000000E+000        
  0.000000000000000E+000  0.000000000000000E+000  0.000000000000000E+000        
  0.175000000000000       0.244940000000000       0.000000000000000E+000        
  0.000000000000000E+000   1.00000000000000       0.000000000000000E+000        
  0.000000000000000E+000  0.000000000000000E+000  0.000000000000000E+000        
   14.4750000000000       0.000000000000000E+000  0.000000000000000E+000        
  0.000000000000000E+000  0.000000000000000E+000   1.00000000000000             
  0.000000000000000E+000  0.000000000000000E+000  0.000000000000000E+000        
   42.7300000000000       0.000000000000000E+000  0.000000000000000E+000        
  0.000000000000000E+000  0.000000000000000E+000  0.000000000000000E+000        
   1.00000000000000       0.000000000000000E+000  0.000000000000000E+000        
   126.140000000000       0.000000000000000E+000  0.000000000000000E+000        
  0.000000000000000E+000  0.000000000000000E+000  0.000000000000000E+000        
  0.000000000000000E+000   1.00000000000000       0.000000000000000E+000        
  5.348000000000000E-002  0.000000000000000E+000  0.000000000000000E+000        
  0.000000000000000E+000  0.000000000000000E+000  0.000000000000000E+000        
  0.000000000000000E+000  0.000000000000000E+000   1.00000000000000             
    6    6                                                                      
   3.77500000000000        1.00000000000000       0.000000000000000E+000        
  0.000000000000000E+000  0.000000000000000E+000  0.000000000000000E+000        
  0.000000000000000E+000                                                        
   1.30000000000000       0.000000000000000E+000   1.00000000000000             
  0.000000000000000E+000  0.000000000000000E+000  0.000000000000000E+000        
  0.000000000000000E+000                                                        
  0.444000000000000       0.000000000000000E+000  0.000000000000000E+000        
   1.00000000000000       0.000000000000000E+000  0.000000000000000E+000        
  0.000000000000000E+000                                                        
   14.9270000000000       0.000000000000000E+000  0.000000000000000E+000        
  0.000000000000000E+000   1.00000000000000       0.000000000000000E+000        
  0.000000000000000E+000                                                        
   57.5440000000000       0.000000000000000E+000  0.000000000000000E+000        
  0.000000000000000E+000  0.000000000000000E+000   1.00000000000000             
  0.000000000000000E+000                                                        
  0.154000000000000       0.000000000000000E+000  0.000000000000000E+000        
  0.000000000000000E+000  0.000000000000000E+000  0.000000000000000E+000        
   1.00000000000000                                                             
    4    4                                                                      
   2.66600000000000        1.00000000000000       0.000000000000000E+000        
  0.000000000000000E+000  0.000000000000000E+000                                
  0.859000000000000       0.000000000000000E+000   1.00000000000000             
  0.000000000000000E+000  0.000000000000000E+000                                
   26.4830000000000       0.000000000000000E+000  0.000000000000000E+000        
   1.00000000000000       0.000000000000000E+000                                
  0.324000000000000       0.000000000000000E+000  0.000000000000000E+000        
  0.000000000000000E+000   1.00000000000000                                     
    2    2                                                                      
   1.84600000000000        1.00000000000000       0.000000000000000E+000        
  0.714000000000000       0.000000000000000E+000   1.00000000000000             
FINISH                                                                          
 
********************************************************************************
 ONE- AND TWO-ELECTRON INTEGRALS OVER SYMMETRY-ADAPTED AOS ARE CALCULATED.

  SPHERICAL HARMONICS ARE USED.
  
  INTEGRALS LESS THAN  0.10E-13 ARE NEGLECTED.

  NUCLEAR REPULSION ENERGY :   25.5768931667 A.U.
  @MOLECU-I, ONE ELECTRON INTEGRALS (CPU/WALL):        0.09/       0.11 SECONDS.
  @TWOEL-I,    4668550 INTEGRALS OF SYMMETRY TYPE  I I I I
  @TWOEL-I,   19975035 INTEGRALS OF SYMMETRY TYPE  I J I J
  @TWOEL-I,   10534114 INTEGRALS OF SYMMETRY TYPE  I I J J
  @TWOEL-I,   14757758 INTEGRALS OF SYMMETRY TYPE  I J K L
  @TWOEL-I, TOTAL NUMBER OF 2-E INTEGRALS   49935457.
  @MOLECU-I, TWO ELECTRON INTEGRALS (CPU/WALL):      201.16/      49.31 SECONDS.
 @CHECKOUT-I, Total execution time (CPU/WALL):      201.26/      49.46 seconds.

Running with 14 threads/proc

--executable xvmol finished with status     0 in       49.50 seconds (walltime).
 --invoking executable--
/nfs/workspaces/public/cfour_mpi/bin/xvmol2ja
 @GETMEM-I,  Allocated    3814 MB of main memory.
 @CHECKOUT-I, Total execution time (CPU/WALL):        0.17/       0.09 seconds.
--executable xvmol2ja finished with status     0 in        0.12 seconds (walltime).
 --invoking executable--
/nfs/workspaces/public/cfour_mpi/bin/xvprop
 @GETMEM-I,  Allocated    3814 MB of main memory.
   Property integrals will be calculated.
    --------------------------------------------------------------
                                   Property evaluated at 
    Property type                X             Y             Z
    --------------------------------------------------------------
    Dipole moment               ----          ----          ----  
    Quadrupole moment           ----          ----          ----  
    Octopole moment             ----          ----          ----  
    Relativisitic corr.         ----          ----          ----  
    Second moment            0.0000000     0.0000000     0.0000000
    Electron density         0.0000000     0.0000000     1.0351500
    Electron density         0.0000000     0.0000000    -0.8415439
    Field gradient           0.0000000     0.0000000     1.0351500
    Field gradient           0.0000000     0.0000000    -0.8415439
    Potential                0.0000000     0.0000000     1.0351500
    Potential                0.0000000     0.0000000    -0.8415439
    --------------------------------------------------------------
 @CHECKOUT-I, Total execution time (CPU/WALL):        1.66/       2.80 seconds.
--executable xvprop finished with status     0 in        2.83 seconds (walltime).
 --invoking executable--
/nfs/workspaces/public/cfour_mpi/bin/xvscf
  There are  218 functions in the AO basis.

  There are 4 irreducible representations.

       Irrep        # of functions
         1                 86
         2                 52
         3                 52
         4                 28


  Parameters for SCF calculation: 
        SCF reference function:  RHF  
  Maximum number of iterations:  150
     Full symmetry point group: CXv 
     Computational point group: C2v 
        Initial density matrix: MOREAD                 
     SCF convergence tolerance: 10**(-10)
  DIIS convergence acceleration:  ON
          Latest start for DIIS:   8
                     DIIS order:   6

  Memory information:    2523578 words required.
  Fock matrices are constructed from AO integral file.
 @GETMEM-I,  Allocated      19 MB of main memory.
  Initialization and symmetry analysis required      0.001 seconds.

  Adding electric field perturbation to one-electron Hamiltonian.
  Field direction     : Z
  Field strength      : -0.0002000 a.u.

  @INITGES-I, Occupancies from core Hamiltonian:

          Alpha population by irrep:   5    1    1    0
           Beta population by irrep:   5    1    1    0


 total no. of electrons in initial guess :  0.000000000000000E+000
  --------------------------------------------------------------------
  Iteration         Total Energy            Largest Density Difference
  --------------------------------------------------------------------
       0            25.576788876434264              0.0000000000D+00
   current occupation vector 
     5  1  1  0
     5  1  1  0
       1           -90.495052781125111              0.1986135304D+02
   current occupation vector 
     5  1  1  0
     5  1  1  0
       2           -93.019803075562677              0.9741604546D+02
   current occupation vector 
     5  1  1  0
     5  1  1  0
       3          -103.453534515680261              0.9740322805D+02
   current occupation vector 
     5  1  1  0
     5  1  1  0
       4          -100.869903699823695              0.1402725915D+02
   current occupation vector 
     5  1  1  0
     5  1  1  0
       5          -105.760541399012865              0.1404934738D+02
   current occupation vector 
     5  1  1  0
     5  1  1  0
       6          -103.132306991698769              0.9276037046D+01
   current occupation vector 
     5  1  1  0
     5  1  1  0
       7          -104.724634253181634              0.9045482068D+01
   current occupation vector 
     5  1  1  0
     5  1  1  0
       8          -102.102881383264318              0.5139349812D+01
   current occupation vector 
     5  1  1  0
     5  1  1  0
       9          -111.708074257424627              0.3367858243D+01
   current occupation vector 
     5  1  1  0
     5  1  1  0
      10          -112.611277313529442              0.8411396551D+00
   current occupation vector 
     5  1  1  0
     5  1  1  0
      11          -112.747900876293855              0.3190015688D+00
   current occupation vector 
     5  1  1  0
     5  1  1  0
      12          -112.749339335368560              0.3183305645D-01
   current occupation vector 
     5  1  1  0
     5  1  1  0
      13          -112.749400999432865              0.1195809289D-01
   current occupation vector 
     5  1  1  0
     5  1  1  0
      14          -112.749404815134980              0.2824461584D-02
   current occupation vector 
     5  1  1  0
     5  1  1  0
      15          -112.749404933493835              0.3723817165D-03
   current occupation vector 
     5  1  1  0
     5  1  1  0
      16          -112.749404936298177              0.4332823659D-04
   current occupation vector 
     5  1  1  0
     5  1  1  0
      17          -112.749404936440229              0.1722439494D-04
   current occupation vector 
     5  1  1  0
     5  1  1  0
      18          -112.749404936452962              0.2408443249D-05
   current occupation vector 
     5  1  1  0
     5  1  1  0
      19          -112.749404936454013              0.5600684563D-06
   current occupation vector 
     5  1  1  0
     5  1  1  0
      20          -112.749404936451796              0.6259769814D-07
   current occupation vector 
     5  1  1  0
     5  1  1  0
      21          -112.749404936453985              0.2267072097D-07
   current occupation vector 
     5  1  1  0
     5  1  1  0
      22          -112.749404936453104              0.4810071230D-08
   current occupation vector 
     5  1  1  0
     5  1  1  0
      23          -112.749404936453871              0.8299699816D-09
   current occupation vector 
     5  1  1  0
     5  1  1  0
      24          -112.749404936452876              0.2299176821D-09
   current occupation vector 
     5  1  1  0
     5  1  1  0
      25          -112.749404936452763              0.1567830865D-09
   current occupation vector 
     5  1  1  0
     5  1  1  0
      26          -112.749404936452763              0.1007753880D-09
   current occupation vector 
     5  1  1  0
     5  1  1  0
      27          -112.749404936453303              0.1169269126D-09
   current occupation vector 
     5  1  1  0
     5  1  1  0
      28          -112.749404936453985              0.2628966975D-09
   current occupation vector 
     5  1  1  0
     5  1  1  0
      29          -112.749404936452621              0.4649658714D-09
   current occupation vector 
     5  1  1  0
     5  1  1  0
      30          -112.749404936452166              0.1546151540D-09
   current occupation vector 
     5  1  1  0
     5  1  1  0
      31          -112.749404936453701              0.4703684109D-09
   current occupation vector 
     5  1  1  0
     5  1  1  0
      32          -112.749404936453132              0.4089726127D-09
   current occupation vector 
     5  1  1  0
     5  1  1  0
      33          -112.749404936452876              0.2630758909D-09
   current occupation vector 
     5  1  1  0
     5  1  1  0

  SCF has converged.

 Density matrix saved to file den.dat
 total electron number:   13.9999999999999     
     E(SCF)=      -112.749404936452848              0.7872083541D-10

  Eigenvector printing suppressed.

 @PUTMOS-I, Writing converged MOs to NEWMOS. 
 @PUTMOS-I, Symmetry   1 Full Blocks 21 Partial Blocksize   2
 @PUTMOS-I, Symmetry   2 Full Blocks 13 Partial Blocksize   0
 @PUTMOS-I, Symmetry   3 Full Blocks 13 Partial Blocksize   0
 @PUTMOS-I, Symmetry   4 Full Blocks  7 Partial Blocksize   0
 @PUTFOCK-I, Writing converged Fock matrix to NEWFOCK. 
 @PUTFOCK-I, Symmetry   1 Full Blocks 21 Partial Blocksize   2
 @PUTFOCK-I, Symmetry   2 Full Blocks 13 Partial Blocksize   0
 @PUTFOCK-I, Symmetry   3 Full Blocks 13 Partial Blocksize   0
 @PUTFOCK-I, Symmetry   4 Full Blocks  7 Partial Blocksize   0


 
  ORBITAL EIGENVALUES (ALPHA)  (1H = 27.2113834 eV)

       MO #        E(hartree)               E(eV)           FULLSYM    COMPSYM
       ----   --------------------   --------------------   -------   ---------
    1     1         -20.6558442190        -562.0740964939     SG+        A1 (1)
    2     2         -11.2983681798        -307.4442283342     SG+        A1 (1)
    3     3          -1.6178959153         -44.0251860529     SG+        A1 (1)
    4     4          -0.8164194448         -22.2159025287     SG+        A1 (1)
    5    87          -0.7064937368         -19.2246719418      PI        B1 (2)
    6   139          -0.7064937368         -19.2246719418      PI        B2 (3)
    7     5          -0.5359976504         -14.5852375673     SG+        A1 (1)
  +++++++++++++++++++++++++++++++++++++++++++++++++++++++++++++++++++++++++++++
    8     6           0.0581340734           1.5819085589     SG+        A1 (1)
    9   140           0.0644538507           1.7538784428      PI        B2 (3)
   10    88           0.0644538507           1.7538784428      PI        B1 (2)
   11     7           0.0756295922           2.0579858295     SG+        A1 (1)
   12   141           0.1550242956           4.2184255437      PI        B2 (3)
   13    89           0.1550242956           4.2184255437      PI        B1 (2)
   14     8           0.1565453562           4.2598157072     SG+        A1 (1)
   15   142           0.1905263037           5.1844842991      PI        B2 (3)
   16    90           0.1905263037           5.1844842991      PI        B1 (2)
   17     9           0.2271373300           6.1807209712     SG+        A1 (1)
   18   191           0.2273603339           6.1867892147      DE        A2 (4)
   19    10           0.2273603339           6.1867892147      DE        A1 (1)
   20    11           0.3019406780           8.2162235532     SG+        A1 (1)
   21   143           0.3372762912           9.1777544726      PI        B2 (3)
   22    91           0.3372762912           9.1777544726      PI        B1 (2)
   23    12           0.3965110417          10.7896139792     SG+        A1 (1)
   24   144           0.4021952948          10.9442903690      PI        B2 (3)
   25    92           0.4021952948          10.9442903691      PI        B1 (2)
   26    13           0.5081341220          13.8270324126     SG+        A1 (1)
   27   192           0.5244454980          14.2708875180      DE        A2 (4)
   28    14           0.5244454980          14.2708875180      DE        A1 (1)
   29   145           0.6189016417          16.8411698594      PI        B2 (3)
   30    93           0.6189016417          16.8411698594      PI        B1 (2)
   31    15           0.6620899178          18.0163825987     SG+        A1 (1)
   32    94           0.7500604945          20.4101836887      PH        B1 (2)
   33   146           0.7500604945          20.4101836887      PH        B2 (3)
   34   193           0.7703970040          20.9635682451      DE        A2 (4)
   35    16           0.7703970040          20.9635682451      DE        A1 (1)
   36    17           0.7891485003          21.4738224017     SG+        A1 (1)
   37   147           0.8407197727          22.8771480657      PI        B2 (3)
   38    95           0.8407197727          22.8771480657      PI        B1 (2)
   39   148           0.8723634762          23.7382170150      PI        B2 (3)
   40    96           0.8723634762          23.7382170151      PI        B1 (2)
   41    18           0.8772110000          23.8701248434     SG+        A1 (1)
   42   194           0.9022650578          24.5518804161      DE        A2 (4)
   43    19           0.9022650578          24.5518804162      DE        A1 (1)
   44    20           0.9555321038          26.0013504267     SG+        A1 (1)
   45   149           1.1124820914          30.2721767135      PI        B2 (3)
   46    97           1.1124820914          30.2721767135      PI        B1 (2)
   47    21           1.3184123416          35.8758237065     SG+        A1 (1)
   48   150           1.4567468657          39.6400974780      PH        B2 (3)
   49    98           1.4567468657          39.6400974780      PH        B1 (2)
   50   195           1.5004204248          40.8285154416      DE        A2 (4)
   51    22           1.5004204248          40.8285154416      DE        A1 (1)
   52   151           1.5321480847          41.6918689578      PI        B2 (3)
   53    99           1.5321480847          41.6918689578      PI        B1 (2)
   54    23           1.5469245835          42.0939579324     SG+        A1 (1)
   55    24           1.6547617487          45.0283563797     SG+        A1 (1)
   56    25           1.7552317295          47.7622835484     SG+        A1 (1)
   57   196           1.7764550080          48.3397983149      DE        A2 (4)
   58    26           1.7764550080          48.3397983150      DE        A1 (1)
   59   152           1.8702199267          50.8912714683      PI        B2 (3)
   60   100           1.8702199267          50.8912714686      PI        B1 (2)
   61   153           1.9678124900          53.5469001248      PI        B2 (3)
   62   101           1.9678124900          53.5469001248      PI        B1 (2)
   63    27           2.1134653409          57.5103156936      PI        A1 (1)
   64   197           2.1134653409          57.5103156936      PI        A2 (4)
   65    28           2.2131703173          60.2234260329     SG+        A1 (1)
   66   198           2.2273562870          60.6094458942      DE        A2 (4)
   67    29           2.2273562870          60.6094458942      DE        A1 (1)
   68   102           2.2615209871          61.5391146460      PH        B1 (2)
   69   154           2.2615209871          61.5391146460      PH        B2 (3)
   70    30           2.3369966185          63.5929109918     SG+        A1 (1)
   71   103           2.3495932598          63.9356830271      PI        B1 (2)
   72   155           2.3495932598          63.9356830271      PI        B2 (3)
   73   199           2.3840523138          64.8733615573      DE        A2 (4)
   74    31           2.3840523138          64.8733615573      DE        A1 (1)
   75   156           2.4150826651          65.7177403432      PH        B2 (3)
   76   104           2.4150826651          65.7177403432      PH        B1 (2)
   77    32           2.5660711176          69.8263450117     SG+        A1 (1)
   78   105           2.6110421141          71.0500680412      PI        B1 (2)
   79   157           2.6110421141          71.0500680412      PI        B2 (3)
   80   158           2.9835224511          81.1857733006      PI        B2 (3)
   81   106           2.9835224511          81.1857733007      PI        B1 (2)
   82   200           3.1170238815          84.8185319056      DE        A2 (4)
   83    33           3.1170238815          84.8185319059      DE        A1 (1)
   84    34           3.1195389825          84.8869712841     SG+        A1 (1)
   85    35           3.3983219702          92.4730420479     SG+        A1 (1)
   86   159           3.7570618782         102.2348512261      PI        B2 (3)
   87   107           3.7570618782         102.2348512264      PI        B1 (2)
   88   201           3.7575151779         102.2471861375      PI        A2 (4)
   89    36           3.7575151779         102.2471861375      PI        A1 (1)
   90    37           3.9902363185         108.5798503206     SG+        A1 (1)
   91   160           4.0676816467         110.6872448363      PH        B2 (3)
   92   108           4.0676816467         110.6872448363      PH        B1 (2)
   93   202           4.1796562445         113.7342285497      DE        A2 (4)
   94    38           4.1796562445         113.7342285497      DE        A1 (1)
   95   161           4.2114776712         114.6001335919      PI        B2 (3)
   96   109           4.2114776712         114.6001335919      PI        B1 (2)
   97    39           4.3241099491         117.6650136885     SG+        A1 (1)
   98   203           4.4422546271         120.8798938195      DE        A2 (4)
   99    40           4.4422546271         120.8798938195      DE        A1 (1)
  100   110           4.4456087952         120.9711653723      PH        B1 (2)
  101   162           4.4456087952         120.9711653723      PH        B2 (3)
  102    41           4.6865590082         127.5277539992     SG+        A1 (1)
  103   163           4.8487532251         131.9412830205      PI        B2 (3)
  104   111           4.8487532251         131.9412830206      PI        B1 (2)
  105    42           5.0343259972         136.9909748705     SG+        A1 (1)
  106   204           5.1996085536         141.4885418814      DE        A2 (4)
  107    43           5.1996085536         141.4885418815      DE        A1 (1)
  108   164           5.3016670520         144.2656948106      PI        B2 (3)
  109   112           5.3016670520         144.2656948107      PI        B1 (2)
  110    44           5.9217663087         161.1394534314      PI        A1 (1)
  111   205           5.9217663087         161.1394534314      PI        A2 (4)
  112   113           5.9639288661         162.2867549468      PI        B1 (2)
  113   165           5.9639288661         162.2867549468      PI        B2 (3)
  114    45           6.1707271776         167.9140230864     SG+        A1 (1)
  115   166           6.2769178743         170.8036188487      PH        B2 (3)
  116   114           6.2769178743         170.8036188487      PH        B1 (2)
  117    46           6.2866602360         171.0687219884     SG+        A1 (1)
  118   206           6.3343790425         172.3672167267      DE        A2 (4)
  119    47           6.3343790425         172.3672167267      DE        A1 (1)
  120   167           6.3811597063         173.6401833052      PI        B2 (3)
  121   115           6.3811597063         173.6401833053      PI        B1 (2)
  122   168           6.4929427430         176.6819543747      PH        B2 (3)
  123   116           6.4929427430         176.6819543747      PH        B1 (2)
  124   207           6.7080301093         182.5347791641      DE        A2 (4)
  125    48           6.7080301093         182.5347791642      DE        A1 (1)
  126    49           7.1373700314         194.2177123920     SG+        A1 (1)
  127   169           7.8459878641         213.5001839231      PI        B2 (3)
  128   117           7.8459878642         213.5001839232      PI        B1 (2)
  129   208           7.9270671736         215.7064640995      DE        A2 (4)
  130    50           7.9270671736         215.7064640996      DE        A1 (1)
  131    51           8.3160360786         226.2908461034     SG+        A1 (1)
  132    52           8.7622722085         238.4335485198     SG+        A1 (1)
  133   170           8.8792479186         241.6166194154      PI        B2 (3)
  134   118           8.8792479186         241.6166194155      PI        B1 (2)
  135    53           9.9164553613         269.8404688052     SG+        A1 (1)
  136   171          10.1530304152         276.2780033005      PI        B2 (3)
  137   119          10.1530304152         276.2780033007      PI        B1 (2)
  138   209          10.6029302128         288.5203991852      PI        A2 (4)
  139    54          10.6029302128         288.5203991852      PI        A1 (1)
  140   172          11.0046213854         299.4509716911      PH        B2 (3)
  141   120          11.0046213854         299.4509716911      PH        B1 (2)
  142   210          11.2989754186         307.4607521427      DE        A2 (4)
  143    55          11.2989754186         307.4607521427      DE        A1 (1)
  144    56          11.3382102489         308.5283861530     SG+        A1 (1)
  145   121          11.4379525393         311.2425118583      PI        B1 (2)
  146   173          11.4379525393         311.2425118583      PI        B2 (3)
  147   174          11.8656725590         322.8813653005      PH        B2 (3)
  148   122          11.8656725590         322.8813653005      PH        B1 (2)
  149   211          12.4298083747         338.2322812714      DE        A2 (4)
  150    57          12.4298083747         338.2322812718      DE        A1 (1)
  151    58          12.5495705679         341.4911762298     SG+        A1 (1)
  152   175          13.0493193780         355.0900327042      PI        B2 (3)
  153   123          13.0493193780         355.0900327042      PI        B1 (2)
  154   212          13.0513555457         355.1454396446      DE        A2 (4)
  155    59          13.0513555457         355.1454396447      DE        A1 (1)
  156    60          13.9763166365         380.3149105154     SG+        A1 (1)
  157   176          14.9592036586         407.0606261137      PI        B2 (3)
  158   124          14.9592036586         407.0606261138      PI        B1 (2)
  159    61          15.7264304895         427.9379295643     SG+        A1 (1)
  160    62          18.6371250158         507.1419542779     SG+        A1 (1)
  161   125          19.6345078673         534.2821214481      PI        B1 (2)
  162   177          19.6345078673         534.2821214483      PI        B2 (3)
  163    63          21.3406476279         580.7085446064     SG+        A1 (1)
  164    64          26.7046464254         726.6703724425      DE        A1 (1)
  165   213          26.7046464254         726.6703724425      DE        A2 (4)
  166   126          27.5676256390         750.1532306893      PI        B1 (2)
  167   178          27.5676256390         750.1532306893      PI        B2 (3)
  168    65          28.8250872451         784.3705005653     SG+        A1 (1)
  169   179          33.9263773523         923.1836615058      PI        B2 (3)
  170   127          33.9263773523         923.1836615065      PI        B1 (2)
  171    66          35.7824213527         973.6891864096     SG+        A1 (1)
  172    67          37.4095981591        1017.9669183474     SG+        A1 (1)
  173    68          47.1877432341        1284.0437729241      DE        A1 (1)
  174   214          47.1877432341        1284.0437729241      DE        A2 (4)
  175   180          48.1019506331        1308.9206209639      PI        B2 (3)
  176   128          48.1019506331        1308.9206209639      PI        B1 (2)
  177    69          48.7769593905        1327.2885430621     SG+        A1 (1)
  178    70          64.7199649515        1761.1197799288     SG+        A1 (1)
  179   129          67.0655042720        1824.9451496610      PI        B1 (2)
  180   181          67.0655042721        1824.9451496612      PI        B2 (3)
  181    71          68.3407042243        1859.6451044731     SG+        A1 (1)
  182   182          98.7479336032        2687.0678812342      PH        B2 (3)
  183   130          98.7479336032        2687.0678812342      PH        B1 (2)
  184    72          98.7896127498        2688.2020284734      DE        A1 (1)
  185   215          98.7896127498        2688.2020284734      DE        A2 (4)
  186   183          98.8589089072        2690.0876727798      PI        B2 (3)
  187   131          98.8589089072        2690.0876727798      PI        B1 (2)
  188    73          98.8954817925        2691.0828715821     SG+        A1 (1)
  189   184         103.2961013150        2810.8298166064      PH        B2 (3)
  190   132         103.2961013150        2810.8298166064      PH        B1 (2)
  191   216         103.3632876294        2812.6580491670      DE        A2 (4)
  192    74         103.3632876294        2812.6580491681      DE        A1 (1)
  193   133         103.4231207209        2814.2861903604      PI        B1 (2)
  194   185         103.4231207209        2814.2861903604      PI        B2 (3)
  195    75         103.5204002271        2816.9333003011     SG+        A1 (1)
  196   217         115.3149353126        3137.8789165374      DE        A2 (4)
  197    76         115.3149353126        3137.8789165374      DE        A1 (1)
  198   134         115.7354548322        3149.3218344125      PI        B1 (2)
  199   186         115.7354548322        3149.3218344125      PI        B2 (3)
  200    77         116.2510046206        3163.3506573674     SG+        A1 (1)
  201   187         117.1584566912        3188.0436835757      PI        B2 (3)
  202   135         117.1584566912        3188.0436835763      PI        B1 (2)
  203    78         118.9141774171        3235.8192733914     SG+        A1 (1)
  204    79         123.2944838065        3355.0134699629     SG+        A1 (1)
  205    80         198.6265288986        5404.9026312716      DE        A1 (1)
  206   218         198.6265288986        5404.9026312716      DE        A2 (4)
  207   188         199.1301391243        5418.6065622062      PI        B2 (3)
  208   136         199.1301391243        5418.6065622063      PI        B1 (2)
  209    81         199.5011286404        5428.7017001665     SG+        A1 (1)
  210    82         217.1415433537        5908.7217882655     SG+        A1 (1)
  211   137         225.4606206594        6135.0953903647      PI        B1 (2)
  212   189         225.4606206594        6135.0953903649      PI        B2 (3)
  213    83         226.4922692758        6163.1679763990     SG+        A1 (1)
  214   190         395.5935679301       10764.6482475198      PI        B2 (3)
  215   138         395.5935679301       10764.6482475207      PI        B1 (2)
  216    84         396.8736412476       10799.4808133428     SG+        A1 (1)
  217    85         509.7302007274       13870.4639225516     SG+        A1 (1)
  218    86         895.9956310339       24381.2806407877     SG+        A1 (1)


  VSCF finished.

 @CHECKOUT-I, Total execution time (CPU/WALL):       43.64/      22.35 seconds.
--executable xvscf finished with status     0 in       22.38 seconds (walltime).
 --invoking executable--
/nfs/workspaces/public/cfour_mpi/bin/xvtran
 @GETMEM-I,  Allocated    3814 MB of main memory.
  Full RHF integral transformation
  Transformation of IIII integrals :
  1 pass through the AO integral file was required.
     4668550 AO integrals were read.
     8885866 MO integrals were written to HF2.
  Transformation of IIJJ integrals :
  1 pass through the AO integral file was required.
    10534114 AO integrals were read.
    14699795 MO integrals were written to HF2.
  Transformation of IJIJ integrals :
  1 pass through the AO integral file was required.
    19975035 AO integrals were read.
    27784972 MO integrals were written to HF2.
  Transformation of IJKL integrals :
  1 pass through the AO integral file was required.
    14757758 AO integrals were read.
    18767406 MO integrals were written to HF2.
  Summary of active molecular orbitals: 
------------------------------------------------------------------------
 
  Index      Eigenvalue    Symmetry    Index      Eigenvalue    Symmetry
------------------------------------------------------------------------
     1       -20.6558442        1       110         4.2114777        2
     2       -11.2983682        1       111         4.4456088        2
     3        -1.6178959        1       112         4.8487532        2
     4        -0.8164194        1       113         5.3016671        2
     5        -0.5359977        1       114         5.9639289        2
     6        -0.7064937        2       115         6.2769179        2
     7        -0.7064937        3       116         6.3811597        2
     8         0.0581341        1       117         6.4929427        2
     9         0.0756296        1       118         7.8459879        2
    10         0.1565454        1       119         8.8792479        2
    11         0.2271373        1       120        10.1530304        2
    12         0.2273603        1       121        11.0046214        2
    13         0.3019407        1       122        11.4379525        2
    14         0.3965110        1       123        11.8656726        2
    15         0.5081341        1       124        13.0493194        2
    16         0.5244455        1       125        14.9592037        2
    17         0.6620899        1       126        19.6345079        2
    18         0.7703970        1       127        27.5676256        2
    19         0.7891485        1       128        33.9263774        2
    20         0.8772110        1       129        48.1019506        2
    21         0.9022651        1       130        67.0655043        2
    22         0.9555321        1       131        98.7479336        2
    23         1.3184123        1       132        98.8589089        2
    24         1.5004204        1       133       103.2961013        2
    25         1.5469246        1       134       103.4231207        2
    26         1.6547617        1       135       115.7354548        2
    27         1.7552317        1       136       117.1584567        2
    28         1.7764550        1       137       199.1301391        2
    29         2.1134653        1       138       225.4606207        2
    30         2.2131703        1       139       395.5935679        2
    31         2.2273563        1       140         0.0644539        3
    32         2.3369966        1       141         0.1550243        3
    33         2.3840523        1       142         0.1905263        3
    34         2.5660711        1       143         0.3372763        3
    35         3.1170239        1       144         0.4021953        3
    36         3.1195390        1       145         0.6189016        3
    37         3.3983220        1       146         0.7500605        3
    38         3.7575152        1       147         0.8407198        3
    39         3.9902363        1       148         0.8723635        3
    40         4.1796562        1       149         1.1124821        3
    41         4.3241099        1       150         1.4567469        3
    42         4.4422546        1       151         1.5321481        3
    43         4.6865590        1       152         1.8702199        3
    44         5.0343260        1       153         1.9678125        3
    45         5.1996086        1       154         2.2615210        3
    46         5.9217663        1       155         2.3495933        3
    47         6.1707272        1       156         2.4150827        3
    48         6.2866602        1       157         2.6110421        3
    49         6.3343790        1       158         2.9835225        3
    50         6.7080301        1       159         3.7570619        3
    51         7.1373700        1       160         4.0676816        3
    52         7.9270672        1       161         4.2114777        3
    53         8.3160361        1       162         4.4456088        3
    54         8.7622722        1       163         4.8487532        3
    55         9.9164554        1       164         5.3016671        3
    56        10.6029302        1       165         5.9639289        3
    57        11.2989754        1       166         6.2769179        3
    58        11.3382102        1       167         6.3811597        3
    59        12.4298084        1       168         6.4929427        3
    60        12.5495706        1       169         7.8459879        3
    61        13.0513555        1       170         8.8792479        3
    62        13.9763166        1       171        10.1530304        3
    63        15.7264305        1       172        11.0046214        3
    64        18.6371250        1       173        11.4379525        3
    65        21.3406476        1       174        11.8656726        3
    66        26.7046464        1       175        13.0493194        3
    67        28.8250872        1       176        14.9592037        3
    68        35.7824214        1       177        19.6345079        3
    69        37.4095982        1       178        27.5676256        3
    70        47.1877432        1       179        33.9263774        3
    71        48.7769594        1       180        48.1019506        3
    72        64.7199650        1       181        67.0655043        3
    73        68.3407042        1       182        98.7479336        3
    74        98.7896127        1       183        98.8589089        3
    75        98.8954818        1       184       103.2961013        3
    76       103.3632876        1       185       103.4231207        3
    77       103.5204002        1       186       115.7354548        3
    78       115.3149353        1       187       117.1584567        3
    79       116.2510046        1       188       199.1301391        3
    80       118.9141774        1       189       225.4606207        3
    81       123.2944838        1       190       395.5935679        3
    82       198.6265289        1       191         0.2273603        4
    83       199.5011286        1       192         0.5244455        4
    84       217.1415434        1       193         0.7703970        4
    85       226.4922693        1       194         0.9022651        4
    86       396.8736412        1       195         1.5004204        4
    87       509.7302007        1       196         1.7764550        4
    88       895.9956310        1       197         2.1134653        4
    89         0.0644539        2       198         2.2273563        4
    90         0.1550243        2       199         2.3840523        4
    91         0.1905263        2       200         3.1170239        4
    92         0.3372763        2       201         3.7575152        4
    93         0.4021953        2       202         4.1796562        4
    94         0.6189016        2       203         4.4422546        4
    95         0.7500605        2       204         5.1996086        4
    96         0.8407198        2       205         5.9217663        4
    97         0.8723635        2       206         6.3343790        4
    98         1.1124821        2       207         6.7080301        4
    99         1.4567469        2       208         7.9270672        4
   100         1.5321481        2       209        10.6029302        4
   101         1.8702199        2       210        11.2989754        4
   102         1.9678125        2       211        12.4298084        4
   103         2.2615210        2       212        13.0513555        4
   104         2.3495933        2       213        26.7046464        4
   105         2.4150827        2       214        47.1877432        4
   106         2.6110421        2       215        98.7896127        4
   107         2.9835225        2       216       103.3632876        4
   108         3.7570619        2       217       115.3149353        4
   109         4.0676816        2       218       198.6265289        4
------------------------------------------------------------------------
  -20.6558442189993       -11.2983681797755       -1.61789591531312     
 -0.816419444838429      -0.535997650428670      -0.706493736799677     
 -0.706493736799646       5.813407336447694E-002  7.562959218941118E-002
  0.156545356204128       0.227137330002673       0.227360333863455     
  0.301940678001851       0.396511041744517       0.508134122009619     
  0.524445497981646       0.662089917807777       0.770397003965987     
  0.789148500318300       0.877210999987671       0.902265057798517     
  0.955532103768715        1.31841234159822        1.50042042484335     
   1.54692458349616        1.65476174870506        1.75523172954247     
   1.77645500798085        2.11346534089193        2.21317031727546     
   2.22735628700850        2.33699661854912        2.38405231382996     
[...]
 Convergence information after     7 iterations: 
 Largest element of residual vector : -0.72250854E-04.
 Largest element of DIIS residual   : -0.31525249E-04.
 Convergence information after     8 iterations: 
 Largest element of residual vector : -0.19162666E-04.
 Largest element of DIIS residual   :  0.13179659E-04.
 Convergence information after     9 iterations: 
 Largest element of residual vector :  0.64453916E-05.
 Largest element of DIIS residual   :  0.31199113E-05.
 Convergence information after    10 iterations: 
 Largest element of residual vector :  0.25116270E-05.
 Largest element of DIIS residual   :  0.14661453E-05.
 Convergence information after    11 iterations: 
 Largest element of residual vector :  0.74512553E-06.
 Largest element of DIIS residual   :  0.39992335E-06.
 Convergence information after    12 iterations: 
 Largest element of residual vector :  0.30977174E-06.
 Largest element of DIIS residual   :  0.20188643E-06.
 Convergence information after    13 iterations: 
 Largest element of residual vector :  0.12944205E-06.
 Largest element of DIIS residual   :  0.10899856E-06.
 Convergence information after    14 iterations: 
 Largest element of residual vector :  0.76905702E-07.
 Largest element of DIIS residual   :  0.55986613E-07.
 Perturbed amplitude equations converged in    14 iterations.
  Dominant contributions to perturbed wavefunction:
    7    7  142   37   0.2618944203 ABAB
    7    7   37  142   0.2618944203 ABAB
    7    7  142   63   0.2121231911 ABAB
    7    7   63  142   0.2121231911 ABAB
    7    7  142   27   0.2021389118 ABAB
    7    7   27  142   0.2021389118 ABAB
    7    6   37   91   0.1789517133 ABAB
    6    7   91   37   0.1789517133 ABAB
    7    7  142   55   0.1711610248 ABAB
    7    7   55  142   0.1711610248 ABAB
    5    5  142   43   0.1695091598 ABAB
    5    5   43  142   0.1695091598 ABAB
    7    7  142   48   0.1605331487 ABAB
    7    7   48  142   0.1605331487 ABAB
    7    7  142   43   0.1570365911 ABAB
    7    7   43  142   0.1570365911 ABAB
    7    7  143   37   0.1539153387 ABAB
    7    7   37  143   0.1539153387 ABAB
    7    6   63   91   0.1438342203 ABAB
    6    7   91   63   0.1438342203 ABAB
  norm of converged amps    2.83703539315588     
 Starting iterative solution of the perturbed Lambda equations.
 The DIIS procedure is used to accelerate convergence.
 Convergence criterion is 10**(-7).
 Maximum number of iterations is 100.
 Convergence information after     1 iterations: 
 Largest element of residual vector : -0.61751411E-01.
 Largest element of DIIS residual   : -0.61751411E-01.
 Convergence information after     2 iterations: 
 Largest element of residual vector :  0.59072453E-02.
 Largest element of DIIS residual   :  0.60674395E-02.
 Convergence information after     3 iterations: 
 Largest element of residual vector : -0.37318843E-02.
 Largest element of DIIS residual   : -0.33269582E-02.
 Convergence information after     4 iterations: 
 Largest element of residual vector : -0.23252825E-02.
 Largest element of DIIS residual   : -0.17523809E-02.
 Convergence information after     5 iterations: 
 Largest element of residual vector : -0.12363253E-02.
 Largest element of DIIS residual   : -0.55288015E-03.
 Convergence information after     6 iterations: 
 Largest element of residual vector : -0.38213012E-03.
 Largest element of DIIS residual   : -0.92071450E-04.
 Convergence information after     7 iterations: 
 Largest element of residual vector : -0.63723830E-04.
 Largest element of DIIS residual   : -0.27563867E-04.
 Convergence information after     8 iterations: 
 Largest element of residual vector : -0.15268579E-04.
 Largest element of DIIS residual   :  0.11356743E-04.
 Convergence information after     9 iterations: 
 Largest element of residual vector :  0.56486247E-05.
 Largest element of DIIS residual   :  0.27167621E-05.
 Convergence information after    10 iterations: 
 Largest element of residual vector :  0.21650670E-05.
 Largest element of DIIS residual   :  0.12875737E-05.
 Convergence information after    11 iterations: 
 Largest element of residual vector :  0.66822753E-06.
 Largest element of DIIS residual   :  0.37839260E-06.
 Convergence information after    12 iterations: 
 Largest element of residual vector :  0.28485161E-06.
 Largest element of DIIS residual   :  0.18675641E-06.
 Convergence information after    13 iterations: 
 Largest element of residual vector :  0.12038627E-06.
 Largest element of DIIS residual   :  0.98962013E-07.
 Perturbed Lambda equations converged in    13 iterations.
  Dominant contributions to perturbed wavefunction:
    7    7  142   37   0.2516754324 ABAB
    7    7   37  142   0.2516754324 ABAB
    7    7  142   63   0.2035874344 ABAB
    7    7   63  142   0.2035874344 ABAB
    7    7  142   27   0.1935448546 ABAB
    7    7   27  142   0.1935448546 ABAB
    7    6   37   91   0.1702075317 ABAB
    6    7   91   37   0.1702075317 ABAB
    7    7  142   55   0.1635178321 ABAB
    7    7   55  142   0.1635178321 ABAB
    5    5  142   43   0.1626407601 ABAB
    5    5   43  142   0.1626407601 ABAB
    7    7  142   48   0.1541830713 ABAB
    7    7   48  142   0.1541830713 ABAB
    7    7  142   43   0.1492564037 ABAB
    7    7   43  142   0.1492564037 ABAB
    7    7  143   37   0.1485918611 ABAB
    7    7   37  143   0.1485918611 ABAB
    5    5  142   54   0.1379813822 ABAB
    5    5   54  142   0.1379813822 ABAB
        The DBOC first-order density matrix is being calculated 
             (Symmetry block 3, perturbation   2)
 term   9.60232403641870     
 final tnorm  0.903102595025791     
  norm contr. I: |<0|L dT/dx|0>|^2   0.000000000000000E+000
  norm contr. II: <0|[nabla(1+L)e-T][nabla e^T]|0>   9.60232403641870     
  total norm contribution   9.60232403641870     
 oo  1.364465287385173E-002
 vv  -72.1371027891451     
 vo  1.861288871665067E-002
  Correlated perturbed 1-el contribution to DBOC  -72.1048452475546       cm**-1
  SUM_I |dc_I/dx|^2 contribution to DBOC   36.1499615534077       cm**-1
 
 
  The total diagonal Born-Oppenheimer correction (DBOC) is:      0.0040240786 a.u.
  The total diagonal Born-Oppenheimer correction (DBOC) is:        883.183176 cm-1
 
 Total CC energy including DBOC  -113.228973895350     
 First-order density matrix is being calculated  (Symmetry block 3, perturbation   2)
 Calculation of the contributions of <pq||rs> to dI(i,j)/dx required   2.5 seconds.
 Calculation of the contributions of <pq||rs> to dI(a,b)/dx required  16.9 seconds.
 Calculation of the contributions of <pq||rs> to dI(i,a)/dx required   9.4 seconds.
 First-order Z-vector equations are solved for 1 perturbation.
 Convergence reached after  17 iterations.
        U*G(pq,rs) contribution is being calculated
             (Symmetry block 3, perturbation   2)

 CCSD contribution to force constants 

        0.0000000000        0.0000000000        0.0000000000
        0.0000000000        0.0000000000        0.0000000000
        0.0000000000        0.0000000000        0.0000000000
        0.0000000000        0.0000000000        0.0000000000
        0.0000000000        0.0000000000        0.0000000000
        0.0000000000        0.0000000000        0.0000000000
        0.0000000000        0.0000000000        0.0000000000
        0.0000000000        0.0000000000        0.0000000000
        0.0000000000        0.0000000000        0.0000000000
        0.0000000000        0.0000000000        0.0000000000
        0.0000000000        0.0000000000        0.0000000000
        0.0000000000      -11.2535915199       11.2535915199

 CCSD contribution to dipole derivatives 

        0.0000000000        0.0000000000        0.0000000000
        0.0000000000        0.0000000000        0.0000000000
        0.0000000000        0.0000000000        0.0000000000
        0.0000000000        0.0000000000       -0.0386090758
        0.0000000000        0.0000000000        0.0000000000
        0.0000000000        0.0000000000        0.0000000000
 @CHECKOUT-I, Total execution time (CPU/WALL):     1239.89/     596.32 seconds.
--executable xsdcc finished with status     0 in      596.51 seconds (walltime).
 --invoking executable--
/nfs/workspaces/public/cfour_mpi/bin/xanti
 @GETMEM-I,  Allocated    3814 MB of main memory.
 CCSD MO derivative gammas will be sorted to Mulliken order.
 @CHECKOUT-I, Total execution time (CPU/WALL):       10.38/      11.47 seconds.
--executable xanti finished with status     0 in       11.54 seconds (walltime).
 --invoking executable--
/nfs/workspaces/public/cfour_mpi/bin/xbcktrn
 @GETMEM-I,  Allocated    3814 MB of main memory.
 CCSD MO derivative gammas will be transformed to the AO basis.
 @CHECKOUT-I, Total execution time (CPU/WALL):       43.07/      11.28 seconds.
--executable xbcktrn finished with status     0 in       11.32 seconds (walltime).
 --invoking executable--
/nfs/workspaces/public/cfour_mpi/bin/xvdint
 @GETMEM-I,  Allocated    3814 MB of main memory.
 One- and two-electron integral derivatives are calculated
 for RHF-CC/MBPT hessians and dipole derivatives.
 Spherical gaussians are used.
  magnet F F
                    8722  records have been written to the Sort file.
  Total length of Sort file :             178609116  words.
 Evaluation of 2el integral derivatives

                      Two-electron integral gradient
                      ------------------------------

                         C #1 z     0.0000000000
                         O #2 z     0.0000000000


 C #1       0.0000000000           -1.4540443920            0.0000000000
 O #2       0.0000000000            1.4540443920            0.0000000000


 Evaluation of 2e integral derivatives required  477.28 seconds.
  contribution to Hessian
        0.0000000000        0.0000000000        0.0000000000
        0.0000000000       -1.4540443920        1.4540443920
 @CHECKOUT-I, Total execution time (CPU/WALL):      477.27/     150.13 seconds.
--executable xvdint finished with status     0 in      150.32 seconds (walltime).
 --invoking executable--
/nfs/workspaces/public/cfour_mpi/bin/xanti
 @GETMEM-I,  Allocated    3814 MB of main memory.
 CCSD MO gammas will be sorted to Mulliken order.
 @CHECKOUT-I, Total execution time (CPU/WALL):       13.21/      57.67 seconds.
--executable xanti finished with status     0 in       57.74 seconds (walltime).
 --invoking executable--
/nfs/workspaces/public/cfour_mpi/bin/xbcktrn
 @GETMEM-I,  Allocated    3814 MB of main memory.
 CCSD MO gammas will be transformed to the AO basis.
 @CHECKOUT-I, Total execution time (CPU/WALL):       60.50/      16.55 seconds.
--executable xbcktrn finished with status     0 in       16.58 seconds (walltime).
 --invoking executable--
/nfs/workspaces/public/cfour_mpi/bin/xvdint
 @GETMEM-I,  Allocated    3814 MB of main memory.
 One- and two-electron integral derivatives are calculated
 for RHF-CC/MBPT hessians and dipole derivatives.
 Spherical gaussians are used.
  magnet F F

                     Kinetic energy integral gradient
                     --------------------------------

                         C #1 z    -1.9014848954
                         O #2 z     1.9014848954


 C #1       0.0000000000            0.0000000000           -1.9014848954
 O #2       0.0000000000            0.0000000000            1.9014848954



                   Nuclear attraction integral gradient
                   ------------------------------------

                         C #1 z    27.1793559222
                         O #2 z   -27.1793559222


 C #1       0.0000000000            0.0000000000           27.1793559222
 O #2       0.0000000000            0.0000000000          -27.1793559222



                      Reorthonormalization gradient
                      -----------------------------

                         C #1 z     0.0000000000
                         O #2 z     0.0000000000


 C #1       0.0000000000            0.0000000000            0.0000000000
 O #2       0.0000000000            0.0000000000            0.0000000000



                     Kinetic energy integral Hessian
                     -------------------------------


           Symmetry 1

           C #1 z      O #2 z

 C #1 z    0.730208
 O #2 z   -0.730208    0.730208


           Symmetry 2

           C #1 x      O #2 x

 C #1 x   -3.246591
 O #2 x    3.246591   -3.246591


           Symmetry 3

           C #1 y      O #2 y

 C #1 y   -3.246591
 O #2 y    3.246591   -3.246591




           C #1 x      C #1 y      C #1 z      O #2 x      O #2 y      O #2 z

 C #1 x   -3.246591
 C #1 y    0.000000   -3.246591
 C #1 z    0.000000    0.000000    0.730208

 O #2 x    3.246591    0.000000    0.000000   -3.246591
 O #2 y    0.000000    3.246591    0.000000    0.000000   -3.246591
 O #2 z    0.000000    0.000000   -0.730208    0.000000    0.000000    0.730208




                   Nuclear attraction integral Hessian
                   -----------------------------------


           Symmetry 1

           C #1 z      O #2 z

 C #1 z  -12.871935
 O #2 z   12.871935  -12.871935


           Symmetry 2

           C #1 x      O #2 x

 C #1 x   29.819976
 O #2 x  -29.819976   29.819976


           Symmetry 3

           C #1 y      O #2 y

 C #1 y   29.819976
 O #2 y  -29.819976   29.819976




           C #1 x      C #1 y      C #1 z      O #2 x      O #2 y      O #2 z

 C #1 x   29.819976
 C #1 y    0.000000   29.819976
 C #1 z    0.000000    0.000000  -12.871935

 O #2 x  -29.819976    0.000000    0.000000   29.819976
 O #2 y    0.000000  -29.819976    0.000000    0.000000   29.819976
 O #2 z    0.000000    0.000000   12.871935    0.000000    0.000000  -12.871935




                Highest order reorthonormalization Hessian
                ------------------------------------------


           Symmetry 1

           C #1 z      O #2 z

 C #1 z    0.000000
 O #2 z    0.000000    0.000000


           Symmetry 2

           C #1 x      O #2 x

 C #1 x    0.000000
 O #2 x    0.000000    0.000000


           Symmetry 3

           C #1 y      O #2 y

 C #1 y    0.000000
 O #2 y    0.000000    0.000000




           C #1 x      C #1 y      C #1 z      O #2 x      O #2 y      O #2 z




                Electronic contributions to dipole moment
                -----------------------------------------

                               au             Debye

                    z      0.29810463      0.75770652

  Conversion factor used: 1 a.u. =   2.54174691 Debye 



   Electronic contributions to static part of dipole moment derivatives
   --------------------------------------------------------------------


                     Total dipole moment derivatives
                     -------------------------------


           Symmetry 1
                              Ez

               C #1 z    -5.82341886
               O #2 z    -8.17658114

           Symmetry 2
                              Ex

               C #1 x    -5.88101124
               O #2 x    -8.11898876

           Symmetry 3
                              Ey

               C #1 y    -5.88101124
               O #2 y    -8.11898876



                       Ex          Ey          Ez

      C #1    x   -5.881011    0.000000    0.000000
      C #1    y    0.000000   -5.881011    0.000000
      C #1    z    0.000000    0.000000   -5.823419

      O #2    x   -8.118989    0.000000    0.000000
      O #2    y    0.000000   -8.118989    0.000000
      O #2    z    0.000000    0.000000   -8.176581

 Evaluation of 1e integral derivatives required    1.08 seconds.
                    8815  records have been written to the Sort file.
  Total length of Sort file :             180513570  words.
 Evaluation of 2el integral derivatives

                      Two-electron integral gradient
                      ------------------------------

                         C #1 z   -11.8536278130
                         O #2 z    11.8536278130


 C #1       0.0000000000            0.0000000000          -11.8536278130
 O #2       0.0000000000            0.0000000000           11.8536278130


 Evaluation of 2e integral derivatives required  780.80 seconds.

                            Molecular gradient
                            ------------------

                         C #1 z    -0.2044539542
                         O #2 z     0.2044539542


 C #1       0.0000000000            0.0000000000           -0.2044539542
 O #2       0.0000000000            0.0000000000            0.2044539542


  Molecular gradient norm 0.289E+00

                            Molecular hessian
                            -----------------


           Symmetry 1

           C #1 z      O #2 z

 C #1 z   94.332920
 O #2 z  -94.332920   94.332920


           Symmetry 2

           C #1 x      O #2 x

 C #1 x   12.075714
 O #2 x  -12.075714   12.075714


           Symmetry 3

           C #1 y      O #2 y

 C #1 y   12.075714
 O #2 y  -12.075714   12.075714




           C #1 x      C #1 y      C #1 z      O #2 x      O #2 y      O #2 z

 C #1 x   12.075714
 C #1 y    0.000000   12.075714
 C #1 z    0.000000    0.000000   94.332920

 O #2 x  -12.075714    0.000000    0.000000   12.075714
 O #2 y    0.000000  -12.075714    0.000000    0.000000   12.075714
 O #2 z    0.000000    0.000000  -94.332920    0.000000    0.000000   94.332920




                           Total dipole moment
                           -------------------

                               au             Debye

                    z     -0.22334653     -0.56769036

  Conversion factor used: 1 a.u. =   2.54174691 Debye 



                     Total dipole moment derivatives
                     -------------------------------


           Symmetry 1
                              Ez

               C #1 z     0.66934469
               O #2 z    -0.66934469

           Symmetry 2
                              Ex

               C #1 x    -0.12003922
               O #2 x     0.12003922

           Symmetry 3
                              Ey

               C #1 y    -0.12003922
               O #2 y     0.12003922



                       Ex          Ey          Ez

      C #1    x   -0.120039    0.000000    0.000000
      C #1    y    0.000000   -0.120039    0.000000
      C #1    z    0.000000    0.000000    0.669345

      O #2    x    0.120039    0.000000    0.000000
      O #2    y    0.000000    0.120039    0.000000
      O #2    z    0.000000    0.000000   -0.669345

 @CHECKOUT-I, Total execution time (CPU/WALL):      781.87/     230.81 seconds.
--executable xvdint finished with status     0 in      230.89 seconds (walltime).
 --invoking executable--
/nfs/workspaces/public/cfour_mpi/bin/xjoda
  @GTFLGS-I, Hessian will be transformed to curvilinear coordinates.
  @GTFLGS-I, Hessian will be transformed to curvilinear coordinates.
  igrd and ihes are                      0                     1
  gradient from JOBARC 
   0.000000000000000   0.000000000000000  -0.204453954175880
   0.000000000000000   0.000000000000000   0.204453954175880
 
  @PROJFCM-I, Projecting force constant matrix onto totally symmetric subspace.
  Largest difference between matrix elements of symmetrized
  and unsymmetrized FCM :    -0.2010658307E-10.
  read isotopes from ZMAT file 
 
  Summary of diagonal Born-Oppenheimer correction at the correlated level
  The total diagonal Born-Oppenheimer correction (DBOC) is:      0.0040240786 a.u.
  The total diagonal Born-Oppenheimer correction (DBOC) is:        883.183176 cm-1
  The total diagonal Born-Oppenheimer correction (DBOC) is:            10.565 kJ/mole
  hellooooooo 
  readis is  F
 
 @CHECKOUT-I, Total execution time (CPU/WALL):        0.01/       0.04 seconds.
--executable xjoda finished with status     0 in        0.14 seconds (walltime).
  The final electronic energy is      -113.228973895350350 a.u. 
  This computation required                         5675.13 seconds (walltime).
