 --invoking executable--
/nfs/workspaces/public/cfour_mpi/bin/xjoda


   *************************************************************************
         <<<     CCCCCC     CCCCCC   |||     CCCCCC     CCCCCC   >>>
       <<<      CCC        CCC       |||    CCC        CCC         >>>
      <<<      CCC        CCC        |||   CCC        CCC            >>>
    <<<        CCC        CCC        |||   CCC        CCC              >>>
      <<<      CCC        CCC        |||   CCC        CCC            >>>
       <<<      CCC        CCC       |||    CCC        CCC         >>>
         <<<     CCCCCC     CCCCCC   |||     CCCCCC     CCCCCC   >>>
   *************************************************************************

     ****************************************************************
     * CFOUR Coupled-Cluster techniques for Computational Chemistry *
     ****************************************************************
 

   Department of Chemistry                Institut fuer Physikalische Chemie
   University of Florida                  Universitaet Mainz
   Gainesville, FL 32611, USA             D-55099 Mainz, Germany

   Department of Chemistry                Fakultaet fuer Chemie und Biowiss.
   Johns Hopkins University               Karlsruher Institut fuer Technologie
   Baltimore, MD 21218, USA               D-76131 Karlsruhe, Germany

   Department of Chemistry                Department of Physical Chemistry
   Southern Methodist University          Eotvos Lorand University
   Dallas, TX 75275, USA                  H-1053 Budapest, Hungary

 
                       Version 2.1
 
                     vincent.theory.phys.ucl.ac.uk                     
                     Thu 27 Feb 01:33:17 GMT 2025                      
                     integer*8 version is running
 
********************************************************************************
*                          Input from ZMAT file                                *
********************************************************************************
Carbon Monoxide DBOC calculation                                                
C                                                                               
O 1 r                                                                           
                                                                                
r=1.12825                                                                       
                                                                                
                                                                                
*CFOUR(CALC=CCSD,BASIS=AUG-PCVQZ,SCF_CONV=10                                    
CC_CONV=14,DBOC=ON,MEMORY=500000000                                             
ZFIELD=200)                                                                     
                                                                                
%isotopes                                                                       
13                                                                              
16                                                                              
********************************************************************************
  @GTFLGS-I, Hessian will be transformed to curvilinear coordinates.
    -------------------------------------------------------------------
                    CFOUR Control Parameters 
    -------------------------------------------------------------------
        External           Internal           Value            Units
          Name               Name
    -------------------------------------------------------------------
       ABCDTYPE             IABCDT         STANDARD    [  0]    ***   
       ANHARMONIC           IANHAR         OFF         [  0]    ***   
       ANH_ALGORIT          IANALG         STANDARD    [  0]    ***   
       ANH_DERIVAT          IANDER         SECOND      [  1]    ***   
       ANH_MODE             ANHMOD         VIBRATION   [  0]    ***   
       ANH_STEPSIZ          ICUBST             50000          x 10-6  
       ANH_SYMMETR          IANHSM         ABELIAN     [  0]    ***   
       AO_LADDERS           IAOLAD         SINGLEPASS  [  1]    ***   
       AV_SCF               IAVSCF         OFF         [  0]    ***   
       BASIS                IBASIS         AUG-PCVQZ   [ 52]    ***   
       BOTHVECTORS          BOTHVC         OFF         [  0]    ***   
       BOX_POTENT           IPIAB          OFF         [  0]    ***   
       BREIT                IBREIT         OFF         [  0]    ***   
       BRUCK_CONV           IBRTOL          10D-  4             ***   
       BRUECKNER            IBRKNR         OFF         [  0]    ***   
       BUFFERSIZE           IBUFFS              4096            ***   
       CACHE_RECS           ICHREC             10               ***   
       CALCLEVEL            ICLLVL         CCSD        [ 10]    ***   
       CCORBOPT             ICCORB         OFF         [  0]  x 0.01  
       CC_CONV              ICCCNV          10D- 14             ***   
       CC_EXPORDER          ICCEOR              5               ***   
       CC_EXTRAPOL          ICCEXT         DIIS        [  1]    ***   
       CC_GUESS             ICCGES         MP2         [  0]    ***   
       CC_MAXCYC            ICCCYC            100              cycles 
       CC_PROGRAM           ICCPRO         VCC         [  0]    ***   
       CHARGE               ICHRGE              0               ***   
       CHOLESKY             ICHOLE         OFF         [  0]    ***   
       CIS_CONV             ICISTL              5               ***   
       COMM_SIZE            IPSIZE            ***               ***   
       CONSTANT             ICONST         OLD         [  1]    ***   
       CONTINUUM            ICONTU         NONE        [  0]    ***   
       CONTRACTION          ICNTYP         GENERAL     [  1]    ***   
       COORDINATES          ICOORD         INTERNAL    [  0]    ***   
       CPHF_CONVER          ICPHFT          10D- 16             ***   
       CPHF_MAXCYC          ICPHFC             64              cycles 
       CUBIC                ICUBIC         OFF         [  0]    ***   
       CURVILINEAR          ICURVY         ON          [  1]    ***   
       DBOC                 IDBOC          ON          [  1]    ***   
       DCT                  IDCT           OFF         [  0]    ***   
       DERIV_LEV            IDRLVL         SECOND      [  2]    ***   
       DEVMEM_SIZE          IDVMEM          50000000           MByte  
       DIAG_MRCC            IEOMST          10D-  0             ***   
       DIFF_TYPE            IDIFTY         RELAXED     [  0]    ***   
       DIRECT               IDIRCT         OFF         [  0]    ***   
       DROPMO               IDRPMO      NONE         
       ECP                  IECP           OFF         [  0]    ***   
       EIGENVECTOR          IVEC                1               ***   
       EL_ANHARM            IELANH         OFF         [  0]    ***   
       EOMFOLLOW            IEOMSR         ENERGY      [  0]    ***   
       EOMIP                IEOMIP         OFF         [  0]    ***   
       EOMLEVEL             HBARFM         SAME        [  0]    ***   
       EOM_MRCC             IMRCCE         NEW         [  1]    ***   
       EOM_NONIT            EOMNON         OFF         [  0]    ***   
       EOM_NSING            IEOMSI          10D-  0             ***   
       EOM_NSTATES          IMRCCD         DAVIDSON    [  0]    ***   
       EOM_NTRIP            IEOMTR          10D-  0             ***   
       EOM_ORDER            IEXORD         ENERGY      [  0]    ***   
       EOM_PROPSTA          IEOMST              0               ***   
       ESTATE_CONV          IEXTOL          10D-  5             ***   
       ESTATE_DIAG          IEXDIG         ITERATIVE   [  0]    ***   
       ESTATE_LOCK          IESLOC         ON          [  1]    ***   
       ESTATE_MAXC          IEXMXC             40               ***   
       ESTATE_PROP          IEXPRP         OFF         [  0]    ***   
       EVAL_HESS            IRECAL              0            # of cyc.
       EXCITATION           IEXCIT              0               ***   
       EXCITE               IEXCIT         NONE        [  0]    ***   
       EXTERN_POT           IEXPOT         OFF         [  0]    ***   
       FCGRADNEW            IFCGNW         OFF         [  0]    ***   
       FC_FIELD             IFINFC              0             x 10-6  
       FD_CALTYPE           IFDCAL         GRADONLY    [  0]    ***   
       FD_PROJECT           IFDPRJ         OFF         [  1]    ***   
       FD_STEPSIZE          IDISFD              0            10-4 bohr
       FD_USEGROUP          IFDGRP         FULL        [  0]    ***   
       FILE_RECSIZ          IFLREC              4096           words  
       FINITE_PERT          IFIPER              0             x 10-6  
       FIXGEOM              IFIXGM         OFF         [  0]    ***   
       FOCK                 IFOCK          AO          [  1]    ***   
       FREQ_ALGORI          IVIALG         STANDARD    [  0]    ***   
       FROZEN_CORE          IFROCO         OFF         [  0]    ***   
       GAMMA_ABCD           IGABCD         STORE       [  0]    ***   
       GAMMA_ABCI           IGABCI         STORE       [  0]    ***   
       GENBAS_1             IGNBS1              0               ***   
       GENBAS_2             IGNBS2              0               ***   
       GENBAS_3             IGNBS3              0               ***   
       GENBAS_4             IGNBS4              0               ***   
       GEO_CONV             ICONTL              5              H/bohr 
       GEO_MAXCYC           IOPTCY             50               ***   
       GEO_MAXSTEP          IMXSTP            300            millibohr
       GEO_METHOD           INR            SINGLE_POINT[  5]    ***   
       GIAO                 IGIAO          OFF         [  1]    ***   
       GIMIC                IGIMIC         OFF         [  0]    ***   
       GRID                 IGRID          OFF         [  0]    ***   
       GRID_ALGO            IGALGO         SERIAL      [  0]    ***   
       GUESS                IGUESS         MOREAD      [  0]    ***   
       HBAR                 IHBAR          OFF         [  0]    ***   
       HESS_TYPE            IHESTP         SCF         [  0]    ***   
       HF2_FILE             IHF2Fl         USE         [  1]    ***   
       HFSTABILITY          ISTABL         OFF         [  0]    ***   
       INCORE               INCORE         OFF         [  0]    ***   
       INPUT_MRCC           IMRCC          ON          [  1]    ***   
       INTEGRALS            INTTYP         VMOL        [  1]    ***   
       JODA_PRINT           IJPRNT              0               ***   
       KEYWORD_OUT          IDMPKW         NO          [  0]    ***   
       LINDEP_TOL           ILINDP              8               ***   
       LINEQ_CONV           IZTACN          10D-  7           cycles  
       LINEQ_EXPOR          ILMAXD              5               ***   
       LINEQ_MAXCY          ILMAXC            100               ***   
       LINEQ_TYPE           ILTYPE         DIIS        [  1]    ***   
       LOCK_ORBOCC          ILOCOC         OFF         [  0]    ***   
       MEMORY_SIZE          IMEMSZ         500000000           words  
       MEM_UNIT             IMEMU          INTEGERWORDS[  0]    ***   
       MRCC                 IMRCCC         OFF         [  0]    ***   
       MULTIPLICTY          IMULTP              1               ***   
       NACOUPLING           IVCOUP         OFF         [  0]    ***   
       NEGEVAL              IDIE           ABORT       [  0]    ***   
       NEWNORM              INEWNO         OFF         [  0]    ***   
       NON-HF               INONHF         OFF         [  0]    ***   
       NTOP_TAMP            ITOPT2             15               ***   
       NUC_MODEL            INUCMO         POINT       [  0]    ***   
       OCCUPATION           IOCCU   ESTIMATED BY SCF 
       OPEN-SHELL           IOPEN          SPIN-ORBITAL[  0]    ***   
       OPTVIB               IOPTVB         OFF         [  0]    ***   
       ORBITALS             IORBTP         STANDARD    [  0]    ***   
       PARALLEL             IPARAL         ON          [  1]    ***   
       PARA_INT             IPINTS         ON          [  1]    ***   
       PARA_PRINT           IPPRIN              0               ***   
       PERT_ORB             IPTORB         STANDARD    [  0]    ***   
       POINTS               IGRDFD              0               ***   
       PRINT                IPRNT               0               ***   
       PROPS                IPROPS         OFF         [  0]    ***   
       PROP_INTEGR          IINTYP         INTERNAL    [  0]    ***   
       PSI                  IPSI           OFF         [  0]    ***   
       QC_ALG               IQCALG         FLM         [  0]    ***   
       QC_LINALG            IQCLIN         TRIDIAG     [  2]    ***   
       QC_MAXCYC            IQCMAX          10D-100           cycles  
       QC_MAXSCFCY          IQCMSC          10D- 15           cycles  
       QC_RTRUST            IQCRTR          10D-  0           x 10-3  
       QC_SKIPSCF           IQCSKI         OFF         [  0]    ***   
       QC_START             IQCSTA          10D-  1             ***   
       QRHFGUESS            IQGUES         OFF         [  0]    ***   
       QUARTIC              IQUART         OFF         [  0]    ***   
       RAMAN_INT            IRAMIN         OFF         [  0]    ***   
       RAMAN_ORB            IRAMRE         UNRELAXED   [  0]    ***   
       RDO                  IRDOFM         ON          [  1]    ***   
       REDUCE_REPR          REDREP         Ir          [  0]    ***   
       REFERENCE            IREFNC         RHF         [  0]    ***   
       RELATIVIST           IRELAT         OFF         [  0]    ***   
       RELAX_DENS           IRDENS         ON          [  1]    ***   
       RESET_FLAGS          IRESET         OFF         [  0]    ***   
       RESTART_CC           ICCRES         OFF         [  0]    ***   
       ROT_EVEC             ROTVEC              0               ***   
       SAVE_INTS            ISVINT         OFF         [  0]    ***   
       SCALE_ON             ISTCRT              0               ***   
       SCF_CONV             ISCFCV          10D- 10             ***   
       SCF_DAMPING          IDAMP               0             x 10-3  
       SCF_EXPORDE          IRPPOR              6               ***   
       SCF_EXPSTAR          IRPPLS              8               ***   
       SCF_EXTRAPO          IRPP           ON          [  1]    ***   
       SCF_MAXCYC           ISCFCY            150              cycles 
       SCF_NOSTOP           ISCFST         OFF         [  0]    ***   
       SCF_PRINT            ISCFPR              0               ***   
       SCF_PROG             ISCFPR         SCF         [  0]    ***   
       SD_FIELD             IFINSD              0             x 10-6  
       SOPERT               IPERSO         OFF         [  0]    ***   
       SPHERICAL            IDFGHI         ON          [  1]    ***   
       SPINORBIT            ISOCAL         OFF         [  0]    ***   
       SPINROTATIO          ISRCON         OFF         [  0]    ***   
       SPIN_FLIP            ISPFLP         OFF         [  0]    ***   
       SPIN_ORBIT           ISPORB         OFF         [  0]    ***   
       SPIN_SCAL            ISCSMP         OFF         [  0]    ***   
       STEEPSCALE           ISTPSC              1000          x 10-3  
       SUBGROUP             ISUBGP         DEFAULT     [  0]    ***   
       SUBGRPAXIS           ISBXYZ         X           [  0]    ***   
       SYMMETRY             ISYM           ON          [  0]    ***   
       SYM_CHECK            ISYMCK         OVERRIDE    [  1]    ***   
       T3_EXTRAPOL          IT3EXT         OFF         [  0]    ***   
       T4_EXTRAPOL          IT4EXP         OFF         [  0]    ***   
       TAMP_SUM             IEVERY              5               ***   
       TESTSUITE            ITESTS         OFF         [  0]    ***   
       THERMOCH             ITHERM         OFF         [  0]    ***   
       TOL_CHOLESK          ITOLCH          10D-  4             ***   
       TRANGRAD             IRESRM         OFF         [  0]    ***   
       TRANS_INV            ITRAIN         IGNORE      [  1]    ***   
       TREAT_PERT           ITREAT         SIMULTANEOUS[  0]    ***   
       TRIP_ALGORI          ITRALG         NORMAL      [  0]    ***   
       UIJ_THRESHO          IUIJTH              1               ***   
       UNITS                IUNITS         ANGSTROM    [  0]    ***   
       UNOS                 IUNOS          OFF         [  0]    ***   
       UPDATE_HESS          IHUPDT         ON          [  1]    ***   
       VIBPHASE             ISETPH         STANDARD    [  0]    ***   
       VIBRATION            IVIB           ANALYTIC    [  1]    ***   
       VIB_ALGORIT          IGEALG         STANDARD    [  0]    ***   
       VNATORB              IVNORB         OFF         [  0]    ***   
       VTRAN                IVTRAN         FULL/PARTIAL[  0]    ***   
       XFIELD               IXEFLD              0             x 10-6  
       XFORM_TOL            IXFTOL          10D- 11             ***   
       YFIELD               IYEFLD              0             x 10-6  
       ZFIELD               IZEFLD            200             x 10-6  
       ZSCALE_EXP           IZEXPS         OFF         [  0]    ***   
    -------------------------------------------------------------------
   2 entries found in Z-matrix 
   Job Title : Carbon Monoxide DBOC calculation                                                
   There are  1 unique internal coordinates.
   Of these,  0 will be optimized.
   User supplied Z-matrix: 
--------------------------------------------------------------------------------
       SYMBOL    BOND      LENGTH    ANGLE     ANGLE     DIHED     ANGLE
                  TO      (ANGST)    WRT      (DEG)      WRT      (DEG)
--------------------------------------------------------------------------------
        C    
        O          1         r    
                  *Initial values for internal coordinates* 
                      Name             Value
                        r               1.1282500000
--------------------------------------------------------------------------------
  read isotopes from ZMAT file 
   Rotational constants (in cm-1): 
          1.8463779795             1.8463779795
   Rotational constants (in MHz): 
      55353.0270419207         55353.0270419207
********************************************************************************
   The full molecular point group is CXv .
   The largest Abelian subgroup of the full molecular point group is C2v .
   The computational point group is C2v .
********************************************************************************
--------------------------------------------------------------------------------
   Analysis of internal coordinates specified by Z-matrix 
--------------------------------------------------------------------------------
   *The nuclear repulsion energy is   22.513184843784618 a.u.
   *There is   1 degree of freedom within the tot. symm. molecular subspace.
   *Z-matrix requests optimization of   0 coordinates.
   *The optimization is constrained.
   *The following   1 parameters can have non-zero 
    derivatives within the totally symmetric subspace:
             r    [ 1]
   *The following   0 parameters are to be optimized:

   *The following coordinates must be varied in an  unconstrained optimization.
             r    [ 1]
--------------------------------------------------------------------------------


 ----------------------------------------------------------------
         Coordinates used in calculation (QCOMP) 
 ----------------------------------------------------------------
 Z-matrix   Atomic            Coordinates (in bohr)
  Symbol    Number           X              Y              Z
 ----------------------------------------------------------------
     C         6        -0.00000000     0.00000000     1.17601848
     O         8         0.00000000     0.00000000    -0.95606547
 ----------------------------------------------------------------
 
   Interatomic distance matrix (Angstroms) 
 
                 C             O    
                [ 1]        [ 2]
  C    [ 1]     0.00000
  O    [ 2]     1.12825     0.00000
 rotcon2
   Rotational constants (in cm-1): 
          1.8463779795             0.0000000000
   Rotational constants (in MHz): 
      55353.0270419207             0.0000000000
  ECPDATA file not present.   Using default ECPDATA. 
  @GTFLGS-I, Hessian will be transformed to curvilinear coordinates.
  There are  218 basis functions.
 @CHECKOUT-I, Total execution time (CPU/WALL):        0.10/       0.16 seconds.
--executable xjoda finished with status     0 in        0.17 seconds (walltime).
 --invoking executable--
/nfs/workspaces/public/cfour_mpi/bin/xvmol
 SERIAL VERSION OF MOLECULE STARTED
********************************************************************************
                    INPUT FROM MOL FILE
********************************************************************************
INTGRL        1    0    1    0    0    0    0    0    0                         
         *** CFOUR Program System (Release V0.1) ***                            
Carbon Monoxide DBOC calculation                                                
    2    2 X  Y       0.10E-08              0    0                              
   9999.00      3.00                                                            
          6.00000000    1    5    1    1    1    1    1                         
C #1  -0.000000000000000   0.000000000000000   1.176018478174915                
   16    9                                                                      
   33980.0000000000       9.100000000000000E-005 -1.900000000000000E-005        
  0.000000000000000E+000  0.000000000000000E+000  0.000000000000000E+000        
  0.000000000000000E+000  0.000000000000000E+000  0.000000000000000E+000        
  0.000000000000000E+000                                                        
   5089.00000000000       7.040000000000000E-004 -1.510000000000000E-004        
  0.000000000000000E+000  0.000000000000000E+000  0.000000000000000E+000        
  0.000000000000000E+000  0.000000000000000E+000  0.000000000000000E+000        
  0.000000000000000E+000                                                        
   1157.00000000000       3.693000000000000E-003 -7.850000000000000E-004        
  0.000000000000000E+000  0.000000000000000E+000  0.000000000000000E+000        
  0.000000000000000E+000  0.000000000000000E+000  0.000000000000000E+000        
  0.000000000000000E+000                                                        
   326.600000000000       1.536000000000000E-002 -3.324000000000000E-003        
  0.000000000000000E+000  0.000000000000000E+000  0.000000000000000E+000        
  0.000000000000000E+000  0.000000000000000E+000  0.000000000000000E+000        
  0.000000000000000E+000                                                        
   106.100000000000       5.292900000000000E-002 -1.151200000000000E-002        
  0.000000000000000E+000  0.000000000000000E+000  0.000000000000000E+000        
  0.000000000000000E+000  0.000000000000000E+000  0.000000000000000E+000        
  0.000000000000000E+000                                                        
   38.1100000000000       0.147043000000000      -3.416000000000000E-002        
  0.000000000000000E+000  0.000000000000000E+000  0.000000000000000E+000        
  0.000000000000000E+000  0.000000000000000E+000  0.000000000000000E+000        
  0.000000000000000E+000                                                        
   14.7500000000000       0.305631000000000      -7.717300000000001E-002        
  0.000000000000000E+000  0.000000000000000E+000  0.000000000000000E+000        
  0.000000000000000E+000  0.000000000000000E+000  0.000000000000000E+000        
  0.000000000000000E+000                                                        
   6.03500000000000       0.399345000000000      -0.141493000000000             
  0.000000000000000E+000  0.000000000000000E+000  0.000000000000000E+000        
  0.000000000000000E+000  0.000000000000000E+000  0.000000000000000E+000        
  0.000000000000000E+000                                                        
   2.53000000000000       0.217051000000000      -0.118019000000000             
  0.000000000000000E+000  0.000000000000000E+000  0.000000000000000E+000        
  0.000000000000000E+000  0.000000000000000E+000  0.000000000000000E+000        
  0.000000000000000E+000                                                        
  0.735500000000000       1.589400000000000E-002  0.273806000000000             
   1.00000000000000       0.000000000000000E+000  0.000000000000000E+000        
  0.000000000000000E+000  0.000000000000000E+000  0.000000000000000E+000        
  0.000000000000000E+000                                                        
  0.290500000000000      -3.084000000000000E-003  0.586510000000000             
  0.000000000000000E+000   1.00000000000000       0.000000000000000E+000        
  0.000000000000000E+000  0.000000000000000E+000  0.000000000000000E+000        
  0.000000000000000E+000                                                        
  0.111100000000000       9.779999999999999E-004  0.285430000000000             
  0.000000000000000E+000  0.000000000000000E+000   1.00000000000000             
  0.000000000000000E+000  0.000000000000000E+000  0.000000000000000E+000        
  0.000000000000000E+000                                                        
   7.21600000000000       0.000000000000000E+000  0.000000000000000E+000        
  0.000000000000000E+000  0.000000000000000E+000  0.000000000000000E+000        
   1.00000000000000       0.000000000000000E+000  0.000000000000000E+000        
  0.000000000000000E+000                                                        
   19.5700000000000       0.000000000000000E+000  0.000000000000000E+000        
  0.000000000000000E+000  0.000000000000000E+000  0.000000000000000E+000        
  0.000000000000000E+000   1.00000000000000       0.000000000000000E+000        
  0.000000000000000E+000                                                        
   53.0730000000000       0.000000000000000E+000  0.000000000000000E+000        
  0.000000000000000E+000  0.000000000000000E+000  0.000000000000000E+000        
  0.000000000000000E+000  0.000000000000000E+000   1.00000000000000             
  0.000000000000000E+000                                                        
  4.145000000000000E-002  0.000000000000000E+000  0.000000000000000E+000        
  0.000000000000000E+000  0.000000000000000E+000  0.000000000000000E+000        
  0.000000000000000E+000  0.000000000000000E+000  0.000000000000000E+000        
   1.00000000000000                                                             
   10    8                                                                      
   34.5100000000000       5.378000000000000E-003  0.000000000000000E+000        
  0.000000000000000E+000  0.000000000000000E+000  0.000000000000000E+000        
  0.000000000000000E+000  0.000000000000000E+000  0.000000000000000E+000        
   7.91500000000000       3.613200000000000E-002  0.000000000000000E+000        
  0.000000000000000E+000  0.000000000000000E+000  0.000000000000000E+000        
  0.000000000000000E+000  0.000000000000000E+000  0.000000000000000E+000        
   2.36800000000000       0.142493000000000       0.000000000000000E+000        
  0.000000000000000E+000  0.000000000000000E+000  0.000000000000000E+000        
  0.000000000000000E+000  0.000000000000000E+000  0.000000000000000E+000        
  0.813200000000000       0.342150000000000        1.00000000000000             
  0.000000000000000E+000  0.000000000000000E+000  0.000000000000000E+000        
  0.000000000000000E+000  0.000000000000000E+000  0.000000000000000E+000        
  0.289000000000000       0.463864000000000       0.000000000000000E+000        
   1.00000000000000       0.000000000000000E+000  0.000000000000000E+000        
  0.000000000000000E+000  0.000000000000000E+000  0.000000000000000E+000        
  0.100700000000000       0.250028000000000       0.000000000000000E+000        
  0.000000000000000E+000   1.00000000000000       0.000000000000000E+000        
  0.000000000000000E+000  0.000000000000000E+000  0.000000000000000E+000        
   8.18200000000000       0.000000000000000E+000  0.000000000000000E+000        
  0.000000000000000E+000  0.000000000000000E+000   1.00000000000000             
  0.000000000000000E+000  0.000000000000000E+000  0.000000000000000E+000        
   24.1860000000000       0.000000000000000E+000  0.000000000000000E+000        
  0.000000000000000E+000  0.000000000000000E+000  0.000000000000000E+000        
   1.00000000000000       0.000000000000000E+000  0.000000000000000E+000        
   71.4940000000000       0.000000000000000E+000  0.000000000000000E+000        
  0.000000000000000E+000  0.000000000000000E+000  0.000000000000000E+000        
  0.000000000000000E+000   1.00000000000000       0.000000000000000E+000        
  3.218000000000000E-002  0.000000000000000E+000  0.000000000000000E+000        
  0.000000000000000E+000  0.000000000000000E+000  0.000000000000000E+000        
  0.000000000000000E+000  0.000000000000000E+000   1.00000000000000             
    6    6                                                                      
   1.84800000000000        1.00000000000000       0.000000000000000E+000        
  0.000000000000000E+000  0.000000000000000E+000  0.000000000000000E+000        
  0.000000000000000E+000                                                        
  0.649000000000000       0.000000000000000E+000   1.00000000000000             
  0.000000000000000E+000  0.000000000000000E+000  0.000000000000000E+000        
  0.000000000000000E+000                                                        
  0.228000000000000       0.000000000000000E+000  0.000000000000000E+000        
   1.00000000000000       0.000000000000000E+000  0.000000000000000E+000        
  0.000000000000000E+000                                                        
   8.65600000000000       0.000000000000000E+000  0.000000000000000E+000        
  0.000000000000000E+000   1.00000000000000       0.000000000000000E+000        
  0.000000000000000E+000                                                        
   33.2130000000000       0.000000000000000E+000  0.000000000000000E+000        
  0.000000000000000E+000  0.000000000000000E+000   1.00000000000000             
  0.000000000000000E+000                                                        
  7.660000000000000E-002  0.000000000000000E+000  0.000000000000000E+000        
  0.000000000000000E+000  0.000000000000000E+000  0.000000000000000E+000        
   1.00000000000000                                                             
    4    4                                                                      
   1.41900000000000        1.00000000000000       0.000000000000000E+000        
  0.000000000000000E+000  0.000000000000000E+000                                
  0.485000000000000       0.000000000000000E+000   1.00000000000000             
  0.000000000000000E+000  0.000000000000000E+000                                
   24.6940000000000       0.000000000000000E+000  0.000000000000000E+000        
   1.00000000000000       0.000000000000000E+000                                
  0.187000000000000       0.000000000000000E+000  0.000000000000000E+000        
  0.000000000000000E+000   1.00000000000000                                     
    2    2                                                                      
   1.01100000000000        1.00000000000000       0.000000000000000E+000        
  0.424000000000000       0.000000000000000E+000   1.00000000000000             
          8.00000000    1    5    1    1    1    1    1                         
O #2   0.000000000000000   0.000000000000000  -0.956065468768367                
   16    9                                                                      
   61420.0000000000       9.000000000000001E-005 -2.000000000000000E-005        
  0.000000000000000E+000  0.000000000000000E+000  0.000000000000000E+000        
  0.000000000000000E+000  0.000000000000000E+000  0.000000000000000E+000        
  0.000000000000000E+000                                                        
   9199.00000000000       6.980000000000001E-004 -1.590000000000000E-004        
  0.000000000000000E+000  0.000000000000000E+000  0.000000000000000E+000        
  0.000000000000000E+000  0.000000000000000E+000  0.000000000000000E+000        
  0.000000000000000E+000                                                        
   2091.00000000000       3.664000000000000E-003 -8.290000000000000E-004        
  0.000000000000000E+000  0.000000000000000E+000  0.000000000000000E+000        
  0.000000000000000E+000  0.000000000000000E+000  0.000000000000000E+000        
  0.000000000000000E+000                                                        
   590.900000000000       1.521800000000000E-002 -3.508000000000000E-003        
  0.000000000000000E+000  0.000000000000000E+000  0.000000000000000E+000        
  0.000000000000000E+000  0.000000000000000E+000  0.000000000000000E+000        
  0.000000000000000E+000                                                        
   192.300000000000       5.242300000000000E-002 -1.215600000000000E-002        
  0.000000000000000E+000  0.000000000000000E+000  0.000000000000000E+000        
  0.000000000000000E+000  0.000000000000000E+000  0.000000000000000E+000        
  0.000000000000000E+000                                                        
   69.3200000000000       0.145921000000000      -3.626100000000000E-002        
  0.000000000000000E+000  0.000000000000000E+000  0.000000000000000E+000        
  0.000000000000000E+000  0.000000000000000E+000  0.000000000000000E+000        
  0.000000000000000E+000                                                        
   26.9700000000000       0.305258000000000      -8.299200000000000E-002        
  0.000000000000000E+000  0.000000000000000E+000  0.000000000000000E+000        
  0.000000000000000E+000  0.000000000000000E+000  0.000000000000000E+000        
  0.000000000000000E+000                                                        
   11.1000000000000       0.398508000000000      -0.152090000000000             
  0.000000000000000E+000  0.000000000000000E+000  0.000000000000000E+000        
  0.000000000000000E+000  0.000000000000000E+000  0.000000000000000E+000        
  0.000000000000000E+000                                                        
   4.68200000000000       0.216980000000000      -0.115331000000000             
  0.000000000000000E+000  0.000000000000000E+000  0.000000000000000E+000        
  0.000000000000000E+000  0.000000000000000E+000  0.000000000000000E+000        
  0.000000000000000E+000                                                        
   1.42800000000000       1.759400000000000E-002  0.288979000000000             
   1.00000000000000       0.000000000000000E+000  0.000000000000000E+000        
  0.000000000000000E+000  0.000000000000000E+000  0.000000000000000E+000        
  0.000000000000000E+000                                                        
  0.554700000000000      -2.502000000000000E-003  0.586128000000000             
  0.000000000000000E+000   1.00000000000000       0.000000000000000E+000        
  0.000000000000000E+000  0.000000000000000E+000  0.000000000000000E+000        
  0.000000000000000E+000                                                        
  0.206700000000000       9.540000000000000E-004  0.277624000000000             
  0.000000000000000E+000  0.000000000000000E+000   1.00000000000000             
  0.000000000000000E+000  0.000000000000000E+000  0.000000000000000E+000        
  0.000000000000000E+000                                                        
   12.9740000000000       0.000000000000000E+000  0.000000000000000E+000        
  0.000000000000000E+000  0.000000000000000E+000  0.000000000000000E+000        
   1.00000000000000       0.000000000000000E+000  0.000000000000000E+000        
  0.000000000000000E+000                                                        
   34.9000000000000       0.000000000000000E+000  0.000000000000000E+000        
  0.000000000000000E+000  0.000000000000000E+000  0.000000000000000E+000        
  0.000000000000000E+000   1.00000000000000       0.000000000000000E+000        
  0.000000000000000E+000                                                        
   93.8810000000000       0.000000000000000E+000  0.000000000000000E+000        
  0.000000000000000E+000  0.000000000000000E+000  0.000000000000000E+000        
  0.000000000000000E+000  0.000000000000000E+000   1.00000000000000             
  0.000000000000000E+000                                                        
  6.959000000000000E-002  0.000000000000000E+000  0.000000000000000E+000        
  0.000000000000000E+000  0.000000000000000E+000  0.000000000000000E+000        
  0.000000000000000E+000  0.000000000000000E+000  0.000000000000000E+000        
   1.00000000000000                                                             
   10    8                                                                      
   63.4200000000000       6.044000000000000E-003  0.000000000000000E+000        
  0.000000000000000E+000  0.000000000000000E+000  0.000000000000000E+000        
  0.000000000000000E+000  0.000000000000000E+000  0.000000000000000E+000        
   14.6600000000000       4.179900000000000E-002  0.000000000000000E+000        
  0.000000000000000E+000  0.000000000000000E+000  0.000000000000000E+000        
  0.000000000000000E+000  0.000000000000000E+000  0.000000000000000E+000        
   4.45900000000000       0.161143000000000       0.000000000000000E+000        
  0.000000000000000E+000  0.000000000000000E+000  0.000000000000000E+000        
  0.000000000000000E+000  0.000000000000000E+000  0.000000000000000E+000        
   1.53100000000000       0.356731000000000        1.00000000000000             
  0.000000000000000E+000  0.000000000000000E+000  0.000000000000000E+000        
  0.000000000000000E+000  0.000000000000000E+000  0.000000000000000E+000        
  0.530200000000000       0.448309000000000       0.000000000000000E+000        
   1.00000000000000       0.000000000000000E+000  0.000000000000000E+000        
  0.000000000000000E+000  0.000000000000000E+000  0.000000000000000E+000        
  0.175000000000000       0.244940000000000       0.000000000000000E+000        
  0.000000000000000E+000   1.00000000000000       0.000000000000000E+000        
  0.000000000000000E+000  0.000000000000000E+000  0.000000000000000E+000        
   14.4750000000000       0.000000000000000E+000  0.000000000000000E+000        
  0.000000000000000E+000  0.000000000000000E+000   1.00000000000000             
  0.000000000000000E+000  0.000000000000000E+000  0.000000000000000E+000        
   42.7300000000000       0.000000000000000E+000  0.000000000000000E+000        
  0.000000000000000E+000  0.000000000000000E+000  0.000000000000000E+000        
   1.00000000000000       0.000000000000000E+000  0.000000000000000E+000        
   126.140000000000       0.000000000000000E+000  0.000000000000000E+000        
  0.000000000000000E+000  0.000000000000000E+000  0.000000000000000E+000        
  0.000000000000000E+000   1.00000000000000       0.000000000000000E+000        
  5.348000000000000E-002  0.000000000000000E+000  0.000000000000000E+000        
  0.000000000000000E+000  0.000000000000000E+000  0.000000000000000E+000        
  0.000000000000000E+000  0.000000000000000E+000   1.00000000000000             
    6    6                                                                      
   3.77500000000000        1.00000000000000       0.000000000000000E+000        
  0.000000000000000E+000  0.000000000000000E+000  0.000000000000000E+000        
  0.000000000000000E+000                                                        
   1.30000000000000       0.000000000000000E+000   1.00000000000000             
  0.000000000000000E+000  0.000000000000000E+000  0.000000000000000E+000        
  0.000000000000000E+000                                                        
  0.444000000000000       0.000000000000000E+000  0.000000000000000E+000        
   1.00000000000000       0.000000000000000E+000  0.000000000000000E+000        
  0.000000000000000E+000                                                        
   14.9270000000000       0.000000000000000E+000  0.000000000000000E+000        
  0.000000000000000E+000   1.00000000000000       0.000000000000000E+000        
  0.000000000000000E+000                                                        
   57.5440000000000       0.000000000000000E+000  0.000000000000000E+000        
  0.000000000000000E+000  0.000000000000000E+000   1.00000000000000             
  0.000000000000000E+000                                                        
  0.154000000000000       0.000000000000000E+000  0.000000000000000E+000        
  0.000000000000000E+000  0.000000000000000E+000  0.000000000000000E+000        
   1.00000000000000                                                             
    4    4                                                                      
   2.66600000000000        1.00000000000000       0.000000000000000E+000        
  0.000000000000000E+000  0.000000000000000E+000                                
  0.859000000000000       0.000000000000000E+000   1.00000000000000             
  0.000000000000000E+000  0.000000000000000E+000                                
   26.4830000000000       0.000000000000000E+000  0.000000000000000E+000        
   1.00000000000000       0.000000000000000E+000                                
  0.324000000000000       0.000000000000000E+000  0.000000000000000E+000        
  0.000000000000000E+000   1.00000000000000                                     
    2    2                                                                      
   1.84600000000000        1.00000000000000       0.000000000000000E+000        
  0.714000000000000       0.000000000000000E+000   1.00000000000000             
FINISH                                                                          
 
********************************************************************************
 ONE- AND TWO-ELECTRON INTEGRALS OVER SYMMETRY-ADAPTED AOS ARE CALCULATED.

  SPHERICAL HARMONICS ARE USED.
  
  INTEGRALS LESS THAN  0.10E-13 ARE NEGLECTED.

  NUCLEAR REPULSION ENERGY :   22.5131848438 A.U.
  @MOLECU-I, ONE ELECTRON INTEGRALS (CPU/WALL):        0.06/       0.08 SECONDS.
  @TWOEL-I,    4595633 INTEGRALS OF SYMMETRY TYPE  I I I I
  @TWOEL-I,   19727147 INTEGRALS OF SYMMETRY TYPE  I J I J
  @TWOEL-I,   10395857 INTEGRALS OF SYMMETRY TYPE  I I J J
  @TWOEL-I,   14595704 INTEGRALS OF SYMMETRY TYPE  I J K L
  @TWOEL-I, TOTAL NUMBER OF 2-E INTEGRALS   49314341.
  @MOLECU-I, TWO ELECTRON INTEGRALS (CPU/WALL):      186.97/      25.98 SECONDS.
 @CHECKOUT-I, Total execution time (CPU/WALL):      187.04/      26.09 seconds.

Running with 14 threads/proc

--executable xvmol finished with status     0 in       26.11 seconds (walltime).
 --invoking executable--
/nfs/workspaces/public/cfour_mpi/bin/xvmol2ja
 @GETMEM-I,  Allocated    3814 MB of main memory.
 @CHECKOUT-I, Total execution time (CPU/WALL):        0.11/       0.06 seconds.
--executable xvmol2ja finished with status     0 in        0.07 seconds (walltime).
 --invoking executable--
/nfs/workspaces/public/cfour_mpi/bin/xvprop
 @GETMEM-I,  Allocated    3814 MB of main memory.
   Property integrals will be calculated.
    --------------------------------------------------------------
                                   Property evaluated at 
    Property type                X             Y             Z
    --------------------------------------------------------------
    Dipole moment               ----          ----          ----  
    Quadrupole moment           ----          ----          ----  
    Octopole moment             ----          ----          ----  
    Relativisitic corr.         ----          ----          ----  
    Second moment            0.0000000     0.0000000     0.0000000
    Electron density         0.0000000     0.0000000     1.1760185
    Electron density         0.0000000     0.0000000    -0.9560655
    Field gradient           0.0000000     0.0000000     1.1760185
    Field gradient           0.0000000     0.0000000    -0.9560655
    Potential                0.0000000     0.0000000     1.1760185
    Potential                0.0000000     0.0000000    -0.9560655
    --------------------------------------------------------------
 @CHECKOUT-I, Total execution time (CPU/WALL):        1.29/       1.31 seconds.
--executable xvprop finished with status     0 in        1.32 seconds (walltime).
 --invoking executable--
/nfs/workspaces/public/cfour_mpi/bin/xvscf
  There are  218 functions in the AO basis.

  There are 4 irreducible representations.

       Irrep        # of functions
         1                 86
         2                 52
         3                 52
         4                 28


  Parameters for SCF calculation: 
        SCF reference function:  RHF  
  Maximum number of iterations:  150
     Full symmetry point group: CXv 
     Computational point group: C2v 
        Initial density matrix: MOREAD                 
     SCF convergence tolerance: 10**(-10)
  DIIS convergence acceleration:  ON
          Latest start for DIIS:   8
                     DIIS order:   6

  Memory information:    2523578 words required.
  Fock matrices are constructed from AO integral file.
 @GETMEM-I,  Allocated      19 MB of main memory.
  Initialization and symmetry analysis required      0.001 seconds.

  Adding electric field perturbation to one-electron Hamiltonian.
  Field direction     : Z
  Field strength      :  0.0002000 a.u.

  @INITGES-I, Occupancies from core Hamiltonian:

          Alpha population by irrep:   5    1    1    0
           Beta population by irrep:   5    1    1    0


 total no. of electrons in initial guess :  0.000000000000000E+000
  --------------------------------------------------------------------
  Iteration         Total Energy            Largest Density Difference
  --------------------------------------------------------------------
       0            22.513303326360550              0.0000000000D+00
   current occupation vector 
     5  1  1  0
     5  1  1  0
       1           -91.792765186527674              0.1871611870D+02
   current occupation vector 
     5  1  1  0
     5  1  1  0
       2           -96.468478822294344              0.2333009676D+02
   current occupation vector 
     5  1  1  0
     5  1  1  0
       3          -103.358546977925329              0.2331907485D+02
   current occupation vector 
     5  1  1  0
     5  1  1  0
       4          -100.407950392269527              0.7592163135D+01
   current occupation vector 
     5  1  1  0
     5  1  1  0
       5          -103.459288024968231              0.7399226894D+01
   current occupation vector 
     5  1  1  0
     5  1  1  0
       6          -100.508823061682335              0.5809352719D+01
   current occupation vector 
     5  1  1  0
     5  1  1  0
       7          -103.257789564111675              0.5595111717D+01
   current occupation vector 
     5  1  1  0
     5  1  1  0
       8          -100.261831373135948              0.5580132272D+01
   current occupation vector 
     5  1  1  0
     5  1  1  0
       9          -110.831017603323943              0.4185758290D+01
   current occupation vector 
     5  1  1  0
     5  1  1  0
      10          -112.305176059898429              0.9117764597D+00
   current occupation vector 
     5  1  1  0
     5  1  1  0
      11          -112.774914412252997              0.4955321682D+00
   current occupation vector 
     5  1  1  0
     5  1  1  0
      12          -112.788802337056609              0.1041700418D+00
   current occupation vector 
     5  1  1  0
     5  1  1  0
      13          -112.789218978972940              0.2305892913D-01
   current occupation vector 
     5  1  1  0
     5  1  1  0
      14          -112.789299067209555              0.1356890389D-01
   current occupation vector 
     5  1  1  0
     5  1  1  0
      15          -112.789302481466166              0.3685669399D-02
   current occupation vector 
     5  1  1  0
     5  1  1  0
      16          -112.789302519469800              0.3278776971D-03
   current occupation vector 
     5  1  1  0
     5  1  1  0
      17          -112.789302520423234              0.3634221476D-04
   current occupation vector 
     5  1  1  0
     5  1  1  0
      18          -112.789302520451940              0.6243712195D-05
   current occupation vector 
     5  1  1  0
     5  1  1  0
      19          -112.789302520452708              0.1190046692D-05
   current occupation vector 
     5  1  1  0
     5  1  1  0
      20          -112.789302520451912              0.2075311003D-06
   current occupation vector 
     5  1  1  0
     5  1  1  0
      21          -112.789302520452452              0.3362674095D-07
   current occupation vector 
     5  1  1  0
     5  1  1  0
      22          -112.789302520452566              0.8467608614D-08
   current occupation vector 
     5  1  1  0
     5  1  1  0
      23          -112.789302520452225              0.4715306812D-08
   current occupation vector 
     5  1  1  0
     5  1  1  0
      24          -112.789302520451997              0.1162981655D-09
   current occupation vector 
     5  1  1  0
     5  1  1  0
      25          -112.789302520451400              0.1922189075D-09
   current occupation vector 
     5  1  1  0
     5  1  1  0
      26          -112.789302520451798              0.2226558937D-09
   current occupation vector 
     5  1  1  0
     5  1  1  0

  SCF has converged.

 Density matrix saved to file den.dat
 total electron number:   14.0000000000001     
     E(SCF)=      -112.789302520452310              0.4307165735D-10

  Eigenvector printing suppressed.

 @PUTMOS-I, Writing converged MOs to NEWMOS. 
 @PUTMOS-I, Symmetry   1 Full Blocks 21 Partial Blocksize   2
 @PUTMOS-I, Symmetry   2 Full Blocks 13 Partial Blocksize   0
 @PUTMOS-I, Symmetry   3 Full Blocks 13 Partial Blocksize   0
 @PUTMOS-I, Symmetry   4 Full Blocks  7 Partial Blocksize   0
 @PUTFOCK-I, Writing converged Fock matrix to NEWFOCK. 
 @PUTFOCK-I, Symmetry   1 Full Blocks 21 Partial Blocksize   2
 @PUTFOCK-I, Symmetry   2 Full Blocks 13 Partial Blocksize   0
 @PUTFOCK-I, Symmetry   3 Full Blocks 13 Partial Blocksize   0
 @PUTFOCK-I, Symmetry   4 Full Blocks  7 Partial Blocksize   0


 
  ORBITAL EIGENVALUES (ALPHA)  (1H = 27.2113834 eV)

       MO #        E(hartree)               E(eV)           FULLSYM    COMPSYM
       ----   --------------------   --------------------   -------   ---------
    1     1         -20.6651645781        -562.3277163590     SG+        A1 (1)
    2     2         -11.3602873600        -309.1291348871     SG+        A1 (1)
    3     3          -1.5217199099         -41.4081038947     SG+        A1 (1)
    4     4          -0.8046681901         -21.8961346304     SG+        A1 (1)
    5    87          -0.6403546454         -17.4249357691      PI        B1 (2)
    6   139          -0.6403546454         -17.4249357691      PI        B2 (3)
    7     5          -0.5547363651         -15.0951439163     SG+        A1 (1)
  +++++++++++++++++++++++++++++++++++++++++++++++++++++++++++++++++++++++++++++
    8     6           0.0596343587           1.6227333987     SG+        A1 (1)
    9   140           0.0632133805           1.7201235326      PI        B2 (3)
   10    88           0.0632133805           1.7201235326      PI        B1 (2)
   11     7           0.0756763158           2.0592572440     SG+        A1 (1)
   12   141           0.1410961917           3.8394225690      PI        B2 (3)
   13    89           0.1410961917           3.8394225690      PI        B1 (2)
   14     8           0.1559471281           4.2435370935     SG+        A1 (1)
   15    90           0.1667196356           4.5366719257      PI        B1 (2)
   16   142           0.1667196356           4.5366719257      PI        B2 (3)
   17     9           0.2279112296           6.2017798509     SG+        A1 (1)
   18   191           0.2281434343           6.2080984606      DE        A2 (4)
   19    10           0.2281434343           6.2080984606      DE        A1 (1)
   20    11           0.3015371299           8.2052424522     SG+        A1 (1)
   21   143           0.3211811729           8.7397840371      PI        B2 (3)
   22    91           0.3211811729           8.7397840371      PI        B1 (2)
   23    12           0.3922237221          10.6729500795     SG+        A1 (1)
   24   144           0.3957972712          10.7701912950      PI        B2 (3)
   25    92           0.3957972712          10.7701912951      PI        B1 (2)
   26    13           0.5080957291          13.8259876896     SG+        A1 (1)
   27   192           0.5344660476          14.5435605349      DE        A2 (4)
   28    14           0.5344660476          14.5435605349      DE        A1 (1)
   29   145           0.6228182250          16.9477455079      PI        B2 (3)
   30    93           0.6228182250          16.9477455079      PI        B1 (2)
   31    15           0.6450476202          17.5526381055     SG+        A1 (1)
   32   146           0.7489917992          20.3811030107      PH        B2 (3)
   33    94           0.7489917992          20.3811030107      PH        B1 (2)
   34    16           0.7688374946          20.9211318381      DE        A1 (1)
   35   193           0.7688374946          20.9211318381      DE        A2 (4)
   36    17           0.7799249467          21.2228367486     SG+        A1 (1)
   37   147           0.8237938286          22.4165697125      PI        B2 (3)
   38    95           0.8237938286          22.4165697125      PI        B1 (2)
   39    18           0.8724276012          23.7399619437     SG+        A1 (1)
   40   148           0.8810586403          23.9748244597      PI        B2 (3)
   41    96           0.8810586403          23.9748244597      PI        B1 (2)
   42    19           0.8913054836          24.2536552417      DE        A1 (1)
   43   194           0.8913054836          24.2536552417      DE        A2 (4)
   44    20           0.9108399077          24.7852139435     SG+        A1 (1)
   45   149           1.0771660518          29.3111784212      PI        B2 (3)
   46    97           1.0771660518          29.3111784212      PI        B1 (2)
   47    21           1.1959340110          32.5430188932     SG+        A1 (1)
   48    98           1.4474526981          39.3871903210      PH        B1 (2)
   49   150           1.4474526981          39.3871903210      PH        B2 (3)
   50    22           1.4743721238          40.1197051362     SG+        A1 (1)
   51    23           1.5174557943          41.2920714113      DE        A1 (1)
   52   195           1.5174557943          41.2920714113      DE        A2 (4)
   53   151           1.5535444370          42.2740933034      PI        B2 (3)
   54    99           1.5535444370          42.2740933034      PI        B1 (2)
   55    24           1.6670503293          45.3627456570     SG+        A1 (1)
   56    25           1.7690029216          48.1370167355      DE        A1 (1)
   57   196           1.7690029216          48.1370167356      DE        A2 (4)
   58    26           1.7706575108          48.1820403974     SG+        A1 (1)
   59   152           1.8056458817          49.1341223716      PI        B2 (3)
   60   100           1.8056458817          49.1341223716      PI        B1 (2)
   61   153           1.9686432286          53.5695056716      PI        B2 (3)
   62   101           1.9686432286          53.5695056717      PI        B1 (2)
   63   197           2.1058290978          57.3025229555      PI        A2 (4)
   64    27           2.1058290978          57.3025229555      PI        A1 (1)
   65    28           2.1355850894          58.1122246506     SG+        A1 (1)
   66    29           2.1961714110          59.7608622768      DE        A1 (1)
   67   198           2.1961714110          59.7608622768      DE        A2 (4)
   68   102           2.2521140175          61.2831379902      PH        B1 (2)
   69   154           2.2521140175          61.2831379902      PH        B2 (3)
   70    30           2.3160312500          63.0224143098     SG+        A1 (1)
   71   155           2.3253346977          63.2755739931      PI        B2 (3)
   72   103           2.3253346977          63.2755739931      PI        B1 (2)
   73   104           2.3633729069          64.3106462877      PH        B1 (2)
   74   156           2.3633729069          64.3106462877      PH        B2 (3)
   75   199           2.3647471967          64.3480426143      DE        A2 (4)
   76    31           2.3647471967          64.3480426143      DE        A1 (1)
   77    32           2.4869636237          67.6737206664     SG+        A1 (1)
   78   105           2.5980680698          70.6970263477      PI        B1 (2)
   79   157           2.5980680698          70.6970263477      PI        B2 (3)
   80   158           2.8324699354          77.0754253804      PI        B2 (3)
   81   106           2.8324699354          77.0754253804      PI        B1 (2)
   82    33           2.9426157523          80.0726454352     SG+        A1 (1)
   83    34           3.0094690660          81.8918165864      DE        A1 (1)
   84   200           3.0094690660          81.8918165865      DE        A2 (4)
   85    35           3.4751488164          94.5636068159     SG+        A1 (1)
   86   201           3.7236554868         101.3258171012      PI        A2 (4)
   87    36           3.7236554868         101.3258171012      PI        A1 (1)
   88   159           3.7508949489         102.0670405486      PI        B2 (3)
   89   107           3.7508949489         102.0670405487      PI        B1 (2)
   90    37           3.9472047725         107.4089024232     SG+        A1 (1)
   91   160           4.0826536461         111.0946536529      PH        B2 (3)
   92   108           4.0826536461         111.0946536529      PH        B1 (2)
   93    38           4.1764164231         113.6460685268      DE        A1 (1)
   94   202           4.1764164231         113.6460685268      DE        A2 (4)
   95   161           4.2104521001         114.5722263828      PI        B2 (3)
   96   109           4.2104521001         114.5722263828      PI        B1 (2)
   97    39           4.2722399778         116.2535600117     SG+        A1 (1)
   98   162           4.2841161250         116.5767264081      PH        B2 (3)
   99   110           4.2841161250         116.5767264081      PH        B1 (2)
  100    40           4.3818783053         119.2369705787      DE        A1 (1)
  101   203           4.3818783053         119.2369705788      DE        A2 (4)
  102    41           4.5354201152         123.4150556335     SG+        A1 (1)
  103   163           4.7638608880         129.6312450885      PI        B2 (3)
  104   111           4.7638608880         129.6312450886      PI        B1 (2)
  105    42           5.0138572074         136.4339907832     SG+        A1 (1)
  106   164           5.1306607598         139.6123770314      PI        B2 (3)
  107   112           5.1306607598         139.6123770315      PI        B1 (2)
  108    43           5.1524303032         140.2047564225      DE        A1 (1)
  109   204           5.1524303032         140.2047564226      DE        A2 (4)
  110   165           5.8166326816         158.2786219950      PI        B2 (3)
  111   113           5.8166326816         158.2786219950      PI        B1 (2)
  112    44           5.8538868612         159.2923597606     SG+        A1 (1)
  113   205           5.9011931174         160.5796284357      PI        A2 (4)
  114    45           5.9011931174         160.5796284357      PI        A1 (1)
  115   166           6.1366534226         166.9868290758      PH        B2 (3)
  116   114           6.1366534226         166.9868290758      PH        B1 (2)
  117    46           6.2328379604         169.6041434109     SG+        A1 (1)
  118   206           6.3060362974         171.5959714225      DE        A2 (4)
  119    47           6.3060362974         171.5959714225      DE        A1 (1)
  120   167           6.3286814245         172.2121766592      PI        B2 (3)
  121   115           6.3286814245         172.2121766592      PI        B1 (2)
  122   116           6.4436945998         175.3418442673      PH        B1 (2)
  123   168           6.4436945998         175.3418442673      PH        B2 (3)
  124    48           6.5908292205         179.3455808423      DE        A1 (1)
  125   207           6.5908292205         179.3455808423      DE        A2 (4)
  126    49           7.0561515326         192.0076446810     SG+        A1 (1)
  127   208           7.3514246848         200.0424356346      DE        A2 (4)
  128    50           7.3514246848         200.0424356347      DE        A1 (1)
  129   169           7.4942303171         203.9283744463      PI        B2 (3)
  130   117           7.4942303171         203.9283744463      PI        B1 (2)
  131    51           7.7958424105         212.1356567575     SG+        A1 (1)
  132    52           8.2570035403         224.6844890714     SG+        A1 (1)
  133   170           8.4905756303         231.0403087617      PI        B2 (3)
  134   118           8.4905756303         231.0403087618      PI        B1 (2)
  135   171          10.1227503983         275.4540421499      PI        B2 (3)
  136   119          10.1227503983         275.4540421499      PI        B1 (2)
  137    53          10.5212505462         286.2977824606     SG+        A1 (1)
  138   209          10.6018790208         288.4917947954      PI        A2 (4)
  139    54          10.6018790208         288.4917947954      PI        A1 (1)
  140   172          10.8826064648         296.1307769052      PH        B2 (3)
  141   120          10.8826064648         296.1307769052      PH        B1 (2)
  142    55          11.1356128653         303.0154310705      DE        A1 (1)
  143   210          11.1356128653         303.0154310706      DE        A2 (4)
  144    56          11.1576657424         303.6155203650     SG+        A1 (1)
  145   173          11.3739207371         309.5001179391      PI        B2 (3)
  146   121          11.3739207371         309.5001179392      PI        B1 (2)
  147    57          11.6241604128         316.3094856951     SG+        A1 (1)
  148   174          11.8549853905         322.5905526612      PH        B2 (3)
  149   122          11.8549853905         322.5905526612      PH        B1 (2)
  150    58          12.2931891343         334.5146827411      DE        A1 (1)
  151   211          12.2931891343         334.5146827413      DE        A2 (4)
  152   123          12.6475942714         344.1585368079      PI        B1 (2)
  153   175          12.6475942714         344.1585368079      PI        B2 (3)
  154    59          12.8788041551         350.4500775987      DE        A1 (1)
  155   212          12.8788041551         350.4500775987      DE        A2 (4)
  156    60          13.3187611976         362.4219173610     SG+        A1 (1)
  157   176          14.1879559909         386.0739101303      PI        B2 (3)
  158   124          14.1879559909         386.0739101303      PI        B1 (2)
  159    61          15.6009535424         424.5235282484     SG+        A1 (1)
  160    62          18.0448855371         491.0262987601     SG+        A1 (1)
  161   177          19.4161266882         528.3396674546      PI        B2 (3)
  162   125          19.4161266882         528.3396674552      PI        B1 (2)
  163    63          20.6808695159         562.7550694421     SG+        A1 (1)
  164    64          26.5392776686         722.1704597988      DE        A1 (1)
  165   213          26.5392776686         722.1704597988      DE        A2 (4)
  166   178          27.0292644532         735.5036780550      PI        B2 (3)
  167   126          27.0292644532         735.5036780550      PI        B1 (2)
  168    65          28.2468773614         768.6366097340     SG+        A1 (1)
  169   179          33.7977254266         919.6828646313      PI        B2 (3)
  170   127          33.7977254266         919.6828646314      PI        B1 (2)
  171    66          35.0154763134         952.8195508985     SG+        A1 (1)
  172    67          36.8474872533        1002.6711029773     SG+        A1 (1)
  173    68          47.1236844768        1282.3006455185      DE        A1 (1)
  174   214          47.1236844768        1282.3006455185      DE        A2 (4)
  175   128          47.7279244180        1298.7428502254      PI        B1 (2)
  176   180          47.7279244180        1298.7428502254      PI        B2 (3)
  177    69          48.5922878580        1322.2633751870     SG+        A1 (1)
  178    70          64.2381842125        1748.0098595265     SG+        A1 (1)
  179   181          66.8593308396        1819.3348853444      PI        B2 (3)
  180   129          66.8593308396        1819.3348853450      PI        B1 (2)
  181    71          67.8350767455        1845.8862812895     SG+        A1 (1)
  182   130          98.6770975608        2685.1403345273      PH        B1 (2)
  183   182          98.6770975608        2685.1403345273      PH        B2 (3)
  184    72          98.7000319000        2685.7644096219      DE        A1 (1)
  185   215          98.7000319000        2685.7644096219      DE        A2 (4)
  186   131          98.7692671294        2687.6483959949      PI        B1 (2)
  187   183          98.7692671294        2687.6483959950      PI        B2 (3)
  188    73          98.7805585553        2687.9556513156     SG+        A1 (1)
  189   184         103.2843840031        2810.5109723418      PH        B2 (3)
  190   132         103.2843840031        2810.5109723418      PH        B1 (2)
  191    74         103.3353784761        2811.8986024974      DE        A1 (1)
  192   216         103.3353784761        2811.8986024984      DE        A2 (4)
  193   133         103.3630371824        2812.6512341591      PI        B1 (2)
  194   185         103.3630371824        2812.6512341591      PI        B2 (3)
  195    75         103.4261741179        2814.3692775175     SG+        A1 (1)
  196    76         115.1914463131        3134.5186100253      DE        A1 (1)
  197   217         115.1914463131        3134.5186100253      DE        A2 (4)
  198   186         115.4305663808        3141.0253978664      PI        B2 (3)
  199   134         115.4305663808        3141.0253978664      PI        B1 (2)
  200    77         116.0484606437        3157.8391555556     SG+        A1 (1)
  201   187         117.0461872211        3184.9886759828      PI        B2 (3)
  202   135         117.0461872211        3184.9886759829      PI        B1 (2)
  203    78         118.0849655502        3213.2552713613     SG+        A1 (1)
  204    79         122.9348812223        3345.2281861734     SG+        A1 (1)
  205   218         198.5802673021        5403.6437892313      DE        A2 (4)
  206    80         198.5802673021        5403.6437892313      DE        A1 (1)
  207   188         198.9077819768        5412.5559166148      PI        B2 (3)
  208   136         198.9077819768        5412.5559166151      PI        B1 (2)
  209    81         199.3410254476        5424.3450708025     SG+        A1 (1)
  210    82         216.7156218885        5897.1318759773     SG+        A1 (1)
  211   189         225.2710161614        6129.9359896744      PI        B2 (3)
  212   137         225.2710161614        6129.9359896748      PI        B1 (2)
  213    83         226.0696942517        6151.6691254027     SG+        A1 (1)
  214   138         395.5042036644       10762.2165222224      PI        B1 (2)
  215   190         395.5042036644       10762.2165222224      PI        B2 (3)
  216    84         396.3604830603       10785.5170691627     SG+        A1 (1)
  217    85         509.4653046232       13863.2557330990     SG+        A1 (1)
  218    86         895.5470777678       24369.0748858881     SG+        A1 (1)


  VSCF finished.

 @CHECKOUT-I, Total execution time (CPU/WALL):       49.34/       9.40 seconds.
--executable xvscf finished with status     0 in        9.42 seconds (walltime).
 --invoking executable--
/nfs/workspaces/public/cfour_mpi/bin/xvtran
 @GETMEM-I,  Allocated    3814 MB of main memory.
  Full RHF integral transformation
  Transformation of IIII integrals :
  1 pass through the AO integral file was required.
     4595633 AO integrals were read.
     8823826 MO integrals were written to HF2.
  Transformation of IIJJ integrals :
  1 pass through the AO integral file was required.
    10395857 AO integrals were read.
    14634056 MO integrals were written to HF2.
  Transformation of IJIJ integrals :
  1 pass through the AO integral file was required.
    19727147 AO integrals were read.
    27554558 MO integrals were written to HF2.
  Transformation of IJKL integrals :
  1 pass through the AO integral file was required.
    14595704 AO integrals were read.
    18600352 MO integrals were written to HF2.
  Summary of active molecular orbitals: 
------------------------------------------------------------------------
 
  Index      Eigenvalue    Symmetry    Index      Eigenvalue    Symmetry
------------------------------------------------------------------------
     1       -20.6651646        1       110         4.2104521        2
     2       -11.3602874        1       111         4.2841161        2
     3        -1.5217199        1       112         4.7638609        2
     4        -0.8046682        1       113         5.1306608        2
     5        -0.5547364        1       114         5.8166327        2
     6        -0.6403546        2       115         6.1366534        2
     7        -0.6403546        3       116         6.3286814        2
     8         0.0596344        1       117         6.4436946        2
     9         0.0756763        1       118         7.4942303        2
    10         0.1559471        1       119         8.4905756        2
    11         0.2279112        1       120        10.1227504        2
    12         0.2281434        1       121        10.8826065        2
    13         0.3015371        1       122        11.3739207        2
    14         0.3922237        1       123        11.8549854        2
    15         0.5080957        1       124        12.6475943        2
    16         0.5344660        1       125        14.1879560        2
    17         0.6450476        1       126        19.4161267        2
    18         0.7688375        1       127        27.0292645        2
    19         0.7799249        1       128        33.7977254        2
    20         0.8724276        1       129        47.7279244        2
    21         0.8913055        1       130        66.8593308        2
    22         0.9108399        1       131        98.6770976        2
    23         1.1959340        1       132        98.7692671        2
    24         1.4743721        1       133       103.2843840        2
    25         1.5174558        1       134       103.3630372        2
    26         1.6670503        1       135       115.4305664        2
    27         1.7690029        1       136       117.0461872        2
    28         1.7706575        1       137       198.9077820        2
    29         2.1058291        1       138       225.2710162        2
    30         2.1355851        1       139       395.5042037        2
    31         2.1961714        1       140         0.0632134        3
    32         2.3160312        1       141         0.1410962        3
    33         2.3647472        1       142         0.1667196        3
    34         2.4869636        1       143         0.3211812        3
    35         2.9426158        1       144         0.3957973        3
    36         3.0094691        1       145         0.6228182        3
    37         3.4751488        1       146         0.7489918        3
    38         3.7236555        1       147         0.8237938        3
    39         3.9472048        1       148         0.8810586        3
    40         4.1764164        1       149         1.0771661        3
    41         4.2722400        1       150         1.4474527        3
    42         4.3818783        1       151         1.5535444        3
    43         4.5354201        1       152         1.8056459        3
    44         5.0138572        1       153         1.9686432        3
    45         5.1524303        1       154         2.2521140        3
    46         5.8538869        1       155         2.3253347        3
    47         5.9011931        1       156         2.3633729        3
    48         6.2328380        1       157         2.5980681        3
    49         6.3060363        1       158         2.8324699        3
    50         6.5908292        1       159         3.7508949        3
    51         7.0561515        1       160         4.0826536        3
    52         7.3514247        1       161         4.2104521        3
    53         7.7958424        1       162         4.2841161        3
    54         8.2570035        1       163         4.7638609        3
    55        10.5212505        1       164         5.1306608        3
    56        10.6018790        1       165         5.8166327        3
    57        11.1356129        1       166         6.1366534        3
    58        11.1576657        1       167         6.3286814        3
    59        11.6241604        1       168         6.4436946        3
    60        12.2931891        1       169         7.4942303        3
    61        12.8788042        1       170         8.4905756        3
    62        13.3187612        1       171        10.1227504        3
    63        15.6009535        1       172        10.8826065        3
    64        18.0448855        1       173        11.3739207        3
    65        20.6808695        1       174        11.8549854        3
    66        26.5392777        1       175        12.6475943        3
    67        28.2468774        1       176        14.1879560        3
    68        35.0154763        1       177        19.4161267        3
    69        36.8474873        1       178        27.0292645        3
    70        47.1236845        1       179        33.7977254        3
    71        48.5922879        1       180        47.7279244        3
    72        64.2381842        1       181        66.8593308        3
    73        67.8350767        1       182        98.6770976        3
    74        98.7000319        1       183        98.7692671        3
    75        98.7805586        1       184       103.2843840        3
    76       103.3353785        1       185       103.3630372        3
    77       103.4261741        1       186       115.4305664        3
    78       115.1914463        1       187       117.0461872        3
    79       116.0484606        1       188       198.9077820        3
    80       118.0849656        1       189       225.2710162        3
    81       122.9348812        1       190       395.5042037        3
    82       198.5802673        1       191         0.2281434        4
    83       199.3410254        1       192         0.5344660        4
    84       216.7156219        1       193         0.7688375        4
    85       226.0696943        1       194         0.8913055        4
    86       396.3604831        1       195         1.5174558        4
    87       509.4653046        1       196         1.7690029        4
    88       895.5470778        1       197         2.1058291        4
    89         0.0632134        2       198         2.1961714        4
    90         0.1410962        2       199         2.3647472        4
    91         0.1667196        2       200         3.0094691        4
    92         0.3211812        2       201         3.7236555        4
    93         0.3957973        2       202         4.1764164        4
    94         0.6228182        2       203         4.3818783        4
    95         0.7489918        2       204         5.1524303        4
    96         0.8237938        2       205         5.9011931        4
    97         0.8810586        2       206         6.3060363        4
    98         1.0771661        2       207         6.5908292        4
    99         1.4474527        2       208         7.3514247        4
   100         1.5535444        2       209        10.6018790        4
   101         1.8056459        2       210        11.1356129        4
   102         1.9686432        2       211        12.2931891        4
   103         2.2521140        2       212        12.8788042        4
   104         2.3253347        2       213        26.5392777        4
   105         2.3633729        2       214        47.1236845        4
   106         2.5980681        2       215        98.7000319        4
   107         2.8324699        2       216       103.3353785        4
   108         3.7508949        2       217       115.1914463        4
   109         4.0826536        2       218       198.5802673        4
------------------------------------------------------------------------
  -20.6651645781090       -11.3602873599972       -1.52171990986315     
 -0.804668190092022      -0.554736365085043      -0.640354645443817     
 -0.640354645443815       5.963435871108488E-002  7.567631581638459E-002
  0.155947128122504       0.227911229639532       0.228143434288530     
  0.301537129942941       0.392223722058828       0.508095729142168     
  0.534466047578574       0.645047620234476       0.768837494608883     
  0.779924946726564       0.872427601152543       0.891305483633512     
  0.910839907666606        1.19593401095634        1.47437212384551     
   1.51745579430111        1.66705032927662        1.76900292160622     
   1.77065751083453        2.10582909781284        2.13558508938488     
   2.19617141099815        2.31603124998926        2.36474719673071     
   2.48696362370162        2.94261575231656        3.00946906603638     
   3.47514881642903        3.72365548681275        3.94720477251451     
   4.17641642309281        4.27223997776410        4.38187830533918     
   4.53542011515128        5.01385720739367        5.15243030321296     
   5.85388686121044        5.90119311742567        6.23283796041255     
   6.30603629738645        6.59082922047648        7.05615153256156     
   7.35142468481324        7.79584241047730        8.25700354034238     
   10.5212505462188        10.6018790207987        11.1356128652591     
   11.1576657423803        11.6241604127753        12.2931891342596     
   12.8788041551275        13.3187611976005        15.6009535424222     
   18.0448855371350        20.6808695158828        26.5392776685802     
   28.2468773614077        35.0154763134352        36.8474872533418     
[...]
 Convergence information after     9 iterations: 
 Largest element of residual vector :  0.87148327E-05.
 Largest element of DIIS residual   :  0.47316287E-05.
 Convergence information after    10 iterations: 
 Largest element of residual vector :  0.49943083E-05.
 Largest element of DIIS residual   :  0.33507949E-05.
 Convergence information after    11 iterations: 
 Largest element of residual vector :  0.19119608E-05.
 Largest element of DIIS residual   :  0.72936567E-06.
 Convergence information after    12 iterations: 
 Largest element of residual vector :  0.77863793E-06.
 Largest element of DIIS residual   :  0.39404379E-06.
 Convergence information after    13 iterations: 
 Largest element of residual vector :  0.29710202E-06.
 Largest element of DIIS residual   :  0.21184087E-06.
 Convergence information after    14 iterations: 
 Largest element of residual vector :  0.16372551E-06.
 Largest element of DIIS residual   :  0.87337622E-07.
 Perturbed amplitude equations converged in    14 iterations.
  Dominant contributions to perturbed wavefunction:
    7    7  141   28   0.2110415252 ABAB
    7    7   28  141   0.2110415252 ABAB
    7    7  141   37   0.1988175903 ABAB
    7    7   37  141   0.1988175903 ABAB
    7    7  141   55   0.1762650184 ABAB
    7    7   55  141   0.1762650184 ABAB
    7    7  142   28   0.1648187726 ABAB
    7    7   28  142   0.1648187726 ABAB
    7    7  142   37   0.1531813482 ABAB
    7    7   37  142   0.1531813482 ABAB
    5    5  141   44   0.1443738149 ABAB
    5    5   44  141   0.1443738149 ABAB
    7    7  141   53  -0.1401961902 ABAB
    7    7   53  141  -0.1401961902 ABAB
    7    6   28   90   0.1387977453 ABAB
    6    7   90   28   0.1387977453 ABAB
    7    7  141   44   0.1373940732 ABAB
    7    7   44  141   0.1373940732 ABAB
    7    7  141   63   0.1340870536 ABAB
    7    7   63  141   0.1340870536 ABAB
  norm of converged amps    2.45151563373345     
 Starting iterative solution of the perturbed Lambda equations.
 The DIIS procedure is used to accelerate convergence.
 Convergence criterion is 10**(-7).
 Maximum number of iterations is 100.
 Convergence information after     1 iterations: 
 Largest element of residual vector : -0.68046952E-01.
 Largest element of DIIS residual   : -0.68046952E-01.
 Convergence information after     2 iterations: 
 Largest element of residual vector :  0.75840793E-02.
 Largest element of DIIS residual   :  0.51335499E-02.
 Convergence information after     3 iterations: 
 Largest element of residual vector : -0.43453222E-02.
 Largest element of DIIS residual   : -0.37714410E-02.
 Convergence information after     4 iterations: 
 Largest element of residual vector : -0.26854295E-02.
 Largest element of DIIS residual   : -0.21225008E-02.
 Convergence information after     5 iterations: 
 Largest element of residual vector : -0.15684220E-02.
 Largest element of DIIS residual   : -0.72703875E-03.
 Convergence information after     6 iterations: 
 Largest element of residual vector : -0.50950773E-03.
 Largest element of DIIS residual   :  0.12075839E-03.
 Convergence information after     7 iterations: 
 Largest element of residual vector : -0.98024913E-04.
 Largest element of DIIS residual   : -0.45484314E-04.
 Convergence information after     8 iterations: 
 Largest element of residual vector : -0.19985233E-04.
 Largest element of DIIS residual   :  0.19170858E-04.
 Convergence information after     9 iterations: 
 Largest element of residual vector :  0.71713700E-05.
 Largest element of DIIS residual   : -0.39393921E-05.
 Convergence information after    10 iterations: 
 Largest element of residual vector :  0.40405162E-05.
 Largest element of DIIS residual   :  0.28574805E-05.
 Convergence information after    11 iterations: 
 Largest element of residual vector :  0.15104056E-05.
 Largest element of DIIS residual   :  0.66762889E-06.
 Convergence information after    12 iterations: 
 Largest element of residual vector :  0.69646070E-06.
 Largest element of DIIS residual   :  0.46409854E-06.
 Convergence information after    13 iterations: 
 Largest element of residual vector :  0.34305789E-06.
 Largest element of DIIS residual   :  0.26796634E-06.
 Convergence information after    14 iterations: 
 Largest element of residual vector :  0.20446993E-06.
 Largest element of DIIS residual   :  0.10556505E-06.
 Convergence information after    15 iterations: 
 Largest element of residual vector :  0.73574051E-07.
 Largest element of DIIS residual   :  0.33548592E-07.
 Perturbed Lambda equations converged in    15 iterations.
  Dominant contributions to perturbed wavefunction:
    7    7  141   28   0.1988611437 ABAB
    7    7   28  141   0.1988611437 ABAB
    7    7  141   37   0.1883305814 ABAB
    7    7   37  141   0.1883305814 ABAB
    7    7  141   55   0.1647306007 ABAB
    7    7   55  141   0.1647306007 ABAB
    7    7  142   28   0.1570383247 ABAB
    7    7   28  142   0.1570383247 ABAB
    7    7  142   37   0.1465771227 ABAB
    7    7   37  142   0.1465771227 ABAB
    5    5  141   44   0.1385246698 ABAB
    5    5   44  141   0.1385246698 ABAB
    7    7  141   53  -0.1318870289 ABAB
    7    7   53  141  -0.1318870289 ABAB
    7    6   28   90   0.1289191278 ABAB
    6    7   90   28   0.1289191278 ABAB
    7    7  141   44   0.1270257223 ABAB
    7    7   44  141   0.1270257223 ABAB
    7    7  141   63   0.1268390458 ABAB
    7    7   63  141   0.1268390458 ABAB
        The DBOC first-order density matrix is being calculated 
             (Symmetry block 3, perturbation   2)
 term   7.04649033969382     
 final tnorm  0.887468610165392     
  norm contr. I: |<0|L dT/dx|0>|^2   0.000000000000000E+000
  norm contr. II: <0|[nabla(1+L)e-T][nabla e^T]|0>   7.04649033969382     
  total norm contribution   7.04649033969382     
 oo  1.192500318436731E-002
 vv  -52.9004913999438     
 vo  4.500495878012459E-002
  Correlated perturbed 1-el contribution to DBOC  -52.8435614379793       cm**-1
  SUM_I |dc_I/dx|^2 contribution to DBOC   26.5279898803952       cm**-1
 
 
  The total diagonal Born-Oppenheimer correction (DBOC) is:      0.0040115910 a.u.
  The total diagonal Born-Oppenheimer correction (DBOC) is:        880.442461 cm-1
 
 Total CC energy including DBOC  -113.281755847539     
 First-order density matrix is being calculated  (Symmetry block 3, perturbation   2)
 Calculation of the contributions of <pq||rs> to dI(i,j)/dx required   1.7 seconds.
 Calculation of the contributions of <pq||rs> to dI(a,b)/dx required  15.3 seconds.
 Calculation of the contributions of <pq||rs> to dI(i,a)/dx required   9.4 seconds.
 First-order Z-vector equations are solved for 1 perturbation.
 Convergence reached after  18 iterations.
        U*G(pq,rs) contribution is being calculated
             (Symmetry block 3, perturbation   2)

 CCSD contribution to force constants 

        0.0000000000        0.0000000000        0.0000000000
        0.0000000000        0.0000000000        0.0000000000
        0.0000000000        0.0000000000        0.0000000000
        0.0000000000        0.0000000000        0.0000000000
        0.0000000000        0.0000000000        0.0000000000
        0.0000000000        0.0000000000        0.0000000000
        0.0000000000        0.0000000000        0.0000000000
        0.0000000000        0.0000000000        0.0000000000
        0.0000000000        0.0000000000        0.0000000000
        0.0000000000        0.0000000000        0.0000000000
        0.0000000000        0.0000000000        0.0000000000
        0.0000000000       -2.0895755602        2.0895755602

 CCSD contribution to dipole derivatives 

        0.0000000000        0.0000000000        0.0000000000
        0.0000000000        0.0000000000        0.0000000000
        0.0000000000        0.0000000000        0.0000000000
        0.0000000000        0.0000000000       -0.0444798275
        0.0000000000        0.0000000000        0.0000000000
        0.0000000000        0.0000000000        0.0000000000
 @CHECKOUT-I, Total execution time (CPU/WALL):      993.99/     255.85 seconds.
--executable xsdcc finished with status     0 in      255.88 seconds (walltime).
 --invoking executable--
/nfs/workspaces/public/cfour_mpi/bin/xanti
 @GETMEM-I,  Allocated    3814 MB of main memory.
 CCSD MO derivative gammas will be sorted to Mulliken order.
 @CHECKOUT-I, Total execution time (CPU/WALL):       10.31/       9.74 seconds.
--executable xanti finished with status     0 in        9.76 seconds (walltime).
 --invoking executable--
/nfs/workspaces/public/cfour_mpi/bin/xbcktrn
 @GETMEM-I,  Allocated    3814 MB of main memory.
 CCSD MO derivative gammas will be transformed to the AO basis.
 @CHECKOUT-I, Total execution time (CPU/WALL):       19.69/       3.55 seconds.
--executable xbcktrn finished with status     0 in        3.57 seconds (walltime).
 --invoking executable--
/nfs/workspaces/public/cfour_mpi/bin/xvdint
 @GETMEM-I,  Allocated    3814 MB of main memory.
 One- and two-electron integral derivatives are calculated
 for RHF-CC/MBPT hessians and dipole derivatives.
 Spherical gaussians are used.
  magnet F F
                    8722  records have been written to the Sort file.
  Total length of Sort file :             178609116  words.
 Evaluation of 2el integral derivatives

                      Two-electron integral gradient
                      ------------------------------

                         C #1 z     0.0000000000
                         O #2 z     0.0000000000


 C #1       0.0000000000           -0.6523074874            0.0000000000
 O #2       0.0000000000            0.6523074874            0.0000000000


 Evaluation of 2e integral derivatives required  351.73 seconds.
  contribution to Hessian
        0.0000000000        0.0000000000        0.0000000000
        0.0000000000       -0.6523074874        0.6523074874
 @CHECKOUT-I, Total execution time (CPU/WALL):      351.72/      69.54 seconds.
--executable xvdint finished with status     0 in       69.56 seconds (walltime).
 --invoking executable--
/nfs/workspaces/public/cfour_mpi/bin/xanti
 @GETMEM-I,  Allocated    3814 MB of main memory.
 CCSD MO gammas will be sorted to Mulliken order.
 @CHECKOUT-I, Total execution time (CPU/WALL):       11.18/       9.84 seconds.
--executable xanti finished with status     0 in        9.86 seconds (walltime).
 --invoking executable--
/nfs/workspaces/public/cfour_mpi/bin/xbcktrn
 @GETMEM-I,  Allocated    3814 MB of main memory.
 CCSD MO gammas will be transformed to the AO basis.
 @CHECKOUT-I, Total execution time (CPU/WALL):       29.12/       5.49 seconds.
--executable xbcktrn finished with status     0 in        5.50 seconds (walltime).
 --invoking executable--
/nfs/workspaces/public/cfour_mpi/bin/xvdint
 @GETMEM-I,  Allocated    3814 MB of main memory.
 One- and two-electron integral derivatives are calculated
 for RHF-CC/MBPT hessians and dipole derivatives.
 Spherical gaussians are used.
  magnet F F

                     Kinetic energy integral gradient
                     --------------------------------

                         C #1 z    -1.5069294140
                         O #2 z     1.5069294140


 C #1       0.0000000000            0.0000000000           -1.5069294140
 O #2       0.0000000000            0.0000000000            1.5069294140



                   Nuclear attraction integral gradient
                   ------------------------------------

                         C #1 z    23.6860892793
                         O #2 z   -23.6860892793


 C #1       0.0000000000            0.0000000000           23.6860892793
 O #2       0.0000000000            0.0000000000          -23.6860892793



                      Reorthonormalization gradient
                      -----------------------------

                         C #1 z     0.0000000000
                         O #2 z     0.0000000000


 C #1       0.0000000000            0.0000000000            0.0000000000
 O #2       0.0000000000            0.0000000000            0.0000000000



                     Kinetic energy integral Hessian
                     -------------------------------


           Symmetry 1

           C #1 z      O #2 z

 C #1 z    1.093272
 O #2 z   -1.093272    1.093272


           Symmetry 2

           C #1 x      O #2 x

 C #1 x   -2.007637
 O #2 x    2.007637   -2.007637


           Symmetry 3

           C #1 y      O #2 y

 C #1 y   -2.007637
 O #2 y    2.007637   -2.007637




           C #1 x      C #1 y      C #1 z      O #2 x      O #2 y      O #2 z

 C #1 x   -2.007637
 C #1 y    0.000000   -2.007637
 C #1 z    0.000000    0.000000    1.093272

 O #2 x    2.007637    0.000000    0.000000   -2.007637
 O #2 y    0.000000    2.007637    0.000000    0.000000   -2.007637
 O #2 z    0.000000    0.000000   -1.093272    0.000000    0.000000    1.093272




                   Nuclear attraction integral Hessian
                   -----------------------------------


           Symmetry 1

           C #1 z      O #2 z

 C #1 z  -13.321366
 O #2 z   13.321366  -13.321366


           Symmetry 2

           C #1 x      O #2 x

 C #1 x   21.243702
 O #2 x  -21.243702   21.243702


           Symmetry 3

           C #1 y      O #2 y

 C #1 y   21.243702
 O #2 y  -21.243702   21.243702




           C #1 x      C #1 y      C #1 z      O #2 x      O #2 y      O #2 z

 C #1 x   21.243702
 C #1 y    0.000000   21.243702
 C #1 z    0.000000    0.000000  -13.321366

 O #2 x  -21.243702    0.000000    0.000000   21.243702
 O #2 y    0.000000  -21.243702    0.000000    0.000000   21.243702
 O #2 z    0.000000    0.000000   13.321366    0.000000    0.000000  -13.321366




                Highest order reorthonormalization Hessian
                ------------------------------------------


           Symmetry 1

           C #1 z      O #2 z

 C #1 z    0.000000
 O #2 z    0.000000    0.000000


           Symmetry 2

           C #1 x      O #2 x

 C #1 x    0.000000
 O #2 x    0.000000    0.000000


           Symmetry 3

           C #1 y      O #2 y

 C #1 y    0.000000
 O #2 y    0.000000    0.000000




           C #1 x      C #1 y      C #1 z      O #2 x      O #2 y      O #2 z




                Electronic contributions to dipole moment
                -----------------------------------------

                               au             Debye

                    z      0.54521918      1.38580917

  Conversion factor used: 1 a.u. =   2.54174691 Debye 



   Electronic contributions to static part of dipole moment derivatives
   --------------------------------------------------------------------


                     Total dipole moment derivatives
                     -------------------------------


           Symmetry 1
                              Ez

               C #1 z    -5.75155857
               O #2 z    -8.24844143

           Symmetry 2
                              Ex

               C #1 x    -5.79773674
               O #2 x    -8.20226326

           Symmetry 3
                              Ey

               C #1 y    -5.79773674
               O #2 y    -8.20226326



                       Ex          Ey          Ez

      C #1    x   -5.797737    0.000000    0.000000
      C #1    y    0.000000   -5.797737    0.000000
      C #1    z    0.000000    0.000000   -5.751559

      O #2    x   -8.202263    0.000000    0.000000
      O #2    y    0.000000   -8.202263    0.000000
      O #2    z    0.000000    0.000000   -8.248441

 Evaluation of 1e integral derivatives required    1.73 seconds.
                    8815  records have been written to the Sort file.
  Total length of Sort file :             180513570  words.
 Evaluation of 2el integral derivatives

                      Two-electron integral gradient
                      ------------------------------

                         C #1 z   -11.1717787258
                         O #2 z    11.1717787258


 C #1       0.0000000000            0.0000000000          -11.1717787258
 O #2       0.0000000000            0.0000000000           11.1717787258


 Evaluation of 2e integral derivatives required  661.52 seconds.

                            Molecular gradient
                            ------------------

                         C #1 z     0.4481417268
                         O #2 z    -0.4481417268


 C #1       0.0000000000            0.0000000000            0.4481417268
 O #2       0.0000000000            0.0000000000           -0.4481417268


  Molecular gradient norm 0.634E+00

                            Molecular hessian
                            -----------------


           Symmetry 1

           C #1 z      O #2 z

 C #1 z   65.934980
 O #2 z  -65.934980   65.934980


           Symmetry 2

           C #1 x      O #2 x

 C #1 x    2.833461
 O #2 x   -2.833461    2.833461


           Symmetry 3

           C #1 y      O #2 y

 C #1 y    2.833461
 O #2 y   -2.833461    2.833461




           C #1 x      C #1 y      C #1 z      O #2 x      O #2 y      O #2 z

 C #1 x    2.833461
 C #1 y    0.000000    2.833461
 C #1 z    0.000000    0.000000   65.934980

 O #2 x   -2.833461    0.000000    0.000000    2.833461
 O #2 y    0.000000   -2.833461    0.000000    0.000000    2.833461
 O #2 z    0.000000    0.000000  -65.934980    0.000000    0.000000   65.934980




                           Total dipole moment
                           -------------------

                               au             Debye

                    z     -0.04719370     -0.11995444

  Conversion factor used: 1 a.u. =   2.54174691 Debye 



                     Total dipole moment derivatives
                     -------------------------------


           Symmetry 1
                              Ez

               C #1 z     0.71558381
               O #2 z    -0.71558381

           Symmetry 2
                              Ex

               C #1 x    -0.02518333
               O #2 x     0.02518333

           Symmetry 3
                              Ey

               C #1 y    -0.02518333
               O #2 y     0.02518333



                       Ex          Ey          Ez

      C #1    x   -0.025183    0.000000    0.000000
      C #1    y    0.000000   -0.025183    0.000000
      C #1    z    0.000000    0.000000    0.715584

      O #2    x    0.025183    0.000000    0.000000
      O #2    y    0.000000    0.025183    0.000000
      O #2    z    0.000000    0.000000   -0.715584

 @CHECKOUT-I, Total execution time (CPU/WALL):      663.24/     110.88 seconds.
--executable xvdint finished with status     0 in      110.91 seconds (walltime).
 --invoking executable--
/nfs/workspaces/public/cfour_mpi/bin/xjoda
  @GTFLGS-I, Hessian will be transformed to curvilinear coordinates.
  @GTFLGS-I, Hessian will be transformed to curvilinear coordinates.
  igrd and ihes are                      0                     1
  gradient from JOBARC 
   0.000000000000000   0.000000000000000   0.448141726803110
   0.000000000000000   0.000000000000000  -0.448141726803110
 
  @PROJFCM-I, Projecting force constant matrix onto totally symmetric subspace.
  Largest difference between matrix elements of symmetrized
  and unsymmetrized FCM :     0.4449329793E-11.
  read isotopes from ZMAT file 
 
  Summary of diagonal Born-Oppenheimer correction at the correlated level
  The total diagonal Born-Oppenheimer correction (DBOC) is:      0.0040115910 a.u.
  The total diagonal Born-Oppenheimer correction (DBOC) is:        880.442461 cm-1
  The total diagonal Born-Oppenheimer correction (DBOC) is:            10.532 kJ/mole
  hellooooooo 
  readis is  F
 
 @CHECKOUT-I, Total execution time (CPU/WALL):        0.01/       0.03 seconds.
--executable xjoda finished with status     0 in        0.05 seconds (walltime).
  The final electronic energy is      -113.281755847539060 a.u. 
  This computation required                         2696.82 seconds (walltime).
