 --invoking executable--
/nfs/workspaces/public/cfour_mpi/bin/xjoda


   *************************************************************************
         <<<     CCCCCC     CCCCCC   |||     CCCCCC     CCCCCC   >>>
       <<<      CCC        CCC       |||    CCC        CCC         >>>
      <<<      CCC        CCC        |||   CCC        CCC            >>>
    <<<        CCC        CCC        |||   CCC        CCC              >>>
      <<<      CCC        CCC        |||   CCC        CCC            >>>
       <<<      CCC        CCC       |||    CCC        CCC         >>>
         <<<     CCCCCC     CCCCCC   |||     CCCCCC     CCCCCC   >>>
   *************************************************************************

     ****************************************************************
     * CFOUR Coupled-Cluster techniques for Computational Chemistry *
     ****************************************************************
 

   Department of Chemistry                Institut fuer Physikalische Chemie
   University of Florida                  Universitaet Mainz
   Gainesville, FL 32611, USA             D-55099 Mainz, Germany

   Department of Chemistry                Fakultaet fuer Chemie und Biowiss.
   Johns Hopkins University               Karlsruher Institut fuer Technologie
   Baltimore, MD 21218, USA               D-76131 Karlsruhe, Germany

   Department of Chemistry                Department of Physical Chemistry
   Southern Methodist University          Eotvos Lorand University
   Dallas, TX 75275, USA                  H-1053 Budapest, Hungary

 
                       Version 2.1
 
                     vincent.theory.phys.ucl.ac.uk                     
                     Fri 28 Feb 00:28:03 GMT 2025                      
                     integer*8 version is running
 
********************************************************************************
*                          Input from ZMAT file                                *
********************************************************************************
Carbon Monoxide DBOC calculation                                                
C                                                                               
O 1 r                                                                           
                                                                                
r=1.4896551724137932                                                            
                                                                                
                                                                                
*CFOUR(CALC=CCSD,BASIS=AUG-PCVQZ,SCF_CONV=10                                    
CC_CONV=14,DBOC=ON,MEMORY=500000000                                             
ZFIELD=200)                                                                     
                                                                                
%isotopes                                                                       
13                                                                              
16                                                                              
********************************************************************************
  @GTFLGS-I, Hessian will be transformed to curvilinear coordinates.
    -------------------------------------------------------------------
                    CFOUR Control Parameters 
    -------------------------------------------------------------------
        External           Internal           Value            Units
          Name               Name
    -------------------------------------------------------------------
       ABCDTYPE             IABCDT         STANDARD    [  0]    ***   
       ANHARMONIC           IANHAR         OFF         [  0]    ***   
       ANH_ALGORIT          IANALG         STANDARD    [  0]    ***   
       ANH_DERIVAT          IANDER         SECOND      [  1]    ***   
       ANH_MODE             ANHMOD         VIBRATION   [  0]    ***   
       ANH_STEPSIZ          ICUBST             50000          x 10-6  
       ANH_SYMMETR          IANHSM         ABELIAN     [  0]    ***   
       AO_LADDERS           IAOLAD         SINGLEPASS  [  1]    ***   
       AV_SCF               IAVSCF         OFF         [  0]    ***   
       BASIS                IBASIS         AUG-PCVQZ   [ 52]    ***   
       BOTHVECTORS          BOTHVC         OFF         [  0]    ***   
       BOX_POTENT           IPIAB          OFF         [  0]    ***   
       BREIT                IBREIT         OFF         [  0]    ***   
       BRUCK_CONV           IBRTOL          10D-  4             ***   
       BRUECKNER            IBRKNR         OFF         [  0]    ***   
       BUFFERSIZE           IBUFFS              4096            ***   
       CACHE_RECS           ICHREC             10               ***   
       CALCLEVEL            ICLLVL         CCSD        [ 10]    ***   
       CCORBOPT             ICCORB         OFF         [  0]  x 0.01  
       CC_CONV              ICCCNV          10D- 14             ***   
       CC_EXPORDER          ICCEOR              5               ***   
       CC_EXTRAPOL          ICCEXT         DIIS        [  1]    ***   
       CC_GUESS             ICCGES         MP2         [  0]    ***   
       CC_MAXCYC            ICCCYC            100              cycles 
       CC_PROGRAM           ICCPRO         VCC         [  0]    ***   
       CHARGE               ICHRGE              0               ***   
       CHOLESKY             ICHOLE         OFF         [  0]    ***   
       CIS_CONV             ICISTL              5               ***   
       COMM_SIZE            IPSIZE            ***               ***   
       CONSTANT             ICONST         OLD         [  1]    ***   
       CONTINUUM            ICONTU         NONE        [  0]    ***   
       CONTRACTION          ICNTYP         GENERAL     [  1]    ***   
       COORDINATES          ICOORD         INTERNAL    [  0]    ***   
       CPHF_CONVER          ICPHFT          10D- 16             ***   
       CPHF_MAXCYC          ICPHFC             64              cycles 
       CUBIC                ICUBIC         OFF         [  0]    ***   
       CURVILINEAR          ICURVY         ON          [  1]    ***   
       DBOC                 IDBOC          ON          [  1]    ***   
       DCT                  IDCT           OFF         [  0]    ***   
       DERIV_LEV            IDRLVL         SECOND      [  2]    ***   
       DEVMEM_SIZE          IDVMEM          50000000           MByte  
       DIAG_MRCC            IEOMST          10D-  0             ***   
       DIFF_TYPE            IDIFTY         RELAXED     [  0]    ***   
       DIRECT               IDIRCT         OFF         [  0]    ***   
       DROPMO               IDRPMO      NONE         
       ECP                  IECP           OFF         [  0]    ***   
       EIGENVECTOR          IVEC                1               ***   
       EL_ANHARM            IELANH         OFF         [  0]    ***   
       EOMFOLLOW            IEOMSR         ENERGY      [  0]    ***   
       EOMIP                IEOMIP         OFF         [  0]    ***   
       EOMLEVEL             HBARFM         SAME        [  0]    ***   
       EOM_MRCC             IMRCCE         NEW         [  1]    ***   
       EOM_NONIT            EOMNON         OFF         [  0]    ***   
       EOM_NSING            IEOMSI          10D-  0             ***   
       EOM_NSTATES          IMRCCD         DAVIDSON    [  0]    ***   
       EOM_NTRIP            IEOMTR          10D-  0             ***   
       EOM_ORDER            IEXORD         ENERGY      [  0]    ***   
       EOM_PROPSTA          IEOMST              0               ***   
       ESTATE_CONV          IEXTOL          10D-  5             ***   
       ESTATE_DIAG          IEXDIG         ITERATIVE   [  0]    ***   
       ESTATE_LOCK          IESLOC         ON          [  1]    ***   
       ESTATE_MAXC          IEXMXC             40               ***   
       ESTATE_PROP          IEXPRP         OFF         [  0]    ***   
       EVAL_HESS            IRECAL              0            # of cyc.
       EXCITATION           IEXCIT              0               ***   
       EXCITE               IEXCIT         NONE        [  0]    ***   
       EXTERN_POT           IEXPOT         OFF         [  0]    ***   
       FCGRADNEW            IFCGNW         OFF         [  0]    ***   
       FC_FIELD             IFINFC              0             x 10-6  
       FD_CALTYPE           IFDCAL         GRADONLY    [  0]    ***   
       FD_PROJECT           IFDPRJ         OFF         [  1]    ***   
       FD_STEPSIZE          IDISFD              0            10-4 bohr
       FD_USEGROUP          IFDGRP         FULL        [  0]    ***   
       FILE_RECSIZ          IFLREC              4096           words  
       FINITE_PERT          IFIPER              0             x 10-6  
       FIXGEOM              IFIXGM         OFF         [  0]    ***   
       FOCK                 IFOCK          AO          [  1]    ***   
       FREQ_ALGORI          IVIALG         STANDARD    [  0]    ***   
       FROZEN_CORE          IFROCO         OFF         [  0]    ***   
       GAMMA_ABCD           IGABCD         STORE       [  0]    ***   
       GAMMA_ABCI           IGABCI         STORE       [  0]    ***   
       GENBAS_1             IGNBS1              0               ***   
       GENBAS_2             IGNBS2              0               ***   
       GENBAS_3             IGNBS3              0               ***   
       GENBAS_4             IGNBS4              0               ***   
       GEO_CONV             ICONTL              5              H/bohr 
       GEO_MAXCYC           IOPTCY             50               ***   
       GEO_MAXSTEP          IMXSTP            300            millibohr
       GEO_METHOD           INR            SINGLE_POINT[  5]    ***   
       GIAO                 IGIAO          OFF         [  1]    ***   
       GIMIC                IGIMIC         OFF         [  0]    ***   
       GRID                 IGRID          OFF         [  0]    ***   
       GRID_ALGO            IGALGO         SERIAL      [  0]    ***   
       GUESS                IGUESS         MOREAD      [  0]    ***   
       HBAR                 IHBAR          OFF         [  0]    ***   
       HESS_TYPE            IHESTP         SCF         [  0]    ***   
       HF2_FILE             IHF2Fl         USE         [  1]    ***   
       HFSTABILITY          ISTABL         OFF         [  0]    ***   
       INCORE               INCORE         OFF         [  0]    ***   
       INPUT_MRCC           IMRCC          ON          [  1]    ***   
       INTEGRALS            INTTYP         VMOL        [  1]    ***   
       JODA_PRINT           IJPRNT              0               ***   
       KEYWORD_OUT          IDMPKW         NO          [  0]    ***   
       LINDEP_TOL           ILINDP              8               ***   
       LINEQ_CONV           IZTACN          10D-  7           cycles  
       LINEQ_EXPOR          ILMAXD              5               ***   
       LINEQ_MAXCY          ILMAXC            100               ***   
       LINEQ_TYPE           ILTYPE         DIIS        [  1]    ***   
       LOCK_ORBOCC          ILOCOC         OFF         [  0]    ***   
       MEMORY_SIZE          IMEMSZ         500000000           words  
       MEM_UNIT             IMEMU          INTEGERWORDS[  0]    ***   
       MRCC                 IMRCCC         OFF         [  0]    ***   
       MULTIPLICTY          IMULTP              1               ***   
       NACOUPLING           IVCOUP         OFF         [  0]    ***   
       NEGEVAL              IDIE           ABORT       [  0]    ***   
       NEWNORM              INEWNO         OFF         [  0]    ***   
       NON-HF               INONHF         OFF         [  0]    ***   
       NTOP_TAMP            ITOPT2             15               ***   
       NUC_MODEL            INUCMO         POINT       [  0]    ***   
       OCCUPATION           IOCCU   ESTIMATED BY SCF 
       OPEN-SHELL           IOPEN          SPIN-ORBITAL[  0]    ***   
       OPTVIB               IOPTVB         OFF         [  0]    ***   
       ORBITALS             IORBTP         STANDARD    [  0]    ***   
       PARALLEL             IPARAL         ON          [  1]    ***   
       PARA_INT             IPINTS         ON          [  1]    ***   
       PARA_PRINT           IPPRIN              0               ***   
       PERT_ORB             IPTORB         STANDARD    [  0]    ***   
       POINTS               IGRDFD              0               ***   
       PRINT                IPRNT               0               ***   
       PROPS                IPROPS         OFF         [  0]    ***   
       PROP_INTEGR          IINTYP         INTERNAL    [  0]    ***   
       PSI                  IPSI           OFF         [  0]    ***   
       QC_ALG               IQCALG         FLM         [  0]    ***   
       QC_LINALG            IQCLIN         TRIDIAG     [  2]    ***   
       QC_MAXCYC            IQCMAX          10D-100           cycles  
       QC_MAXSCFCY          IQCMSC          10D- 15           cycles  
       QC_RTRUST            IQCRTR          10D-  0           x 10-3  
       QC_SKIPSCF           IQCSKI         OFF         [  0]    ***   
       QC_START             IQCSTA          10D-  1             ***   
       QRHFGUESS            IQGUES         OFF         [  0]    ***   
       QUARTIC              IQUART         OFF         [  0]    ***   
       RAMAN_INT            IRAMIN         OFF         [  0]    ***   
       RAMAN_ORB            IRAMRE         UNRELAXED   [  0]    ***   
       RDO                  IRDOFM         ON          [  1]    ***   
       REDUCE_REPR          REDREP         Ir          [  0]    ***   
       REFERENCE            IREFNC         RHF         [  0]    ***   
       RELATIVIST           IRELAT         OFF         [  0]    ***   
       RELAX_DENS           IRDENS         ON          [  1]    ***   
       RESET_FLAGS          IRESET         OFF         [  0]    ***   
       RESTART_CC           ICCRES         OFF         [  0]    ***   
       ROT_EVEC             ROTVEC              0               ***   
       SAVE_INTS            ISVINT         OFF         [  0]    ***   
       SCALE_ON             ISTCRT              0               ***   
       SCF_CONV             ISCFCV          10D- 10             ***   
       SCF_DAMPING          IDAMP               0             x 10-3  
       SCF_EXPORDE          IRPPOR              6               ***   
       SCF_EXPSTAR          IRPPLS              8               ***   
       SCF_EXTRAPO          IRPP           ON          [  1]    ***   
       SCF_MAXCYC           ISCFCY            150              cycles 
       SCF_NOSTOP           ISCFST         OFF         [  0]    ***   
       SCF_PRINT            ISCFPR              0               ***   
       SCF_PROG             ISCFPR         SCF         [  0]    ***   
       SD_FIELD             IFINSD              0             x 10-6  
       SOPERT               IPERSO         OFF         [  0]    ***   
       SPHERICAL            IDFGHI         ON          [  1]    ***   
       SPINORBIT            ISOCAL         OFF         [  0]    ***   
       SPINROTATIO          ISRCON         OFF         [  0]    ***   
       SPIN_FLIP            ISPFLP         OFF         [  0]    ***   
       SPIN_ORBIT           ISPORB         OFF         [  0]    ***   
       SPIN_SCAL            ISCSMP         OFF         [  0]    ***   
       STEEPSCALE           ISTPSC              1000          x 10-3  
       SUBGROUP             ISUBGP         DEFAULT     [  0]    ***   
       SUBGRPAXIS           ISBXYZ         X           [  0]    ***   
       SYMMETRY             ISYM           ON          [  0]    ***   
       SYM_CHECK            ISYMCK         OVERRIDE    [  1]    ***   
       T3_EXTRAPOL          IT3EXT         OFF         [  0]    ***   
       T4_EXTRAPOL          IT4EXP         OFF         [  0]    ***   
       TAMP_SUM             IEVERY              5               ***   
       TESTSUITE            ITESTS         OFF         [  0]    ***   
       THERMOCH             ITHERM         OFF         [  0]    ***   
       TOL_CHOLESK          ITOLCH          10D-  4             ***   
       TRANGRAD             IRESRM         OFF         [  0]    ***   
       TRANS_INV            ITRAIN         IGNORE      [  1]    ***   
       TREAT_PERT           ITREAT         SIMULTANEOUS[  0]    ***   
       TRIP_ALGORI          ITRALG         NORMAL      [  0]    ***   
       UIJ_THRESHO          IUIJTH              1               ***   
       UNITS                IUNITS         ANGSTROM    [  0]    ***   
       UNOS                 IUNOS          OFF         [  0]    ***   
       UPDATE_HESS          IHUPDT         ON          [  1]    ***   
       VIBPHASE             ISETPH         STANDARD    [  0]    ***   
       VIBRATION            IVIB           ANALYTIC    [  1]    ***   
       VIB_ALGORIT          IGEALG         STANDARD    [  0]    ***   
       VNATORB              IVNORB         OFF         [  0]    ***   
       VTRAN                IVTRAN         FULL/PARTIAL[  0]    ***   
       XFIELD               IXEFLD              0             x 10-6  
       XFORM_TOL            IXFTOL          10D- 11             ***   
       YFIELD               IYEFLD              0             x 10-6  
       ZFIELD               IZEFLD            200             x 10-6  
       ZSCALE_EXP           IZEXPS         OFF         [  0]    ***   
    -------------------------------------------------------------------
   2 entries found in Z-matrix 
   Job Title : Carbon Monoxide DBOC calculation                                                
   There are  1 unique internal coordinates.
   Of these,  0 will be optimized.
   User supplied Z-matrix: 
--------------------------------------------------------------------------------
       SYMBOL    BOND      LENGTH    ANGLE     ANGLE     DIHED     ANGLE
                  TO      (ANGST)    WRT      (DEG)      WRT      (DEG)
--------------------------------------------------------------------------------
        C    
        O          1         r    
                  *Initial values for internal coordinates* 
                      Name             Value
                        r               1.4896551724
--------------------------------------------------------------------------------
  read isotopes from ZMAT file 
   Rotational constants (in cm-1): 
          1.0591556774             1.0591556774
   Rotational constants (in MHz): 
      31752.6928427243         31752.6928427243
********************************************************************************
   The full molecular point group is CXv .
   The largest Abelian subgroup of the full molecular point group is C2v .
   The computational point group is C2v .
********************************************************************************
--------------------------------------------------------------------------------
   Analysis of internal coordinates specified by Z-matrix 
--------------------------------------------------------------------------------
   *The nuclear repulsion energy is   17.051262111111111 a.u.
   *There is   1 degree of freedom within the tot. symm. molecular subspace.
   *Z-matrix requests optimization of   0 coordinates.
   *The optimization is constrained.
   *The following   1 parameters can have non-zero 
    derivatives within the totally symmetric subspace:
             r    [ 1]
   *The following   0 parameters are to be optimized:

   *The following coordinates must be varied in an  unconstrained optimization.
             r    [ 1]
--------------------------------------------------------------------------------


 ----------------------------------------------------------------
         Coordinates used in calculation (QCOMP) 
 ----------------------------------------------------------------
 Z-matrix   Atomic            Coordinates (in bohr)
  Symbol    Number           X              Y              Z
 ----------------------------------------------------------------
     C         6        -0.00000000     0.00000000     1.55272502
     O         8         0.00000000     0.00000000    -1.26231586
 ----------------------------------------------------------------
 
   Interatomic distance matrix (Angstroms) 
 
                 C             O    
                [ 1]        [ 2]
  C    [ 1]     0.00000
  O    [ 2]     1.48966     0.00000
 rotcon2
   Rotational constants (in cm-1): 
          1.0591556774             0.0000000000
   Rotational constants (in MHz): 
      31752.6928427243             0.0000000000
  ECPDATA file not present.   Using default ECPDATA. 
  @GTFLGS-I, Hessian will be transformed to curvilinear coordinates.
  There are  218 basis functions.
 @CHECKOUT-I, Total execution time (CPU/WALL):        0.15/       0.27 seconds.
--executable xjoda finished with status     0 in        0.30 seconds (walltime).
 --invoking executable--
/nfs/workspaces/public/cfour_mpi/bin/xvmol
 SERIAL VERSION OF MOLECULE STARTED
********************************************************************************
                    INPUT FROM MOL FILE
********************************************************************************
INTGRL        1    0    1    0    0    0    0    0    0                         
         *** CFOUR Program System (Release V0.1) ***                            
Carbon Monoxide DBOC calculation                                                
    2    2 X  Y       0.10E-08              0    0                              
   9999.00      3.00                                                            
          6.00000000    1    5    1    1    1    1    1                         
C #1  -0.000000000000000   0.000000000000000   1.552725024478139                
   16    9                                                                      
   33980.0000000000       9.100000000000000E-005 -1.900000000000000E-005        
  0.000000000000000E+000  0.000000000000000E+000  0.000000000000000E+000        
  0.000000000000000E+000  0.000000000000000E+000  0.000000000000000E+000        
  0.000000000000000E+000                                                        
   5089.00000000000       7.040000000000000E-004 -1.510000000000000E-004        
  0.000000000000000E+000  0.000000000000000E+000  0.000000000000000E+000        
  0.000000000000000E+000  0.000000000000000E+000  0.000000000000000E+000        
  0.000000000000000E+000                                                        
   1157.00000000000       3.693000000000000E-003 -7.850000000000000E-004        
  0.000000000000000E+000  0.000000000000000E+000  0.000000000000000E+000        
  0.000000000000000E+000  0.000000000000000E+000  0.000000000000000E+000        
  0.000000000000000E+000                                                        
   326.600000000000       1.536000000000000E-002 -3.324000000000000E-003        
  0.000000000000000E+000  0.000000000000000E+000  0.000000000000000E+000        
  0.000000000000000E+000  0.000000000000000E+000  0.000000000000000E+000        
  0.000000000000000E+000                                                        
   106.100000000000       5.292900000000000E-002 -1.151200000000000E-002        
  0.000000000000000E+000  0.000000000000000E+000  0.000000000000000E+000        
  0.000000000000000E+000  0.000000000000000E+000  0.000000000000000E+000        
  0.000000000000000E+000                                                        
   38.1100000000000       0.147043000000000      -3.416000000000000E-002        
  0.000000000000000E+000  0.000000000000000E+000  0.000000000000000E+000        
  0.000000000000000E+000  0.000000000000000E+000  0.000000000000000E+000        
  0.000000000000000E+000                                                        
   14.7500000000000       0.305631000000000      -7.717300000000001E-002        
  0.000000000000000E+000  0.000000000000000E+000  0.000000000000000E+000        
  0.000000000000000E+000  0.000000000000000E+000  0.000000000000000E+000        
  0.000000000000000E+000                                                        
   6.03500000000000       0.399345000000000      -0.141493000000000             
  0.000000000000000E+000  0.000000000000000E+000  0.000000000000000E+000        
  0.000000000000000E+000  0.000000000000000E+000  0.000000000000000E+000        
  0.000000000000000E+000                                                        
   2.53000000000000       0.217051000000000      -0.118019000000000             
  0.000000000000000E+000  0.000000000000000E+000  0.000000000000000E+000        
  0.000000000000000E+000  0.000000000000000E+000  0.000000000000000E+000        
  0.000000000000000E+000                                                        
  0.735500000000000       1.589400000000000E-002  0.273806000000000             
   1.00000000000000       0.000000000000000E+000  0.000000000000000E+000        
  0.000000000000000E+000  0.000000000000000E+000  0.000000000000000E+000        
  0.000000000000000E+000                                                        
  0.290500000000000      -3.084000000000000E-003  0.586510000000000             
  0.000000000000000E+000   1.00000000000000       0.000000000000000E+000        
  0.000000000000000E+000  0.000000000000000E+000  0.000000000000000E+000        
  0.000000000000000E+000                                                        
  0.111100000000000       9.779999999999999E-004  0.285430000000000             
  0.000000000000000E+000  0.000000000000000E+000   1.00000000000000             
  0.000000000000000E+000  0.000000000000000E+000  0.000000000000000E+000        
  0.000000000000000E+000                                                        
   7.21600000000000       0.000000000000000E+000  0.000000000000000E+000        
  0.000000000000000E+000  0.000000000000000E+000  0.000000000000000E+000        
   1.00000000000000       0.000000000000000E+000  0.000000000000000E+000        
  0.000000000000000E+000                                                        
   19.5700000000000       0.000000000000000E+000  0.000000000000000E+000        
  0.000000000000000E+000  0.000000000000000E+000  0.000000000000000E+000        
  0.000000000000000E+000   1.00000000000000       0.000000000000000E+000        
  0.000000000000000E+000                                                        
   53.0730000000000       0.000000000000000E+000  0.000000000000000E+000        
  0.000000000000000E+000  0.000000000000000E+000  0.000000000000000E+000        
  0.000000000000000E+000  0.000000000000000E+000   1.00000000000000             
  0.000000000000000E+000                                                        
  4.145000000000000E-002  0.000000000000000E+000  0.000000000000000E+000        
  0.000000000000000E+000  0.000000000000000E+000  0.000000000000000E+000        
  0.000000000000000E+000  0.000000000000000E+000  0.000000000000000E+000        
   1.00000000000000                                                             
   10    8                                                                      
   34.5100000000000       5.378000000000000E-003  0.000000000000000E+000        
  0.000000000000000E+000  0.000000000000000E+000  0.000000000000000E+000        
  0.000000000000000E+000  0.000000000000000E+000  0.000000000000000E+000        
   7.91500000000000       3.613200000000000E-002  0.000000000000000E+000        
  0.000000000000000E+000  0.000000000000000E+000  0.000000000000000E+000        
  0.000000000000000E+000  0.000000000000000E+000  0.000000000000000E+000        
   2.36800000000000       0.142493000000000       0.000000000000000E+000        
  0.000000000000000E+000  0.000000000000000E+000  0.000000000000000E+000        
  0.000000000000000E+000  0.000000000000000E+000  0.000000000000000E+000        
  0.813200000000000       0.342150000000000        1.00000000000000             
  0.000000000000000E+000  0.000000000000000E+000  0.000000000000000E+000        
  0.000000000000000E+000  0.000000000000000E+000  0.000000000000000E+000        
  0.289000000000000       0.463864000000000       0.000000000000000E+000        
   1.00000000000000       0.000000000000000E+000  0.000000000000000E+000        
  0.000000000000000E+000  0.000000000000000E+000  0.000000000000000E+000        
  0.100700000000000       0.250028000000000       0.000000000000000E+000        
  0.000000000000000E+000   1.00000000000000       0.000000000000000E+000        
  0.000000000000000E+000  0.000000000000000E+000  0.000000000000000E+000        
   8.18200000000000       0.000000000000000E+000  0.000000000000000E+000        
  0.000000000000000E+000  0.000000000000000E+000   1.00000000000000             
  0.000000000000000E+000  0.000000000000000E+000  0.000000000000000E+000        
   24.1860000000000       0.000000000000000E+000  0.000000000000000E+000        
  0.000000000000000E+000  0.000000000000000E+000  0.000000000000000E+000        
   1.00000000000000       0.000000000000000E+000  0.000000000000000E+000        
   71.4940000000000       0.000000000000000E+000  0.000000000000000E+000        
  0.000000000000000E+000  0.000000000000000E+000  0.000000000000000E+000        
  0.000000000000000E+000   1.00000000000000       0.000000000000000E+000        
  3.218000000000000E-002  0.000000000000000E+000  0.000000000000000E+000        
  0.000000000000000E+000  0.000000000000000E+000  0.000000000000000E+000        
  0.000000000000000E+000  0.000000000000000E+000   1.00000000000000             
    6    6                                                                      
   1.84800000000000        1.00000000000000       0.000000000000000E+000        
  0.000000000000000E+000  0.000000000000000E+000  0.000000000000000E+000        
  0.000000000000000E+000                                                        
  0.649000000000000       0.000000000000000E+000   1.00000000000000             
  0.000000000000000E+000  0.000000000000000E+000  0.000000000000000E+000        
  0.000000000000000E+000                                                        
  0.228000000000000       0.000000000000000E+000  0.000000000000000E+000        
   1.00000000000000       0.000000000000000E+000  0.000000000000000E+000        
  0.000000000000000E+000                                                        
   8.65600000000000       0.000000000000000E+000  0.000000000000000E+000        
  0.000000000000000E+000   1.00000000000000       0.000000000000000E+000        
  0.000000000000000E+000                                                        
   33.2130000000000       0.000000000000000E+000  0.000000000000000E+000        
  0.000000000000000E+000  0.000000000000000E+000   1.00000000000000             
  0.000000000000000E+000                                                        
  7.660000000000000E-002  0.000000000000000E+000  0.000000000000000E+000        
  0.000000000000000E+000  0.000000000000000E+000  0.000000000000000E+000        
   1.00000000000000                                                             
    4    4                                                                      
   1.41900000000000        1.00000000000000       0.000000000000000E+000        
  0.000000000000000E+000  0.000000000000000E+000                                
  0.485000000000000       0.000000000000000E+000   1.00000000000000             
  0.000000000000000E+000  0.000000000000000E+000                                
   24.6940000000000       0.000000000000000E+000  0.000000000000000E+000        
   1.00000000000000       0.000000000000000E+000                                
  0.187000000000000       0.000000000000000E+000  0.000000000000000E+000        
  0.000000000000000E+000   1.00000000000000                                     
    2    2                                                                      
   1.01100000000000        1.00000000000000       0.000000000000000E+000        
  0.424000000000000       0.000000000000000E+000   1.00000000000000             
          8.00000000    1    5    1    1    1    1    1                         
O #2   0.000000000000000   0.000000000000000  -1.262315861481955                
   16    9                                                                      
   61420.0000000000       9.000000000000001E-005 -2.000000000000000E-005        
  0.000000000000000E+000  0.000000000000000E+000  0.000000000000000E+000        
  0.000000000000000E+000  0.000000000000000E+000  0.000000000000000E+000        
  0.000000000000000E+000                                                        
   9199.00000000000       6.980000000000001E-004 -1.590000000000000E-004        
  0.000000000000000E+000  0.000000000000000E+000  0.000000000000000E+000        
  0.000000000000000E+000  0.000000000000000E+000  0.000000000000000E+000        
  0.000000000000000E+000                                                        
   2091.00000000000       3.664000000000000E-003 -8.290000000000000E-004        
  0.000000000000000E+000  0.000000000000000E+000  0.000000000000000E+000        
  0.000000000000000E+000  0.000000000000000E+000  0.000000000000000E+000        
  0.000000000000000E+000                                                        
   590.900000000000       1.521800000000000E-002 -3.508000000000000E-003        
  0.000000000000000E+000  0.000000000000000E+000  0.000000000000000E+000        
  0.000000000000000E+000  0.000000000000000E+000  0.000000000000000E+000        
  0.000000000000000E+000                                                        
   192.300000000000       5.242300000000000E-002 -1.215600000000000E-002        
  0.000000000000000E+000  0.000000000000000E+000  0.000000000000000E+000        
  0.000000000000000E+000  0.000000000000000E+000  0.000000000000000E+000        
  0.000000000000000E+000                                                        
   69.3200000000000       0.145921000000000      -3.626100000000000E-002        
  0.000000000000000E+000  0.000000000000000E+000  0.000000000000000E+000        
  0.000000000000000E+000  0.000000000000000E+000  0.000000000000000E+000        
  0.000000000000000E+000                                                        
   26.9700000000000       0.305258000000000      -8.299200000000000E-002        
  0.000000000000000E+000  0.000000000000000E+000  0.000000000000000E+000        
  0.000000000000000E+000  0.000000000000000E+000  0.000000000000000E+000        
  0.000000000000000E+000                                                        
   11.1000000000000       0.398508000000000      -0.152090000000000             
  0.000000000000000E+000  0.000000000000000E+000  0.000000000000000E+000        
  0.000000000000000E+000  0.000000000000000E+000  0.000000000000000E+000        
  0.000000000000000E+000                                                        
   4.68200000000000       0.216980000000000      -0.115331000000000             
  0.000000000000000E+000  0.000000000000000E+000  0.000000000000000E+000        
  0.000000000000000E+000  0.000000000000000E+000  0.000000000000000E+000        
  0.000000000000000E+000                                                        
   1.42800000000000       1.759400000000000E-002  0.288979000000000             
   1.00000000000000       0.000000000000000E+000  0.000000000000000E+000        
  0.000000000000000E+000  0.000000000000000E+000  0.000000000000000E+000        
  0.000000000000000E+000                                                        
  0.554700000000000      -2.502000000000000E-003  0.586128000000000             
  0.000000000000000E+000   1.00000000000000       0.000000000000000E+000        
  0.000000000000000E+000  0.000000000000000E+000  0.000000000000000E+000        
  0.000000000000000E+000                                                        
  0.206700000000000       9.540000000000000E-004  0.277624000000000             
  0.000000000000000E+000  0.000000000000000E+000   1.00000000000000             
  0.000000000000000E+000  0.000000000000000E+000  0.000000000000000E+000        
  0.000000000000000E+000                                                        
   12.9740000000000       0.000000000000000E+000  0.000000000000000E+000        
  0.000000000000000E+000  0.000000000000000E+000  0.000000000000000E+000        
   1.00000000000000       0.000000000000000E+000  0.000000000000000E+000        
  0.000000000000000E+000                                                        
   34.9000000000000       0.000000000000000E+000  0.000000000000000E+000        
  0.000000000000000E+000  0.000000000000000E+000  0.000000000000000E+000        
  0.000000000000000E+000   1.00000000000000       0.000000000000000E+000        
  0.000000000000000E+000                                                        
   93.8810000000000       0.000000000000000E+000  0.000000000000000E+000        
  0.000000000000000E+000  0.000000000000000E+000  0.000000000000000E+000        
  0.000000000000000E+000  0.000000000000000E+000   1.00000000000000             
  0.000000000000000E+000                                                        
  6.959000000000000E-002  0.000000000000000E+000  0.000000000000000E+000        
  0.000000000000000E+000  0.000000000000000E+000  0.000000000000000E+000        
  0.000000000000000E+000  0.000000000000000E+000  0.000000000000000E+000        
   1.00000000000000                                                             
   10    8                                                                      
   63.4200000000000       6.044000000000000E-003  0.000000000000000E+000        
  0.000000000000000E+000  0.000000000000000E+000  0.000000000000000E+000        
  0.000000000000000E+000  0.000000000000000E+000  0.000000000000000E+000        
   14.6600000000000       4.179900000000000E-002  0.000000000000000E+000        
  0.000000000000000E+000  0.000000000000000E+000  0.000000000000000E+000        
  0.000000000000000E+000  0.000000000000000E+000  0.000000000000000E+000        
   4.45900000000000       0.161143000000000       0.000000000000000E+000        
  0.000000000000000E+000  0.000000000000000E+000  0.000000000000000E+000        
  0.000000000000000E+000  0.000000000000000E+000  0.000000000000000E+000        
   1.53100000000000       0.356731000000000        1.00000000000000             
  0.000000000000000E+000  0.000000000000000E+000  0.000000000000000E+000        
  0.000000000000000E+000  0.000000000000000E+000  0.000000000000000E+000        
  0.530200000000000       0.448309000000000       0.000000000000000E+000        
   1.00000000000000       0.000000000000000E+000  0.000000000000000E+000        
  0.000000000000000E+000  0.000000000000000E+000  0.000000000000000E+000        
  0.175000000000000       0.244940000000000       0.000000000000000E+000        
  0.000000000000000E+000   1.00000000000000       0.000000000000000E+000        
  0.000000000000000E+000  0.000000000000000E+000  0.000000000000000E+000        
   14.4750000000000       0.000000000000000E+000  0.000000000000000E+000        
  0.000000000000000E+000  0.000000000000000E+000   1.00000000000000             
  0.000000000000000E+000  0.000000000000000E+000  0.000000000000000E+000        
   42.7300000000000       0.000000000000000E+000  0.000000000000000E+000        
  0.000000000000000E+000  0.000000000000000E+000  0.000000000000000E+000        
   1.00000000000000       0.000000000000000E+000  0.000000000000000E+000        
   126.140000000000       0.000000000000000E+000  0.000000000000000E+000        
  0.000000000000000E+000  0.000000000000000E+000  0.000000000000000E+000        
  0.000000000000000E+000   1.00000000000000       0.000000000000000E+000        
  5.348000000000000E-002  0.000000000000000E+000  0.000000000000000E+000        
  0.000000000000000E+000  0.000000000000000E+000  0.000000000000000E+000        
  0.000000000000000E+000  0.000000000000000E+000   1.00000000000000             
    6    6                                                                      
   3.77500000000000        1.00000000000000       0.000000000000000E+000        
  0.000000000000000E+000  0.000000000000000E+000  0.000000000000000E+000        
  0.000000000000000E+000                                                        
   1.30000000000000       0.000000000000000E+000   1.00000000000000             
  0.000000000000000E+000  0.000000000000000E+000  0.000000000000000E+000        
  0.000000000000000E+000                                                        
  0.444000000000000       0.000000000000000E+000  0.000000000000000E+000        
   1.00000000000000       0.000000000000000E+000  0.000000000000000E+000        
  0.000000000000000E+000                                                        
   14.9270000000000       0.000000000000000E+000  0.000000000000000E+000        
  0.000000000000000E+000   1.00000000000000       0.000000000000000E+000        
  0.000000000000000E+000                                                        
   57.5440000000000       0.000000000000000E+000  0.000000000000000E+000        
  0.000000000000000E+000  0.000000000000000E+000   1.00000000000000             
  0.000000000000000E+000                                                        
  0.154000000000000       0.000000000000000E+000  0.000000000000000E+000        
  0.000000000000000E+000  0.000000000000000E+000  0.000000000000000E+000        
   1.00000000000000                                                             
    4    4                                                                      
   2.66600000000000        1.00000000000000       0.000000000000000E+000        
  0.000000000000000E+000  0.000000000000000E+000                                
  0.859000000000000       0.000000000000000E+000   1.00000000000000             
  0.000000000000000E+000  0.000000000000000E+000                                
   26.4830000000000       0.000000000000000E+000  0.000000000000000E+000        
   1.00000000000000       0.000000000000000E+000                                
  0.324000000000000       0.000000000000000E+000  0.000000000000000E+000        
  0.000000000000000E+000   1.00000000000000                                     
    2    2                                                                      
   1.84600000000000        1.00000000000000       0.000000000000000E+000        
  0.714000000000000       0.000000000000000E+000   1.00000000000000             
FINISH                                                                          
 
********************************************************************************
 ONE- AND TWO-ELECTRON INTEGRALS OVER SYMMETRY-ADAPTED AOS ARE CALCULATED.

  SPHERICAL HARMONICS ARE USED.
  
  INTEGRALS LESS THAN  0.10E-13 ARE NEGLECTED.

  NUCLEAR REPULSION ENERGY :   17.0512621111 A.U.
  @MOLECU-I, ONE ELECTRON INTEGRALS (CPU/WALL):        0.06/       0.08 SECONDS.
  @TWOEL-I,    4472341 INTEGRALS OF SYMMETRY TYPE  I I I I
  @TWOEL-I,   19288586 INTEGRALS OF SYMMETRY TYPE  I J I J
  @TWOEL-I,   10156804 INTEGRALS OF SYMMETRY TYPE  I I J J
  @TWOEL-I,   14267333 INTEGRALS OF SYMMETRY TYPE  I J K L
  @TWOEL-I, TOTAL NUMBER OF 2-E INTEGRALS   48185064.
  @MOLECU-I, TWO ELECTRON INTEGRALS (CPU/WALL):      238.63/      32.71 SECONDS.
 @CHECKOUT-I, Total execution time (CPU/WALL):      238.70/      32.83 seconds.

Running with 14 threads/proc

--executable xvmol finished with status     0 in       32.87 seconds (walltime).
 --invoking executable--
/nfs/workspaces/public/cfour_mpi/bin/xvmol2ja
 @GETMEM-I,  Allocated    3814 MB of main memory.
 @CHECKOUT-I, Total execution time (CPU/WALL):        0.14/       0.03 seconds.
--executable xvmol2ja finished with status     0 in        0.08 seconds (walltime).
 --invoking executable--
/nfs/workspaces/public/cfour_mpi/bin/xvprop
 @GETMEM-I,  Allocated    3814 MB of main memory.
   Property integrals will be calculated.
    --------------------------------------------------------------
                                   Property evaluated at 
    Property type                X             Y             Z
    --------------------------------------------------------------
    Dipole moment               ----          ----          ----  
    Quadrupole moment           ----          ----          ----  
    Octopole moment             ----          ----          ----  
    Relativisitic corr.         ----          ----          ----  
    Second moment            0.0000000     0.0000000     0.0000000
    Electron density         0.0000000     0.0000000     1.5527250
    Electron density         0.0000000     0.0000000    -1.2623159
    Field gradient           0.0000000     0.0000000     1.5527250
    Field gradient           0.0000000     0.0000000    -1.2623159
    Potential                0.0000000     0.0000000     1.5527250
    Potential                0.0000000     0.0000000    -1.2623159
    --------------------------------------------------------------
 @CHECKOUT-I, Total execution time (CPU/WALL):        1.35/       1.38 seconds.
--executable xvprop finished with status     0 in        1.41 seconds (walltime).
 --invoking executable--
/nfs/workspaces/public/cfour_mpi/bin/xvscf
  There are  218 functions in the AO basis.

  There are 4 irreducible representations.

       Irrep        # of functions
         1                 86
         2                 52
         3                 52
         4                 28


  Parameters for SCF calculation: 
        SCF reference function:  RHF  
  Maximum number of iterations:  150
     Full symmetry point group: CXv 
     Computational point group: C2v 
        Initial density matrix: MOREAD                 
     SCF convergence tolerance: 10**(-10)
  DIIS convergence acceleration:  ON
          Latest start for DIIS:   8
                     DIIS order:   6

  Memory information:    2523578 words required.
  Fock matrices are constructed from AO integral file.
 @GETMEM-I,  Allocated      19 MB of main memory.
  Initialization and symmetry analysis required      0.001 seconds.

  Adding electric field perturbation to one-electron Hamiltonian.
  Field direction     : Z
  Field strength      :  0.0002000 a.u.

  @INITGES-I, Occupancies from core Hamiltonian:

          Alpha population by irrep:   5    1    1    0
           Beta population by irrep:   5    1    1    0


 total no. of electrons in initial guess :  0.000000000000000E+000
  --------------------------------------------------------------------
  Iteration         Total Energy            Largest Density Difference
  --------------------------------------------------------------------
       0            17.051418546459715              0.0000000000D+00
   current occupation vector 
     5  1  1  0
     5  1  1  0
       1           -93.401394933455137              0.1752808092D+02
   current occupation vector 
     5  1  1  0
     5  1  1  0
       2           -98.244570216546308              0.1752804936D+02
   current occupation vector 
     5  1  1  0
     5  1  1  0
       3          -102.006280653701367              0.6178400269D+01
   current occupation vector 
     5  1  1  0
     5  1  1  0
       4           -97.021578927471978              0.6178284929D+01
   current occupation vector 
     5  1  1  0
     5  1  1  0
       5          -100.784370732383124              0.6742170811D+01
   current occupation vector 
     5  1  1  0
     5  1  1  0
       6           -96.007659281347514              0.6740741616D+01
   current occupation vector 
     5  1  1  0
     5  1  1  0
       7          -100.747378648074672              0.6812953602D+01
   current occupation vector 
     5  1  1  0
     5  1  1  0
       8           -95.968663095792778              0.6813142896D+01
   current occupation vector 
     5  1  1  0
     5  1  1  0
       9          -107.493459706835125              0.5439952343D+01
   current occupation vector 
     5  1  1  0
     5  1  1  0
      10          -109.504332183417816              0.9255240929D+00
   current occupation vector 
     5  1  1  0
     5  1  1  0
      11          -112.320204559989023              0.1544260813D+01
   current occupation vector 
     5  1  1  0
     5  1  1  0
      12          -112.596213915249095              0.5115377734D+00
   current occupation vector 
     5  1  1  0
     5  1  1  0
      13          -112.600918733605582              0.1255738281D+00
   current occupation vector 
     5  1  1  0
     5  1  1  0
      14          -112.602423906203612              0.5568893339D-01
   current occupation vector 
     5  1  1  0
     5  1  1  0
      15          -112.602527640845679              0.1558707519D-01
   current occupation vector 
     5  1  1  0
     5  1  1  0
      16          -112.602572400871381              0.1264921136D-01
   current occupation vector 
     5  1  1  0
     5  1  1  0
      17          -112.602582702273466              0.5729076632D-02
   current occupation vector 
     5  1  1  0
     5  1  1  0
      18          -112.602584355931484              0.3281360127D-02
   current occupation vector 
     5  1  1  0
     5  1  1  0
      19          -112.602584364759181              0.2444378932D-03
   current occupation vector 
     5  1  1  0
     5  1  1  0
      20          -112.602584365013527              0.1328300058D-04
   current occupation vector 
     5  1  1  0
     5  1  1  0
      21          -112.602584365018956              0.4507478247D-05
   current occupation vector 
     5  1  1  0
     5  1  1  0
      22          -112.602584365017591              0.4906356412D-06
   current occupation vector 
     5  1  1  0
     5  1  1  0
      23          -112.602584365018274              0.8312657568D-07
   current occupation vector 
     5  1  1  0
     5  1  1  0
      24          -112.602584365018672              0.2559001566D-07
   current occupation vector 
     5  1  1  0
     5  1  1  0
      25          -112.602584365020803              0.3102788249D-08
   current occupation vector 
     5  1  1  0
     5  1  1  0
      26          -112.602584365018245              0.9203573459D-09
   current occupation vector 
     5  1  1  0
     5  1  1  0
      27          -112.602584365018359              0.7669636037D-09
   current occupation vector 
     5  1  1  0
     5  1  1  0
      28          -112.602584365018416              0.2833604462D-09
   current occupation vector 
     5  1  1  0
     5  1  1  0

  SCF has converged.

 Density matrix saved to file den.dat
 total electron number:   13.9999999999998     
     E(SCF)=      -112.602584365017819              0.3369127199D-10

  Eigenvector printing suppressed.

 @PUTMOS-I, Writing converged MOs to NEWMOS. 
 @PUTMOS-I, Symmetry   1 Full Blocks 21 Partial Blocksize   2
 @PUTMOS-I, Symmetry   2 Full Blocks 13 Partial Blocksize   0
 @PUTMOS-I, Symmetry   3 Full Blocks 13 Partial Blocksize   0
 @PUTMOS-I, Symmetry   4 Full Blocks  7 Partial Blocksize   0
 @PUTFOCK-I, Writing converged Fock matrix to NEWFOCK. 
 @PUTFOCK-I, Symmetry   1 Full Blocks 21 Partial Blocksize   2
 @PUTFOCK-I, Symmetry   2 Full Blocks 13 Partial Blocksize   0
 @PUTFOCK-I, Symmetry   3 Full Blocks 13 Partial Blocksize   0
 @PUTFOCK-I, Symmetry   4 Full Blocks  7 Partial Blocksize   0


 
  ORBITAL EIGENVALUES (ALPHA)  (1H = 27.2113834 eV)

       MO #        E(hartree)               E(eV)           FULLSYM    COMPSYM
       ----   --------------------   --------------------   -------   ---------
    1     1         -20.6549846301        -562.0507058910     SG+        A1 (1)
    2     2         -11.4961925694        -312.8273036449     SG+        A1 (1)
    3     3          -1.3191870193         -35.8969037590     SG+        A1 (1)
    4     4          -0.7971787700         -21.6923371497     SG+        A1 (1)
    5     5          -0.5509013777         -14.9907886043     SG+        A1 (1)
    6    87          -0.5205924479         -14.1660406948      PI        B1 (2)
    7   139          -0.5205924479         -14.1660406948      PI        B2 (3)
  +++++++++++++++++++++++++++++++++++++++++++++++++++++++++++++++++++++++++++++
    8   140           0.0147131334           0.4003647145      PI        B2 (3)
    9    88           0.0147131334           0.4003647145      PI        B1 (2)
   10     6           0.0633467528           1.7237527785     SG+        A1 (1)
   11     7           0.0682935454           1.8583618488     SG+        A1 (1)
   12   141           0.0852718758           2.3203657069      PI        B2 (3)
   13    89           0.0852718758           2.3203657069      PI        B1 (2)
   14     8           0.1566549097           4.2627968106     SG+        A1 (1)
   15    90           0.1754006191           4.7728934954      PI        B1 (2)
   16   142           0.1754006191           4.7728934954      PI        B2 (3)
   17     9           0.2174773205           5.9178587482     SG+        A1 (1)
   18    10           0.2242518008           6.1022017296      DE        A1 (1)
   19   191           0.2242518008           6.1022017296      DE        A2 (4)
   20    91           0.2918314869           7.9411384785      PI        B1 (2)
   21   143           0.2918314869           7.9411384785      PI        B2 (3)
   22    11           0.2998791075           8.1601253666     SG+        A1 (1)
   23    12           0.3454319315           9.3996807279     SG+        A1 (1)
   24    92           0.4018098446          10.9338017359      PI        B1 (2)
   25   144           0.4018098446          10.9338017359      PI        B2 (3)
   26    13           0.4466707752          12.1545297176     SG+        A1 (1)
   27    14           0.5120001874          13.9322334005     SG+        A1 (1)
   28   192           0.5484240538          14.9233771937      DE        A2 (4)
   29    15           0.5484240538          14.9233771937      DE        A1 (1)
   30    93           0.6235726352          16.9682740546      PI        B1 (2)
   31   145           0.6235726352          16.9682740546      PI        B2 (3)
   32    16           0.7172014956          19.5160448713     SG+        A1 (1)
   33   146           0.7367128656          20.0469762408      PH        B2 (3)
   34    94           0.7367128656          20.0469762408      PH        B1 (2)
   35    17           0.7462063750          20.3053077666      DE        A1 (1)
   36   193           0.7462063750          20.3053077666      DE        A2 (4)
   37    95           0.7850174964          21.3614120690      PI        B1 (2)
   38   147           0.7850174964          21.3614120690      PI        B2 (3)
   39    18           0.8251409386          22.4532264387     SG+        A1 (1)
   40   194           0.8679998491          23.6194766844      DE        A2 (4)
   41    19           0.8679998491          23.6194766844      DE        A1 (1)
   42    20           0.8720818883          23.7305546189     SG+        A1 (1)
   43    96           0.8949129978          24.3518206938      PI        B1 (2)
   44   148           0.8949129978          24.3518206938      PI        B2 (3)
   45    97           1.0333326874          28.1184119357      PI        B1 (2)
   46   149           1.0333326874          28.1184119358      PI        B2 (3)
   47    21           1.1258585623          30.6361689940     SG+        A1 (1)
   48    22           1.3830642007          37.6350902321     SG+        A1 (1)
   49    98           1.4244828208          38.7621481831      PH        B1 (2)
   50   150           1.4244828208          38.7621481831      PH        B2 (3)
   51    99           1.5258189338          41.5196440057      PI        B1 (2)
   52   151           1.5258189338          41.5196440057      PI        B2 (3)
   53   195           1.5747937282          42.8523159145      DE        A2 (4)
   54    23           1.5747937282          42.8523159145      DE        A1 (1)
   55    24           1.6119322638          43.8629068450     SG+        A1 (1)
   56   100           1.6387012825          44.5913288752      PI        B1 (2)
   57   152           1.6387012825          44.5913288752      PI        B2 (3)
   58   196           1.6978225351          46.2000999472      DE        A2 (4)
   59    25           1.6978225351          46.2000999472      DE        A1 (1)
   60    26           1.9055261591          51.8520028938     SG+        A1 (1)
   61    27           1.9856157910          54.0313525745     SG+        A1 (1)
   62    28           2.0771409010          56.5218774328      PI        A1 (1)
   63   197           2.0771409010          56.5218774328      PI        A2 (4)
   64   101           2.0901642263          56.8762601308      PI        B1 (2)
   65   153           2.0901642263          56.8762601308      PI        B2 (3)
   66    29           2.1385068796          58.1917306045      DE        A1 (1)
   67   198           2.1385068796          58.1917306045      DE        A2 (4)
   68   154           2.2168329403          60.3230910714      PH        B2 (3)
   69   102           2.2168329403          60.3230910714      PH        B1 (2)
   70   155           2.2391658029          60.9307991585      PH        B2 (3)
   71   103           2.2391658029          60.9307991585      PH        B1 (2)
   72   104           2.2450027388          61.0896302606      PI        B1 (2)
   73   156           2.2450027388          61.0896302606      PI        B2 (3)
   74    30           2.2456201798          61.1064316830     SG+        A1 (1)
   75   199           2.3007147546          62.6056312821      DE        A2 (4)
   76    31           2.3007147546          62.6056312821      DE        A1 (1)
   77    32           2.4550633526          66.8056701591     SG+        A1 (1)
   78   105           2.5201698009          68.5773066857      PI        B1 (2)
   79   157           2.5201698009          68.5773066857      PI        B2 (3)
   80    33           2.6041831536          70.8634262367     SG+        A1 (1)
   81   106           2.6076973684          70.9590528833      PI        B1 (2)
   82   158           2.6076973684          70.9590528833      PI        B2 (3)
   83   200           2.7118966745          73.7944601499      DE        A2 (4)
   84    34           2.7118966745          73.7944601500      DE        A1 (1)
   85    35           3.0885375245          84.0433787249     SG+        A1 (1)
   86   107           3.4873002686          94.8942646392      PI        B1 (2)
   87   159           3.4873002686          94.8942646392      PI        B2 (3)
   88   201           3.7030087649         100.7639912342      PI        A2 (4)
   89    36           3.7030087649         100.7639912342      PI        A1 (1)
   90    37           3.9055935678         106.2766039780     SG+        A1 (1)
   91   160           3.9664795668         107.9333962407      PH        B2 (3)
   92   108           3.9664795668         107.9333962407      PH        B1 (2)
   93   109           4.1309152294         112.4079181008      PH        B1 (2)
   94   161           4.1309152294         112.4079181008      PH        B2 (3)
   95   110           4.1615842077         113.2424634272      PI        B1 (2)
   96   162           4.1615842077         113.2424634272      PI        B2 (3)
   97    38           4.1806273728         113.7606542945     SG+        A1 (1)
   98   202           4.2128004688         114.6361287448      DE        A2 (4)
   99    39           4.2128004688         114.6361287448      DE        A1 (1)
  100   203           4.2765913435         116.3719666919      DE        A2 (4)
  101    40           4.2765913435         116.3719666920      DE        A1 (1)
  102    41           4.4396106271         120.8079469219     SG+        A1 (1)
  103   111           4.6163312900         125.6167606339      PI        B1 (2)
  104   163           4.6163312900         125.6167606339      PI        B2 (3)
  105    42           4.7694204040         129.7825272083     SG+        A1 (1)
  106   204           4.7781469156         130.0199876625      DE        A2 (4)
  107    43           4.7781469156         130.0199876626      DE        A1 (1)
  108   112           5.1748743932         140.8154911599      PI        B1 (2)
  109   164           5.1748743932         140.8154911599      PI        B2 (3)
  110    44           5.3448073757         145.4396027003     SG+        A1 (1)
  111   113           5.3770128280         146.3159576083      PI        B1 (2)
  112   165           5.3770128280         146.3159576084      PI        B2 (3)
  113    45           5.8434236512         159.0076413413      PI        A1 (1)
  114   205           5.8434236512         159.0076413413      PI        A2 (4)
  115   166           5.9227463645         161.1661221040      PH        B2 (3)
  116   114           5.9227463645         161.1661221040      PH        B1 (2)
  117    46           6.1019060063         166.0413038085     SG+        A1 (1)
  118   206           6.1508875454         167.3741592490      DE        A2 (4)
  119    47           6.1508875454         167.3741592490      DE        A1 (1)
  120   115           6.1695877008         167.8830163471      PI        B1 (2)
  121   167           6.1695877008         167.8830163471      PI        B2 (3)
  122    48           6.2297316785         169.5196171825     SG+        A1 (1)
  123   168           6.3734395325         173.4301066962      PH        B2 (3)
  124   116           6.3734395325         173.4301066962      PH        B1 (2)
  125    49           6.4175146339         174.6294511776      DE        A1 (1)
  126   207           6.4175146339         174.6294511776      DE        A2 (4)
  127   208           6.5080088678         177.0919244728      DE        A2 (4)
  128    50           6.5080088678         177.0919244728      DE        A1 (1)
  129   117           6.8784901545         187.1732328063      PI        B1 (2)
  130   169           6.8784901545         187.1732328063      PI        B2 (3)
  131    51           7.1635504499         194.9301177978     SG+        A1 (1)
  132   118           7.4730996252         203.3533790874      PI        B1 (2)
  133   170           7.4730996252         203.3533790874      PI        B2 (3)
  134    52           8.1150167011         220.8208307508     SG+        A1 (1)
  135    53           9.6593902793         262.8453723005     SG+        A1 (1)
  136   171           9.8564680520         268.2081311324      PI        B2 (3)
  137   119           9.8564680520         268.2081311326      PI        B1 (2)
  138    54          10.6397080927         289.5211761751      PI        A1 (1)
  139   209          10.6397080927         289.5211761751      PI        A2 (4)
  140    55          10.7134484237         291.5277525933     SG+        A1 (1)
  141   120          10.7506060981         292.5388643176      PH        B1 (2)
  142   172          10.7506060981         292.5388643176      PH        B2 (3)
  143   210          10.9846374426         298.9071809604      DE        A2 (4)
  144    56          10.9846374426         298.9071809604      DE        A1 (1)
  145   121          10.9959139287         299.2140297463      PI        B1 (2)
  146   173          10.9959139287         299.2140297463      PI        B2 (3)
  147    57          11.2211130289         305.3420088029     SG+        A1 (1)
  148   122          11.8790934888         323.2465673675      PH        B1 (2)
  149   174          11.8790934888         323.2465673675      PH        B2 (3)
  150   211          12.0206481716         327.0984661139      DE        A2 (4)
  151    58          12.0206481716         327.0984661142      DE        A1 (1)
  152   175          12.4967250334         340.0531761283      PI        B2 (3)
  153   123          12.4967250334         340.0531761283      PI        B1 (2)
  154    59          12.7339836487         346.5093112752     SG+        A1 (1)
  155   212          12.7409530079         346.6989571791      DE        A2 (4)
  156    60          12.7409530079         346.6989571791      DE        A1 (1)
  157   124          13.0872921736         356.1233250047      PI        B1 (2)
  158   176          13.0872921736         356.1233250048      PI        B2 (3)
  159    61          13.7282720714         373.5652747541     SG+        A1 (1)
  160    62          17.4282470982         474.2467137788     SG+        A1 (1)
  161   125          18.7952237483         511.4440395030      PI        B1 (2)
  162   177          18.7952237483         511.4440395032      PI        B2 (3)
  163    63          19.9941584863         544.0687123301     SG+        A1 (1)
  164    64          26.2920037477         715.4417943324      DE        A1 (1)
  165   213          26.2920037477         715.4417943325      DE        A2 (4)
  166   126          26.6569207015         725.3716894718      PI        B1 (2)
  167   178          26.6569207015         725.3716894718      PI        B2 (3)
  168    65          27.1474180665         738.7188013284     SG+        A1 (1)
  169   179          33.5267833224         912.3101551550      PI        B2 (3)
  170   127          33.5267833224         912.3101551557      PI        B1 (2)
  171    66          34.3306734231         934.1851168955     SG+        A1 (1)
  172    67          35.7734492016         973.4450417663     SG+        A1 (1)
  173   214          47.0739904401        1280.9484020323      DE        A2 (4)
  174    68          47.0739904401        1280.9484020323      DE        A1 (1)
  175   128          47.2571503404        1285.9324363036      PI        B1 (2)
  176   180          47.2571503404        1285.9324363038      PI        B2 (3)
  177    69          47.6334201145        1296.1712573885     SG+        A1 (1)
  178    70          63.8460326149        1737.3388720525     SG+        A1 (1)
  179   129          66.3649112014        1805.8810430078      PI        B1 (2)
  180   181          66.3649112014        1805.8810430080      PI        B2 (3)
  181    71          67.2283775527        1829.3771569452     SG+        A1 (1)
  182   182          98.5340862101        2681.2487978317      PH        B2 (3)
  183   130          98.5340862101        2681.2487978317      PH        B1 (2)
  184   215          98.5474716111        2681.6130331104      DE        A2 (4)
  185    72          98.5474716111        2681.6130331105      DE        A1 (1)
  186   131          98.5624920188        2682.0217591838      PI        B1 (2)
  187   183          98.5624920188        2682.0217591838      PI        B2 (3)
  188    73          98.5773002352        2682.4247112365     SG+        A1 (1)
  189   184         103.2990519602        2810.9101077460      PH        B2 (3)
  190   132         103.2990519602        2810.9101077460      PH        B1 (2)
  191    74         103.3068339752        2811.1218671386      DE        A1 (1)
  192   216         103.3068339752        2811.1218671405      DE        A2 (4)
  193   185         103.3450859720        2812.1627568894      PI        B2 (3)
  194   133         103.3450859720        2812.1627568894      PI        B1 (2)
  195    75         103.3481383365        2812.2458159507     SG+        A1 (1)
  196    76         114.9899542986        3129.0357335682      DE        A1 (1)
  197   217         114.9899542986        3129.0357335682      DE        A2 (4)
  198   186         115.1656308570        3133.8161357534      PI        B2 (3)
  199   134         115.1656308570        3133.8161357534      PI        B1 (2)
  200    77         115.4259631233        3140.9001368633     SG+        A1 (1)
  201   187         116.8147647455        3178.6913502719      PI        B2 (3)
  202   135         116.8147647456        3178.6913502728      PI        B1 (2)
  203    78         117.4672435969        3196.4462024551     SG+        A1 (1)
  204    79         122.0033010502        3319.8786009429     SG+        A1 (1)
  205   218         198.5519085937        5402.8721095450      DE        A2 (4)
  206    80         198.5519085937        5402.8721095452      DE        A1 (1)
  207   136         198.6515135972        5405.5824994846      PI        B1 (2)
  208   188         198.6515135972        5405.5824994849      PI        B2 (3)
  209    81         198.8469402566        5410.9003292387     SG+        A1 (1)
  210    82         216.3755113930        5887.8769988870     SG+        A1 (1)
  211   137         224.8381044469        6118.1558630344      PI        B1 (2)
  212   189         224.8381044469        6118.1558630346      PI        B2 (3)
  213    83         225.5107744933        6136.4601455676     SG+        A1 (1)
  214   190         395.3188132920       10757.1717937218      PI        B2 (3)
  215   138         395.3188132920       10757.1717937226      PI        B1 (2)
  216    84         395.8643564158       10772.0167768243     SG+        A1 (1)
  217    85         508.6943648604       13842.2773956351     SG+        A1 (1)
  218    86         895.1996402162       24359.6206294655     SG+        A1 (1)


  VSCF finished.

 @CHECKOUT-I, Total execution time (CPU/WALL):       49.77/      10.98 seconds.
--executable xvscf finished with status     0 in       11.01 seconds (walltime).
 --invoking executable--
/nfs/workspaces/public/cfour_mpi/bin/xvtran
 @GETMEM-I,  Allocated    3814 MB of main memory.
  Full RHF integral transformation
  Transformation of IIII integrals :
  1 pass through the AO integral file was required.
     4472341 AO integrals were read.
     8689368 MO integrals were written to HF2.
  Transformation of IIJJ integrals :
  1 pass through the AO integral file was required.
    10156804 AO integrals were read.
    14448223 MO integrals were written to HF2.
  Transformation of IJIJ integrals :
  1 pass through the AO integral file was required.
    19288586 AO integrals were read.
    26911962 MO integrals were written to HF2.
  Transformation of IJKL integrals :
  1 pass through the AO integral file was required.
    14267333 AO integrals were read.
    18200663 MO integrals were written to HF2.
  Summary of active molecular orbitals: 
------------------------------------------------------------------------
 
  Index      Eigenvalue    Symmetry    Index      Eigenvalue    Symmetry
------------------------------------------------------------------------
     1       -20.6549846        1       110         4.1309152        2
     2       -11.4961926        1       111         4.1615842        2
     3        -1.3191870        1       112         4.6163313        2
     4        -0.7971788        1       113         5.1748744        2
     5        -0.5509014        1       114         5.3770128        2
     6        -0.5205924        2       115         5.9227464        2
     7        -0.5205924        3       116         6.1695877        2
     8         0.0633468        1       117         6.3734395        2
     9         0.0682935        1       118         6.8784902        2
    10         0.1566549        1       119         7.4730996        2
    11         0.2174773        1       120         9.8564681        2
    12         0.2242518        1       121        10.7506061        2
    13         0.2998791        1       122        10.9959139        2
    14         0.3454319        1       123        11.8790935        2
    15         0.4466708        1       124        12.4967250        2
    16         0.5120002        1       125        13.0872922        2
    17         0.5484241        1       126        18.7952237        2
    18         0.7172015        1       127        26.6569207        2
    19         0.7462064        1       128        33.5267833        2
    20         0.8251409        1       129        47.2571503        2
    21         0.8679998        1       130        66.3649112        2
    22         0.8720819        1       131        98.5340862        2
    23         1.1258586        1       132        98.5624920        2
    24         1.3830642        1       133       103.2990520        2
    25         1.5747937        1       134       103.3450860        2
    26         1.6119323        1       135       115.1656309        2
    27         1.6978225        1       136       116.8147647        2
    28         1.9055262        1       137       198.6515136        2
    29         1.9856158        1       138       224.8381044        2
    30         2.0771409        1       139       395.3188133        2
    31         2.1385069        1       140         0.0147131        3
    32         2.2456202        1       141         0.0852719        3
    33         2.3007148        1       142         0.1754006        3
    34         2.4550634        1       143         0.2918315        3
    35         2.6041832        1       144         0.4018098        3
    36         2.7118967        1       145         0.6235726        3
    37         3.0885375        1       146         0.7367129        3
    38         3.7030088        1       147         0.7850175        3
    39         3.9055936        1       148         0.8949130        3
    40         4.1806274        1       149         1.0333327        3
    41         4.2128005        1       150         1.4244828        3
    42         4.2765913        1       151         1.5258189        3
    43         4.4396106        1       152         1.6387013        3
    44         4.7694204        1       153         2.0901642        3
    45         4.7781469        1       154         2.2168329        3
    46         5.3448074        1       155         2.2391658        3
    47         5.8434237        1       156         2.2450027        3
    48         6.1019060        1       157         2.5201698        3
    49         6.1508875        1       158         2.6076974        3
    50         6.2297317        1       159         3.4873003        3
    51         6.4175146        1       160         3.9664796        3
    52         6.5080089        1       161         4.1309152        3
    53         7.1635504        1       162         4.1615842        3
    54         8.1150167        1       163         4.6163313        3
    55         9.6593903        1       164         5.1748744        3
    56        10.6397081        1       165         5.3770128        3
    57        10.7134484        1       166         5.9227464        3
    58        10.9846374        1       167         6.1695877        3
    59        11.2211130        1       168         6.3734395        3
    60        12.0206482        1       169         6.8784902        3
    61        12.7339836        1       170         7.4730996        3
    62        12.7409530        1       171         9.8564681        3
    63        13.7282721        1       172        10.7506061        3
    64        17.4282471        1       173        10.9959139        3
    65        19.9941585        1       174        11.8790935        3
    66        26.2920037        1       175        12.4967250        3
    67        27.1474181        1       176        13.0872922        3
    68        34.3306734        1       177        18.7952237        3
    69        35.7734492        1       178        26.6569207        3
    70        47.0739904        1       179        33.5267833        3
    71        47.6334201        1       180        47.2571503        3
    72        63.8460326        1       181        66.3649112        3
    73        67.2283776        1       182        98.5340862        3
    74        98.5474716        1       183        98.5624920        3
    75        98.5773002        1       184       103.2990520        3
    76       103.3068340        1       185       103.3450860        3
    77       103.3481383        1       186       115.1656309        3
    78       114.9899543        1       187       116.8147647        3
    79       115.4259631        1       188       198.6515136        3
    80       117.4672436        1       189       224.8381044        3
    81       122.0033011        1       190       395.3188133        3
    82       198.5519086        1       191         0.2242518        4
    83       198.8469403        1       192         0.5484241        4
    84       216.3755114        1       193         0.7462064        4
    85       225.5107745        1       194         0.8679998        4
    86       395.8643564        1       195         1.5747937        4
    87       508.6943649        1       196         1.6978225        4
    88       895.1996402        1       197         2.0771409        4
    89         0.0147131        2       198         2.1385069        4
    90         0.0852719        2       199         2.3007148        4
    91         0.1754006        2       200         2.7118967        4
    92         0.2918315        2       201         3.7030088        4
    93         0.4018098        2       202         4.2128005        4
    94         0.6235726        2       203         4.2765913        4
    95         0.7367129        2       204         4.7781469        4
    96         0.7850175        2       205         5.8434237        4
    97         0.8949130        2       206         6.1508875        4
    98         1.0333327        2       207         6.4175146        4
    99         1.4244828        2       208         6.5080089        4
   100         1.5258189        2       209        10.6397081        4
   101         1.6387013        2       210        10.9846374        4
   102         2.0901642        2       211        12.0206482        4
   103         2.2168329        2       212        12.7409530        4
   104         2.2391658        2       213        26.2920037        4
   105         2.2450027        2       214        47.0739904        4
   106         2.5201698        2       215        98.5474716        4
   107         2.6076974        2       216       103.3068340        4
   108         3.4873003        2       217       114.9899543        4
   109         3.9664796        2       218       198.5519086        4
------------------------------------------------------------------------
  -20.6549846301090       -11.4961925693517       -1.31918701931780     
 -0.797178770031093      -0.550901377704331      -0.520592447893469     
 -0.520592447893449       6.334675283441503E-002  6.829354544386189E-002
  0.156654909746022       0.217477320473824       0.224251800795102     
  0.299879107455823       0.345431931546333       0.446670775203139     
  0.512000187411921       0.548424053797232       0.717201495582308     
  0.746206375034394       0.825140938577274       0.867999849077566     
  0.872081888305305        1.12585856234039        1.38306420069957     
   1.57479372822030        1.61193226379581        1.69782253507876     
   1.90552615909208        1.98561579101942        2.07714090099569     
   2.13850687960566        2.24562017978911        2.30071475462374     
   2.45506335260611        2.60418315361156        2.71189667446341     
   3.08853752451478        3.70300876486047        3.90559356780176     
   4.18062737282647        4.21280046882162        4.27659134345833     
   4.43961062714127        4.76942040397191        4.77814691562373     
   5.34480737573563        5.84342365119692        6.10190600631315     
   6.15088754543235        6.22973167848925        6.41751463387912     
   6.50800886781665        7.16355044991048        8.11501670109284     
   9.65939027930771        10.6397080927192        10.7134484236964     
   10.9846374425947        11.2211130288551        12.0206481716109     
[...]
 Convergence information after    14 iterations: 
 Largest element of residual vector :  0.12815977E-05.
 Largest element of DIIS residual   :  0.87536793E-06.
 Convergence information after    15 iterations: 
 Largest element of residual vector :  0.98441538E-06.
 Largest element of DIIS residual   :  0.71273722E-06.
 Convergence information after    16 iterations: 
 Largest element of residual vector :  0.52547629E-06.
 Largest element of DIIS residual   :  0.25284930E-06.
 Convergence information after    17 iterations: 
 Largest element of residual vector :  0.27080356E-06.
 Largest element of DIIS residual   :  0.91058737E-07.
 Perturbed amplitude equations converged in    17 iterations.
  Dominant contributions to perturbed wavefunction:
    7    7  140   28   0.2317010968 ABAB
    7    7   28  140   0.2317010968 ABAB
    7    7  140   39  -0.2203595213 ABAB
    7    7   39  140  -0.2203595213 ABAB
    7    7  140   44  -0.1958025226 ABAB
    7    7   44  140  -0.1958025226 ABAB
    7    7  140   22  -0.1955634330 ABAB
    7    7   22  140  -0.1955634330 ABAB
    7    7  140   54   0.1603778163 ABAB
    7    7   54  140   0.1603778163 ABAB
    7    7  140   29  -0.1514525192 ABAB
    7    7   29  140  -0.1514525192 ABAB
    7    7  140   57   0.1504598214 ABAB
    7    7   57  140   0.1504598214 ABAB
    7    6   28   89   0.1454087039 ABAB
    6    7   89   28   0.1454087039 ABAB
    7    0   35    0  -0.1446173878 AA  
    7    6   39   89  -0.1391889040 ABAB
    6    7   89   39  -0.1391889040 ABAB
    7    7  140   24  -0.1330909635 ABAB
  norm of converged amps    1.78250328370114     
 Starting iterative solution of the perturbed Lambda equations.
 The DIIS procedure is used to accelerate convergence.
 Convergence criterion is 10**(-7).
 Maximum number of iterations is 100.
 Convergence information after     1 iterations: 
 Largest element of residual vector :  0.72737839E-01.
 Largest element of DIIS residual   :  0.72737839E-01.
 Convergence information after     2 iterations: 
 Largest element of residual vector :  0.13237679E-01.
 Largest element of DIIS residual   :  0.98148487E-02.
 Convergence information after     3 iterations: 
 Largest element of residual vector : -0.63519032E-02.
 Largest element of DIIS residual   : -0.59381721E-02.
 Convergence information after     4 iterations: 
 Largest element of residual vector : -0.38860566E-02.
 Largest element of DIIS residual   : -0.34528092E-02.
 Convergence information after     5 iterations: 
 Largest element of residual vector : -0.30637970E-02.
 Largest element of DIIS residual   : -0.21591395E-02.
 Convergence information after     6 iterations: 
 Largest element of residual vector : -0.14123681E-02.
 Largest element of DIIS residual   : -0.62559969E-03.
 Convergence information after     7 iterations: 
 Largest element of residual vector : -0.63192668E-03.
 Largest element of DIIS residual   : -0.26908582E-03.
 Convergence information after     8 iterations: 
 Largest element of residual vector : -0.17866250E-03.
 Largest element of DIIS residual   : -0.11842920E-03.
 Convergence information after     9 iterations: 
 Largest element of residual vector : -0.72624242E-04.
 Largest element of DIIS residual   : -0.29680260E-04.
 Convergence information after    10 iterations: 
 Largest element of residual vector : -0.24475911E-04.
 Largest element of DIIS residual   : -0.11073290E-04.
 Convergence information after    11 iterations: 
 Largest element of residual vector : -0.50631964E-05.
 Largest element of DIIS residual   : -0.35558676E-05.
 Convergence information after    12 iterations: 
 Largest element of residual vector : -0.20538705E-05.
 Largest element of DIIS residual   : -0.14432810E-05.
 Convergence information after    13 iterations: 
 Largest element of residual vector : -0.13492659E-05.
 Largest element of DIIS residual   :  0.13091419E-05.
 Convergence information after    14 iterations: 
 Largest element of residual vector :  0.81141571E-06.
 Largest element of DIIS residual   :  0.61175260E-06.
 Convergence information after    15 iterations: 
 Largest element of residual vector :  0.66394551E-06.
 Largest element of DIIS residual   :  0.50804275E-06.
 Convergence information after    16 iterations: 
 Largest element of residual vector :  0.36565781E-06.
 Largest element of DIIS residual   :  0.20673588E-06.
 Convergence information after    17 iterations: 
 Largest element of residual vector :  0.20221174E-06.
 Largest element of DIIS residual   :  0.82083830E-07.
 Perturbed Lambda equations converged in    17 iterations.
  Dominant contributions to perturbed wavefunction:
    7    7  140   28   0.2025313207 ABAB
    7    7   28  140   0.2025313207 ABAB
    7    7  140   39  -0.1892332676 ABAB
    7    7   39  140  -0.1892332676 ABAB
    7    7  140   22  -0.1691009662 ABAB
    7    7   22  140  -0.1691009662 ABAB
    7    7  140   44  -0.1690272773 ABAB
    7    7   44  140  -0.1690272773 ABAB
    7    7  140   54   0.1403043480 ABAB
    7    7   54  140   0.1403043480 ABAB
    7    7  140   57   0.1288453618 ABAB
    7    7   57  140   0.1288453618 ABAB
    7    7  140   29  -0.1283285341 ABAB
    7    7   29  140  -0.1283285341 ABAB
    7    6   28   89   0.1250172749 ABAB
    6    7   89   28   0.1250172749 ABAB
    7    6   39   89  -0.1177011574 ABAB
    6    7   89   39  -0.1177011574 ABAB
    7    7  140   24  -0.1111132207 ABAB
    7    7   24  140  -0.1111132207 ABAB
        The DBOC first-order density matrix is being calculated 
             (Symmetry block 3, perturbation   2)
 term   3.43603008608094     
 final tnorm  0.826606238492213     
  norm contr. I: |<0|L dT/dx|0>|^2   0.000000000000000E+000
  norm contr. II: <0|[nabla(1+L)e-T][nabla e^T]|0>   3.43603008608094     
  total norm contribution   3.43603008608094     
 oo  8.196532673414938E-003
 vv  -25.7315464858167     
 vo  7.460828540885038E-002
  Correlated perturbed 1-el contribution to DBOC  -25.6487416677344       cm**-1
  SUM_I |dc_I/dx|^2 contribution to DBOC   12.9356554764324       cm**-1
 
 
  The total diagonal Born-Oppenheimer correction (DBOC) is:      0.0040087400 a.u.
  The total diagonal Born-Oppenheimer correction (DBOC) is:        879.816730 cm-1
 
 Total CC energy including DBOC  -113.134992389298     
 First-order density matrix is being calculated  (Symmetry block 3, perturbation   2)
 Calculation of the contributions of <pq||rs> to dI(i,j)/dx required   2.1 seconds.
 Calculation of the contributions of <pq||rs> to dI(a,b)/dx required  16.2 seconds.
 Calculation of the contributions of <pq||rs> to dI(i,a)/dx required  10.5 seconds.
 First-order Z-vector equations are solved for 1 perturbation.
 Convergence reached after  19 iterations.
        U*G(pq,rs) contribution is being calculated
             (Symmetry block 3, perturbation   2)

 CCSD contribution to force constants 

        0.0000000000        0.0000000000        0.0000000000
        0.0000000000        0.0000000000        0.0000000000
        0.0000000000        0.0000000000        0.0000000000
        0.0000000000        0.0000000000        0.0000000000
        0.0000000000        0.0000000000        0.0000000000
        0.0000000000        0.0000000000        0.0000000000
        0.0000000000        0.0000000000        0.0000000000
        0.0000000000        0.0000000000        0.0000000000
        0.0000000000        0.0000000000        0.0000000000
        0.0000000000        0.0000000000        0.0000000000
        0.0000000000        0.0000000000        0.0000000000
        0.0000000000       -1.7855800111        1.7855800111

 CCSD contribution to dipole derivatives 

        0.0000000000        0.0000000000        0.0000000000
        0.0000000000        0.0000000000        0.0000000000
        0.0000000000        0.0000000000        0.0000000000
        0.0000000000        0.0000000000       -0.0562778411
        0.0000000000        0.0000000000        0.0000000000
        0.0000000000        0.0000000000        0.0000000000
 @CHECKOUT-I, Total execution time (CPU/WALL):     1299.75/     522.18 seconds.
--executable xsdcc finished with status     0 in      522.40 seconds (walltime).
 --invoking executable--
/nfs/workspaces/public/cfour_mpi/bin/xanti
 @GETMEM-I,  Allocated    3814 MB of main memory.
 CCSD MO derivative gammas will be sorted to Mulliken order.
 @CHECKOUT-I, Total execution time (CPU/WALL):       12.58/      21.48 seconds.
--executable xanti finished with status     0 in       21.62 seconds (walltime).
 --invoking executable--
/nfs/workspaces/public/cfour_mpi/bin/xbcktrn
 @GETMEM-I,  Allocated    3814 MB of main memory.
 CCSD MO derivative gammas will be transformed to the AO basis.
 @CHECKOUT-I, Total execution time (CPU/WALL):       25.40/      16.07 seconds.
--executable xbcktrn finished with status     0 in       16.13 seconds (walltime).
 --invoking executable--
/nfs/workspaces/public/cfour_mpi/bin/xvdint
 @GETMEM-I,  Allocated    3814 MB of main memory.
 One- and two-electron integral derivatives are calculated
 for RHF-CC/MBPT hessians and dipole derivatives.
 Spherical gaussians are used.
  magnet F F
                    8722  records have been written to the Sort file.
  Total length of Sort file :             178609116  words.
 Evaluation of 2el integral derivatives

                      Two-electron integral gradient
                      ------------------------------

                         C #1 z     0.0000000000
                         O #2 z     0.0000000000


 C #1       0.0000000000            0.0197506351            0.0000000000
 O #2       0.0000000000           -0.0197506351            0.0000000000


 Evaluation of 2e integral derivatives required  362.96 seconds.
  contribution to Hessian
        0.0000000000        0.0000000000        0.0000000000
        0.0000000000        0.0197506351       -0.0197506351
 @CHECKOUT-I, Total execution time (CPU/WALL):      362.88/      82.93 seconds.
--executable xvdint finished with status     0 in       83.17 seconds (walltime).
 --invoking executable--
/nfs/workspaces/public/cfour_mpi/bin/xanti
 @GETMEM-I,  Allocated    3814 MB of main memory.
 CCSD MO gammas will be sorted to Mulliken order.
 @CHECKOUT-I, Total execution time (CPU/WALL):       16.99/      56.44 seconds.
--executable xanti finished with status     0 in       56.55 seconds (walltime).
 --invoking executable--
/nfs/workspaces/public/cfour_mpi/bin/xbcktrn
 @GETMEM-I,  Allocated    3814 MB of main memory.
 CCSD MO gammas will be transformed to the AO basis.
 @CHECKOUT-I, Total execution time (CPU/WALL):       39.12/      18.89 seconds.
--executable xbcktrn finished with status     0 in       18.93 seconds (walltime).
 --invoking executable--
/nfs/workspaces/public/cfour_mpi/bin/xvdint
 @GETMEM-I,  Allocated    3814 MB of main memory.
 One- and two-electron integral derivatives are calculated
 for RHF-CC/MBPT hessians and dipole derivatives.
 Spherical gaussians are used.
  magnet F F

                     Kinetic energy integral gradient
                     --------------------------------

                         C #1 z    -0.6710900269
                         O #2 z     0.6710900269


 C #1       0.0000000000            0.0000000000           -0.6710900269
 O #2       0.0000000000            0.0000000000            0.6710900269



                   Nuclear attraction integral gradient
                   ------------------------------------

                         C #1 z    15.4337424362
                         O #2 z   -15.4337424362


 C #1       0.0000000000            0.0000000000           15.4337424362
 O #2       0.0000000000            0.0000000000          -15.4337424362



                      Reorthonormalization gradient
                      -----------------------------

                         C #1 z     0.0000000000
                         O #2 z     0.0000000000


 C #1       0.0000000000            0.0000000000            0.0000000000
 O #2       0.0000000000            0.0000000000            0.0000000000



                     Kinetic energy integral Hessian
                     -------------------------------


           Symmetry 1

           C #1 z      O #2 z

 C #1 z    0.693670
 O #2 z   -0.693670    0.693670


           Symmetry 2

           C #1 x      O #2 x

 C #1 x   -0.569425
 O #2 x    0.569425   -0.569425


           Symmetry 3

           C #1 y      O #2 y

 C #1 y   -0.569425
 O #2 y    0.569425   -0.569425




           C #1 x      C #1 y      C #1 z      O #2 x      O #2 y      O #2 z

 C #1 x   -0.569425
 C #1 y    0.000000   -0.569425
 C #1 z    0.000000    0.000000    0.693670

 O #2 x    0.569425    0.000000    0.000000   -0.569425
 O #2 y    0.000000    0.569425    0.000000    0.000000   -0.569425
 O #2 z    0.000000    0.000000   -0.693670    0.000000    0.000000    0.693670




                   Nuclear attraction integral Hessian
                   -----------------------------------


           Symmetry 1

           C #1 z      O #2 z

 C #1 z   -9.524320
 O #2 z    9.524320   -9.524320


           Symmetry 2

           C #1 x      O #2 x

 C #1 x    9.125344
 O #2 x   -9.125344    9.125344


           Symmetry 3

           C #1 y      O #2 y

 C #1 y    9.125344
 O #2 y   -9.125344    9.125344




           C #1 x      C #1 y      C #1 z      O #2 x      O #2 y      O #2 z

 C #1 x    9.125344
 C #1 y    0.000000    9.125344
 C #1 z    0.000000    0.000000   -9.524320

 O #2 x   -9.125344    0.000000    0.000000    9.125344
 O #2 y    0.000000   -9.125344    0.000000    0.000000    9.125344
 O #2 z    0.000000    0.000000    9.524320    0.000000    0.000000   -9.524320




                Highest order reorthonormalization Hessian
                ------------------------------------------


           Symmetry 1

           C #1 z      O #2 z

 C #1 z    0.000000
 O #2 z    0.000000    0.000000


           Symmetry 2

           C #1 x      O #2 x

 C #1 x    0.000000
 O #2 x    0.000000    0.000000


           Symmetry 3

           C #1 y      O #2 y

 C #1 y    0.000000
 O #2 y    0.000000    0.000000




           C #1 x      C #1 y      C #1 z      O #2 x      O #2 y      O #2 z




                Electronic contributions to dipole moment
                -----------------------------------------

                               au             Debye

                    z      1.16485178      2.96075842

  Conversion factor used: 1 a.u. =   2.54174691 Debye 



   Electronic contributions to static part of dipole moment derivatives
   --------------------------------------------------------------------


                     Total dipole moment derivatives
                     -------------------------------


           Symmetry 1
                              Ez

               C #1 z    -5.66759874
               O #2 z    -8.33240126

           Symmetry 2
                              Ex

               C #1 x    -5.67009747
               O #2 x    -8.32990253

           Symmetry 3
                              Ey

               C #1 y    -5.67009747
               O #2 y    -8.32990253



                       Ex          Ey          Ez

      C #1    x   -5.670097    0.000000    0.000000
      C #1    y    0.000000   -5.670097    0.000000
      C #1    z    0.000000    0.000000   -5.667599

      O #2    x   -8.329903    0.000000    0.000000
      O #2    y    0.000000   -8.329903    0.000000
      O #2    z    0.000000    0.000000   -8.332401

 Evaluation of 1e integral derivatives required    1.88 seconds.
                    8815  records have been written to the Sort file.
  Total length of Sort file :             180513570  words.
 Evaluation of 2el integral derivatives

                      Two-electron integral gradient
                      ------------------------------

                         C #1 z    -8.0666919394
                         O #2 z     8.0666919394


 C #1       0.0000000000            0.0000000000           -8.0666919394
 O #2       0.0000000000            0.0000000000            8.0666919394


 Evaluation of 2e integral derivatives required  707.20 seconds.

                            Molecular gradient
                            ------------------

                         C #1 z     0.6387617286
                         O #2 z    -0.6387617286


 C #1       0.0000000000            0.0000000000            0.6387617286
 O #2       0.0000000000            0.0000000000           -0.6387617286


  Molecular gradient norm 0.903E+00

                            Molecular hessian
                            -----------------


           Symmetry 1

           C #1 z      O #2 z

 C #1 z   23.135066
 O #2 z  -23.135066   23.135066


           Symmetry 2

           C #1 x      O #2 x

 C #1 x    2.037580
 O #2 x   -2.037580    2.037580


           Symmetry 3

           C #1 y      O #2 y

 C #1 y    2.037580
 O #2 y   -2.037580    2.037580




           C #1 x      C #1 y      C #1 z      O #2 x      O #2 y      O #2 z

 C #1 x    2.037580
 C #1 y    0.000000    2.037580
 C #1 z    0.000000    0.000000   23.135066

 O #2 x   -2.037580    0.000000    0.000000    2.037580
 O #2 y    0.000000   -2.037580    0.000000    0.000000    2.037580
 O #2 z    0.000000    0.000000  -23.135066    0.000000    0.000000   23.135066




                           Total dipole moment
                           -------------------

                               au             Debye

                    z      0.38267504      0.97266309

  Conversion factor used: 1 a.u. =   2.54174691 Debye 



                     Total dipole moment derivatives
                     -------------------------------


           Symmetry 1
                              Ez

               C #1 z     0.63503452
               O #2 z    -0.63503452

           Symmetry 2
                              Ex

               C #1 x     0.13974610
               O #2 x    -0.13974610

           Symmetry 3
                              Ey

               C #1 y     0.13974610
               O #2 y    -0.13974610



                       Ex          Ey          Ez

      C #1    x    0.139746    0.000000    0.000000
      C #1    y    0.000000    0.139746    0.000000
      C #1    z    0.000000    0.000000    0.635035

      O #2    x   -0.139746    0.000000    0.000000
      O #2    y    0.000000   -0.139746    0.000000
      O #2    z    0.000000    0.000000   -0.635035

 @CHECKOUT-I, Total execution time (CPU/WALL):      709.07/     122.38 seconds.
--executable xvdint finished with status     0 in      122.54 seconds (walltime).
 --invoking executable--
/nfs/workspaces/public/cfour_mpi/bin/xjoda
  @GTFLGS-I, Hessian will be transformed to curvilinear coordinates.
  @GTFLGS-I, Hessian will be transformed to curvilinear coordinates.
  igrd and ihes are                      0                     1
  gradient from JOBARC 
   0.000000000000000   0.000000000000000   0.638761728567660
   0.000000000000000   0.000000000000000  -0.638761728567660
 
  @PROJFCM-I, Projecting force constant matrix onto totally symmetric subspace.
  Largest difference between matrix elements of symmetrized
  and unsymmetrized FCM :     0.1505462421E-12.
  read isotopes from ZMAT file 
 
  Summary of diagonal Born-Oppenheimer correction at the correlated level
  The total diagonal Born-Oppenheimer correction (DBOC) is:      0.0040087400 a.u.
  The total diagonal Born-Oppenheimer correction (DBOC) is:        879.816730 cm-1
  The total diagonal Born-Oppenheimer correction (DBOC) is:            10.525 kJ/mole
  hellooooooo 
  readis is  F
 
 @CHECKOUT-I, Total execution time (CPU/WALL):        0.02/       0.07 seconds.
--executable xjoda finished with status     0 in        0.12 seconds (walltime).
  The final electronic energy is      -113.134992389297906 a.u. 
  This computation required                         4623.72 seconds (walltime).
