 --invoking executable--
/nfs/workspaces/public/cfour_mpi/bin/xjoda


   *************************************************************************
         <<<     CCCCCC     CCCCCC   |||     CCCCCC     CCCCCC   >>>
       <<<      CCC        CCC       |||    CCC        CCC         >>>
      <<<      CCC        CCC        |||   CCC        CCC            >>>
    <<<        CCC        CCC        |||   CCC        CCC              >>>
      <<<      CCC        CCC        |||   CCC        CCC            >>>
       <<<      CCC        CCC       |||    CCC        CCC         >>>
         <<<     CCCCCC     CCCCCC   |||     CCCCCC     CCCCCC   >>>
   *************************************************************************

     ****************************************************************
     * CFOUR Coupled-Cluster techniques for Computational Chemistry *
     ****************************************************************
 

   Department of Chemistry                Institut fuer Physikalische Chemie
   University of Florida                  Universitaet Mainz
   Gainesville, FL 32611, USA             D-55099 Mainz, Germany

   Department of Chemistry                Fakultaet fuer Chemie und Biowiss.
   Johns Hopkins University               Karlsruher Institut fuer Technologie
   Baltimore, MD 21218, USA               D-76131 Karlsruhe, Germany

   Department of Chemistry                Department of Physical Chemistry
   Southern Methodist University          Eotvos Lorand University
   Dallas, TX 75275, USA                  H-1053 Budapest, Hungary

 
                       Version 2.1
 
                     vincent.theory.phys.ucl.ac.uk                     
                     Fri 28 Feb 15:51:44 GMT 2025                      
                     integer*8 version is running
 
********************************************************************************
*                          Input from ZMAT file                                *
********************************************************************************
Carbon Monoxide DBOC calculation                                                
C                                                                               
O 1 r                                                                           
                                                                                
r=1.6758620689655173                                                            
                                                                                
                                                                                
*CFOUR(CALC=CCSD,BASIS=AUG-PCVQZ,SCF_CONV=10                                    
CC_CONV=14,DBOC=ON,MEMORY=500000000                                             
ZFIELD=200)                                                                     
                                                                                
%isotopes                                                                       
13                                                                              
16                                                                              
********************************************************************************
  @GTFLGS-I, Hessian will be transformed to curvilinear coordinates.
    -------------------------------------------------------------------
                    CFOUR Control Parameters 
    -------------------------------------------------------------------
        External           Internal           Value            Units
          Name               Name
    -------------------------------------------------------------------
       ABCDTYPE             IABCDT         STANDARD    [  0]    ***   
       ANHARMONIC           IANHAR         OFF         [  0]    ***   
       ANH_ALGORIT          IANALG         STANDARD    [  0]    ***   
       ANH_DERIVAT          IANDER         SECOND      [  1]    ***   
       ANH_MODE             ANHMOD         VIBRATION   [  0]    ***   
       ANH_STEPSIZ          ICUBST             50000          x 10-6  
       ANH_SYMMETR          IANHSM         ABELIAN     [  0]    ***   
       AO_LADDERS           IAOLAD         SINGLEPASS  [  1]    ***   
       AV_SCF               IAVSCF         OFF         [  0]    ***   
       BASIS                IBASIS         AUG-PCVQZ   [ 52]    ***   
       BOTHVECTORS          BOTHVC         OFF         [  0]    ***   
       BOX_POTENT           IPIAB          OFF         [  0]    ***   
       BREIT                IBREIT         OFF         [  0]    ***   
       BRUCK_CONV           IBRTOL          10D-  4             ***   
       BRUECKNER            IBRKNR         OFF         [  0]    ***   
       BUFFERSIZE           IBUFFS              4096            ***   
       CACHE_RECS           ICHREC             10               ***   
       CALCLEVEL            ICLLVL         CCSD        [ 10]    ***   
       CCORBOPT             ICCORB         OFF         [  0]  x 0.01  
       CC_CONV              ICCCNV          10D- 14             ***   
       CC_EXPORDER          ICCEOR              5               ***   
       CC_EXTRAPOL          ICCEXT         DIIS        [  1]    ***   
       CC_GUESS             ICCGES         MP2         [  0]    ***   
       CC_MAXCYC            ICCCYC            100              cycles 
       CC_PROGRAM           ICCPRO         VCC         [  0]    ***   
       CHARGE               ICHRGE              0               ***   
       CHOLESKY             ICHOLE         OFF         [  0]    ***   
       CIS_CONV             ICISTL              5               ***   
       COMM_SIZE            IPSIZE            ***               ***   
       CONSTANT             ICONST         OLD         [  1]    ***   
       CONTINUUM            ICONTU         NONE        [  0]    ***   
       CONTRACTION          ICNTYP         GENERAL     [  1]    ***   
       COORDINATES          ICOORD         INTERNAL    [  0]    ***   
       CPHF_CONVER          ICPHFT          10D- 16             ***   
       CPHF_MAXCYC          ICPHFC             64              cycles 
       CUBIC                ICUBIC         OFF         [  0]    ***   
       CURVILINEAR          ICURVY         ON          [  1]    ***   
       DBOC                 IDBOC          ON          [  1]    ***   
       DCT                  IDCT           OFF         [  0]    ***   
       DERIV_LEV            IDRLVL         SECOND      [  2]    ***   
       DEVMEM_SIZE          IDVMEM          50000000           MByte  
       DIAG_MRCC            IEOMST          10D-  0             ***   
       DIFF_TYPE            IDIFTY         RELAXED     [  0]    ***   
       DIRECT               IDIRCT         OFF         [  0]    ***   
       DROPMO               IDRPMO      NONE         
       ECP                  IECP           OFF         [  0]    ***   
       EIGENVECTOR          IVEC                1               ***   
       EL_ANHARM            IELANH         OFF         [  0]    ***   
       EOMFOLLOW            IEOMSR         ENERGY      [  0]    ***   
       EOMIP                IEOMIP         OFF         [  0]    ***   
       EOMLEVEL             HBARFM         SAME        [  0]    ***   
       EOM_MRCC             IMRCCE         NEW         [  1]    ***   
       EOM_NONIT            EOMNON         OFF         [  0]    ***   
       EOM_NSING            IEOMSI          10D-  0             ***   
       EOM_NSTATES          IMRCCD         DAVIDSON    [  0]    ***   
       EOM_NTRIP            IEOMTR          10D-  0             ***   
       EOM_ORDER            IEXORD         ENERGY      [  0]    ***   
       EOM_PROPSTA          IEOMST              0               ***   
       ESTATE_CONV          IEXTOL          10D-  5             ***   
       ESTATE_DIAG          IEXDIG         ITERATIVE   [  0]    ***   
       ESTATE_LOCK          IESLOC         ON          [  1]    ***   
       ESTATE_MAXC          IEXMXC             40               ***   
       ESTATE_PROP          IEXPRP         OFF         [  0]    ***   
       EVAL_HESS            IRECAL              0            # of cyc.
       EXCITATION           IEXCIT              0               ***   
       EXCITE               IEXCIT         NONE        [  0]    ***   
       EXTERN_POT           IEXPOT         OFF         [  0]    ***   
       FCGRADNEW            IFCGNW         OFF         [  0]    ***   
       FC_FIELD             IFINFC              0             x 10-6  
       FD_CALTYPE           IFDCAL         GRADONLY    [  0]    ***   
       FD_PROJECT           IFDPRJ         OFF         [  1]    ***   
       FD_STEPSIZE          IDISFD              0            10-4 bohr
       FD_USEGROUP          IFDGRP         FULL        [  0]    ***   
       FILE_RECSIZ          IFLREC              4096           words  
       FINITE_PERT          IFIPER              0             x 10-6  
       FIXGEOM              IFIXGM         OFF         [  0]    ***   
       FOCK                 IFOCK          AO          [  1]    ***   
       FREQ_ALGORI          IVIALG         STANDARD    [  0]    ***   
       FROZEN_CORE          IFROCO         OFF         [  0]    ***   
       GAMMA_ABCD           IGABCD         STORE       [  0]    ***   
       GAMMA_ABCI           IGABCI         STORE       [  0]    ***   
       GENBAS_1             IGNBS1              0               ***   
       GENBAS_2             IGNBS2              0               ***   
       GENBAS_3             IGNBS3              0               ***   
       GENBAS_4             IGNBS4              0               ***   
       GEO_CONV             ICONTL              5              H/bohr 
       GEO_MAXCYC           IOPTCY             50               ***   
       GEO_MAXSTEP          IMXSTP            300            millibohr
       GEO_METHOD           INR            SINGLE_POINT[  5]    ***   
       GIAO                 IGIAO          OFF         [  1]    ***   
       GIMIC                IGIMIC         OFF         [  0]    ***   
       GRID                 IGRID          OFF         [  0]    ***   
       GRID_ALGO            IGALGO         SERIAL      [  0]    ***   
       GUESS                IGUESS         MOREAD      [  0]    ***   
       HBAR                 IHBAR          OFF         [  0]    ***   
       HESS_TYPE            IHESTP         SCF         [  0]    ***   
       HF2_FILE             IHF2Fl         USE         [  1]    ***   
       HFSTABILITY          ISTABL         OFF         [  0]    ***   
       INCORE               INCORE         OFF         [  0]    ***   
       INPUT_MRCC           IMRCC          ON          [  1]    ***   
       INTEGRALS            INTTYP         VMOL        [  1]    ***   
       JODA_PRINT           IJPRNT              0               ***   
       KEYWORD_OUT          IDMPKW         NO          [  0]    ***   
       LINDEP_TOL           ILINDP              8               ***   
       LINEQ_CONV           IZTACN          10D-  7           cycles  
       LINEQ_EXPOR          ILMAXD              5               ***   
       LINEQ_MAXCY          ILMAXC            100               ***   
       LINEQ_TYPE           ILTYPE         DIIS        [  1]    ***   
       LOCK_ORBOCC          ILOCOC         OFF         [  0]    ***   
       MEMORY_SIZE          IMEMSZ         500000000           words  
       MEM_UNIT             IMEMU          INTEGERWORDS[  0]    ***   
       MRCC                 IMRCCC         OFF         [  0]    ***   
       MULTIPLICTY          IMULTP              1               ***   
       NACOUPLING           IVCOUP         OFF         [  0]    ***   
       NEGEVAL              IDIE           ABORT       [  0]    ***   
       NEWNORM              INEWNO         OFF         [  0]    ***   
       NON-HF               INONHF         OFF         [  0]    ***   
       NTOP_TAMP            ITOPT2             15               ***   
       NUC_MODEL            INUCMO         POINT       [  0]    ***   
       OCCUPATION           IOCCU   ESTIMATED BY SCF 
       OPEN-SHELL           IOPEN          SPIN-ORBITAL[  0]    ***   
       OPTVIB               IOPTVB         OFF         [  0]    ***   
       ORBITALS             IORBTP         STANDARD    [  0]    ***   
       PARALLEL             IPARAL         ON          [  1]    ***   
       PARA_INT             IPINTS         ON          [  1]    ***   
       PARA_PRINT           IPPRIN              0               ***   
       PERT_ORB             IPTORB         STANDARD    [  0]    ***   
       POINTS               IGRDFD              0               ***   
       PRINT                IPRNT               0               ***   
       PROPS                IPROPS         OFF         [  0]    ***   
       PROP_INTEGR          IINTYP         INTERNAL    [  0]    ***   
       PSI                  IPSI           OFF         [  0]    ***   
       QC_ALG               IQCALG         FLM         [  0]    ***   
       QC_LINALG            IQCLIN         TRIDIAG     [  2]    ***   
       QC_MAXCYC            IQCMAX          10D-100           cycles  
       QC_MAXSCFCY          IQCMSC          10D- 15           cycles  
       QC_RTRUST            IQCRTR          10D-  0           x 10-3  
       QC_SKIPSCF           IQCSKI         OFF         [  0]    ***   
       QC_START             IQCSTA          10D-  1             ***   
       QRHFGUESS            IQGUES         OFF         [  0]    ***   
       QUARTIC              IQUART         OFF         [  0]    ***   
       RAMAN_INT            IRAMIN         OFF         [  0]    ***   
       RAMAN_ORB            IRAMRE         UNRELAXED   [  0]    ***   
       RDO                  IRDOFM         ON          [  1]    ***   
       REDUCE_REPR          REDREP         Ir          [  0]    ***   
       REFERENCE            IREFNC         RHF         [  0]    ***   
       RELATIVIST           IRELAT         OFF         [  0]    ***   
       RELAX_DENS           IRDENS         ON          [  1]    ***   
       RESET_FLAGS          IRESET         OFF         [  0]    ***   
       RESTART_CC           ICCRES         OFF         [  0]    ***   
       ROT_EVEC             ROTVEC              0               ***   
       SAVE_INTS            ISVINT         OFF         [  0]    ***   
       SCALE_ON             ISTCRT              0               ***   
       SCF_CONV             ISCFCV          10D- 10             ***   
       SCF_DAMPING          IDAMP               0             x 10-3  
       SCF_EXPORDE          IRPPOR              6               ***   
       SCF_EXPSTAR          IRPPLS              8               ***   
       SCF_EXTRAPO          IRPP           ON          [  1]    ***   
       SCF_MAXCYC           ISCFCY            150              cycles 
       SCF_NOSTOP           ISCFST         OFF         [  0]    ***   
       SCF_PRINT            ISCFPR              0               ***   
       SCF_PROG             ISCFPR         SCF         [  0]    ***   
       SD_FIELD             IFINSD              0             x 10-6  
       SOPERT               IPERSO         OFF         [  0]    ***   
       SPHERICAL            IDFGHI         ON          [  1]    ***   
       SPINORBIT            ISOCAL         OFF         [  0]    ***   
       SPINROTATIO          ISRCON         OFF         [  0]    ***   
       SPIN_FLIP            ISPFLP         OFF         [  0]    ***   
       SPIN_ORBIT           ISPORB         OFF         [  0]    ***   
       SPIN_SCAL            ISCSMP         OFF         [  0]    ***   
       STEEPSCALE           ISTPSC              1000          x 10-3  
       SUBGROUP             ISUBGP         DEFAULT     [  0]    ***   
       SUBGRPAXIS           ISBXYZ         X           [  0]    ***   
       SYMMETRY             ISYM           ON          [  0]    ***   
       SYM_CHECK            ISYMCK         OVERRIDE    [  1]    ***   
       T3_EXTRAPOL          IT3EXT         OFF         [  0]    ***   
       T4_EXTRAPOL          IT4EXP         OFF         [  0]    ***   
       TAMP_SUM             IEVERY              5               ***   
       TESTSUITE            ITESTS         OFF         [  0]    ***   
       THERMOCH             ITHERM         OFF         [  0]    ***   
       TOL_CHOLESK          ITOLCH          10D-  4             ***   
       TRANGRAD             IRESRM         OFF         [  0]    ***   
       TRANS_INV            ITRAIN         IGNORE      [  1]    ***   
       TREAT_PERT           ITREAT         SIMULTANEOUS[  0]    ***   
       TRIP_ALGORI          ITRALG         NORMAL      [  0]    ***   
       UIJ_THRESHO          IUIJTH              1               ***   
       UNITS                IUNITS         ANGSTROM    [  0]    ***   
       UNOS                 IUNOS          OFF         [  0]    ***   
       UPDATE_HESS          IHUPDT         ON          [  1]    ***   
       VIBPHASE             ISETPH         STANDARD    [  0]    ***   
       VIBRATION            IVIB           ANALYTIC    [  1]    ***   
       VIB_ALGORIT          IGEALG         STANDARD    [  0]    ***   
       VNATORB              IVNORB         OFF         [  0]    ***   
       VTRAN                IVTRAN         FULL/PARTIAL[  0]    ***   
       XFIELD               IXEFLD              0             x 10-6  
       XFORM_TOL            IXFTOL          10D- 11             ***   
       YFIELD               IYEFLD              0             x 10-6  
       ZFIELD               IZEFLD            200             x 10-6  
       ZSCALE_EXP           IZEXPS         OFF         [  0]    ***   
    -------------------------------------------------------------------
   2 entries found in Z-matrix 
   Job Title : Carbon Monoxide DBOC calculation                                                
   There are  1 unique internal coordinates.
   Of these,  0 will be optimized.
   User supplied Z-matrix: 
--------------------------------------------------------------------------------
       SYMBOL    BOND      LENGTH    ANGLE     ANGLE     DIHED     ANGLE
                  TO      (ANGST)    WRT      (DEG)      WRT      (DEG)
--------------------------------------------------------------------------------
        C    
        O          1         r    
                  *Initial values for internal coordinates* 
                      Name             Value
                        r               1.6758620690
--------------------------------------------------------------------------------
  read isotopes from ZMAT file 
   Rotational constants (in cm-1): 
          0.8368637451             0.8368637451
   Rotational constants (in MHz): 
      25088.5474312884         25088.5474312884
********************************************************************************
   The full molecular point group is CXv .
   The largest Abelian subgroup of the full molecular point group is C2v .
   The computational point group is C2v .
********************************************************************************
--------------------------------------------------------------------------------
   Analysis of internal coordinates specified by Z-matrix 
--------------------------------------------------------------------------------
   *The nuclear repulsion energy is   15.156677432098764 a.u.
   *There is   1 degree of freedom within the tot. symm. molecular subspace.
   *Z-matrix requests optimization of   0 coordinates.
   *The optimization is constrained.
   *The following   1 parameters can have non-zero 
    derivatives within the totally symmetric subspace:
             r    [ 1]
   *The following   0 parameters are to be optimized:

   *The following coordinates must be varied in an  unconstrained optimization.
             r    [ 1]
--------------------------------------------------------------------------------


 ----------------------------------------------------------------
         Coordinates used in calculation (QCOMP) 
 ----------------------------------------------------------------
 Z-matrix   Atomic            Coordinates (in bohr)
  Symbol    Number           X              Y              Z
 ----------------------------------------------------------------
     C         6        -0.00000000     0.00000000     1.74681565
     O         8         0.00000000     0.00000000    -1.42010534
 ----------------------------------------------------------------
 
   Interatomic distance matrix (Angstroms) 
 
                 C             O    
                [ 1]        [ 2]
  C    [ 1]     0.00000
  O    [ 2]     1.67586     0.00000
 rotcon2
   Rotational constants (in cm-1): 
          0.8368637451             0.0000000000
   Rotational constants (in MHz): 
      25088.5474312884             0.0000000000
  ECPDATA file not present.   Using default ECPDATA. 
  @GTFLGS-I, Hessian will be transformed to curvilinear coordinates.
  There are  218 basis functions.
 @CHECKOUT-I, Total execution time (CPU/WALL):        0.24/       0.39 seconds.
--executable xjoda finished with status     0 in        0.42 seconds (walltime).
 --invoking executable--
/nfs/workspaces/public/cfour_mpi/bin/xvmol
 SERIAL VERSION OF MOLECULE STARTED
********************************************************************************
                    INPUT FROM MOL FILE
********************************************************************************
INTGRL        1    0    1    0    0    0    0    0    0                         
         *** CFOUR Program System (Release V0.1) ***                            
Carbon Monoxide DBOC calculation                                                
    2    2 X  Y       0.10E-08              0    0                              
   9999.00      3.00                                                            
          6.00000000    1    5    1    1    1    1    1                         
C #1  -0.000000000000000   0.000000000000000   1.746815652537906                
   16    9                                                                      
   33980.0000000000       9.100000000000000E-005 -1.900000000000000E-005        
  0.000000000000000E+000  0.000000000000000E+000  0.000000000000000E+000        
  0.000000000000000E+000  0.000000000000000E+000  0.000000000000000E+000        
  0.000000000000000E+000                                                        
   5089.00000000000       7.040000000000000E-004 -1.510000000000000E-004        
  0.000000000000000E+000  0.000000000000000E+000  0.000000000000000E+000        
  0.000000000000000E+000  0.000000000000000E+000  0.000000000000000E+000        
  0.000000000000000E+000                                                        
   1157.00000000000       3.693000000000000E-003 -7.850000000000000E-004        
  0.000000000000000E+000  0.000000000000000E+000  0.000000000000000E+000        
  0.000000000000000E+000  0.000000000000000E+000  0.000000000000000E+000        
  0.000000000000000E+000                                                        
   326.600000000000       1.536000000000000E-002 -3.324000000000000E-003        
  0.000000000000000E+000  0.000000000000000E+000  0.000000000000000E+000        
  0.000000000000000E+000  0.000000000000000E+000  0.000000000000000E+000        
  0.000000000000000E+000                                                        
   106.100000000000       5.292900000000000E-002 -1.151200000000000E-002        
  0.000000000000000E+000  0.000000000000000E+000  0.000000000000000E+000        
  0.000000000000000E+000  0.000000000000000E+000  0.000000000000000E+000        
  0.000000000000000E+000                                                        
   38.1100000000000       0.147043000000000      -3.416000000000000E-002        
  0.000000000000000E+000  0.000000000000000E+000  0.000000000000000E+000        
  0.000000000000000E+000  0.000000000000000E+000  0.000000000000000E+000        
  0.000000000000000E+000                                                        
   14.7500000000000       0.305631000000000      -7.717300000000001E-002        
  0.000000000000000E+000  0.000000000000000E+000  0.000000000000000E+000        
  0.000000000000000E+000  0.000000000000000E+000  0.000000000000000E+000        
  0.000000000000000E+000                                                        
   6.03500000000000       0.399345000000000      -0.141493000000000             
  0.000000000000000E+000  0.000000000000000E+000  0.000000000000000E+000        
  0.000000000000000E+000  0.000000000000000E+000  0.000000000000000E+000        
  0.000000000000000E+000                                                        
   2.53000000000000       0.217051000000000      -0.118019000000000             
  0.000000000000000E+000  0.000000000000000E+000  0.000000000000000E+000        
  0.000000000000000E+000  0.000000000000000E+000  0.000000000000000E+000        
  0.000000000000000E+000                                                        
  0.735500000000000       1.589400000000000E-002  0.273806000000000             
   1.00000000000000       0.000000000000000E+000  0.000000000000000E+000        
  0.000000000000000E+000  0.000000000000000E+000  0.000000000000000E+000        
  0.000000000000000E+000                                                        
  0.290500000000000      -3.084000000000000E-003  0.586510000000000             
  0.000000000000000E+000   1.00000000000000       0.000000000000000E+000        
  0.000000000000000E+000  0.000000000000000E+000  0.000000000000000E+000        
  0.000000000000000E+000                                                        
  0.111100000000000       9.779999999999999E-004  0.285430000000000             
  0.000000000000000E+000  0.000000000000000E+000   1.00000000000000             
  0.000000000000000E+000  0.000000000000000E+000  0.000000000000000E+000        
  0.000000000000000E+000                                                        
   7.21600000000000       0.000000000000000E+000  0.000000000000000E+000        
  0.000000000000000E+000  0.000000000000000E+000  0.000000000000000E+000        
   1.00000000000000       0.000000000000000E+000  0.000000000000000E+000        
  0.000000000000000E+000                                                        
   19.5700000000000       0.000000000000000E+000  0.000000000000000E+000        
  0.000000000000000E+000  0.000000000000000E+000  0.000000000000000E+000        
  0.000000000000000E+000   1.00000000000000       0.000000000000000E+000        
  0.000000000000000E+000                                                        
   53.0730000000000       0.000000000000000E+000  0.000000000000000E+000        
  0.000000000000000E+000  0.000000000000000E+000  0.000000000000000E+000        
  0.000000000000000E+000  0.000000000000000E+000   1.00000000000000             
  0.000000000000000E+000                                                        
  4.145000000000000E-002  0.000000000000000E+000  0.000000000000000E+000        
  0.000000000000000E+000  0.000000000000000E+000  0.000000000000000E+000        
  0.000000000000000E+000  0.000000000000000E+000  0.000000000000000E+000        
   1.00000000000000                                                             
   10    8                                                                      
   34.5100000000000       5.378000000000000E-003  0.000000000000000E+000        
  0.000000000000000E+000  0.000000000000000E+000  0.000000000000000E+000        
  0.000000000000000E+000  0.000000000000000E+000  0.000000000000000E+000        
   7.91500000000000       3.613200000000000E-002  0.000000000000000E+000        
  0.000000000000000E+000  0.000000000000000E+000  0.000000000000000E+000        
  0.000000000000000E+000  0.000000000000000E+000  0.000000000000000E+000        
   2.36800000000000       0.142493000000000       0.000000000000000E+000        
  0.000000000000000E+000  0.000000000000000E+000  0.000000000000000E+000        
  0.000000000000000E+000  0.000000000000000E+000  0.000000000000000E+000        
  0.813200000000000       0.342150000000000        1.00000000000000             
  0.000000000000000E+000  0.000000000000000E+000  0.000000000000000E+000        
  0.000000000000000E+000  0.000000000000000E+000  0.000000000000000E+000        
  0.289000000000000       0.463864000000000       0.000000000000000E+000        
   1.00000000000000       0.000000000000000E+000  0.000000000000000E+000        
  0.000000000000000E+000  0.000000000000000E+000  0.000000000000000E+000        
  0.100700000000000       0.250028000000000       0.000000000000000E+000        
  0.000000000000000E+000   1.00000000000000       0.000000000000000E+000        
  0.000000000000000E+000  0.000000000000000E+000  0.000000000000000E+000        
   8.18200000000000       0.000000000000000E+000  0.000000000000000E+000        
  0.000000000000000E+000  0.000000000000000E+000   1.00000000000000             
  0.000000000000000E+000  0.000000000000000E+000  0.000000000000000E+000        
   24.1860000000000       0.000000000000000E+000  0.000000000000000E+000        
  0.000000000000000E+000  0.000000000000000E+000  0.000000000000000E+000        
   1.00000000000000       0.000000000000000E+000  0.000000000000000E+000        
   71.4940000000000       0.000000000000000E+000  0.000000000000000E+000        
  0.000000000000000E+000  0.000000000000000E+000  0.000000000000000E+000        
  0.000000000000000E+000   1.00000000000000       0.000000000000000E+000        
  3.218000000000000E-002  0.000000000000000E+000  0.000000000000000E+000        
  0.000000000000000E+000  0.000000000000000E+000  0.000000000000000E+000        
  0.000000000000000E+000  0.000000000000000E+000   1.00000000000000             
    6    6                                                                      
   1.84800000000000        1.00000000000000       0.000000000000000E+000        
  0.000000000000000E+000  0.000000000000000E+000  0.000000000000000E+000        
  0.000000000000000E+000                                                        
  0.649000000000000       0.000000000000000E+000   1.00000000000000             
  0.000000000000000E+000  0.000000000000000E+000  0.000000000000000E+000        
  0.000000000000000E+000                                                        
  0.228000000000000       0.000000000000000E+000  0.000000000000000E+000        
   1.00000000000000       0.000000000000000E+000  0.000000000000000E+000        
  0.000000000000000E+000                                                        
   8.65600000000000       0.000000000000000E+000  0.000000000000000E+000        
  0.000000000000000E+000   1.00000000000000       0.000000000000000E+000        
  0.000000000000000E+000                                                        
   33.2130000000000       0.000000000000000E+000  0.000000000000000E+000        
  0.000000000000000E+000  0.000000000000000E+000   1.00000000000000             
  0.000000000000000E+000                                                        
  7.660000000000000E-002  0.000000000000000E+000  0.000000000000000E+000        
  0.000000000000000E+000  0.000000000000000E+000  0.000000000000000E+000        
   1.00000000000000                                                             
    4    4                                                                      
   1.41900000000000        1.00000000000000       0.000000000000000E+000        
  0.000000000000000E+000  0.000000000000000E+000                                
  0.485000000000000       0.000000000000000E+000   1.00000000000000             
  0.000000000000000E+000  0.000000000000000E+000                                
   24.6940000000000       0.000000000000000E+000  0.000000000000000E+000        
   1.00000000000000       0.000000000000000E+000                                
  0.187000000000000       0.000000000000000E+000  0.000000000000000E+000        
  0.000000000000000E+000   1.00000000000000                                     
    2    2                                                                      
   1.01100000000000        1.00000000000000       0.000000000000000E+000        
  0.424000000000000       0.000000000000000E+000   1.00000000000000             
          8.00000000    1    5    1    1    1    1    1                         
O #2   0.000000000000000   0.000000000000000  -1.420105344167200                
   16    9                                                                      
   61420.0000000000       9.000000000000001E-005 -2.000000000000000E-005        
  0.000000000000000E+000  0.000000000000000E+000  0.000000000000000E+000        
  0.000000000000000E+000  0.000000000000000E+000  0.000000000000000E+000        
  0.000000000000000E+000                                                        
   9199.00000000000       6.980000000000001E-004 -1.590000000000000E-004        
  0.000000000000000E+000  0.000000000000000E+000  0.000000000000000E+000        
  0.000000000000000E+000  0.000000000000000E+000  0.000000000000000E+000        
  0.000000000000000E+000                                                        
   2091.00000000000       3.664000000000000E-003 -8.290000000000000E-004        
  0.000000000000000E+000  0.000000000000000E+000  0.000000000000000E+000        
  0.000000000000000E+000  0.000000000000000E+000  0.000000000000000E+000        
  0.000000000000000E+000                                                        
   590.900000000000       1.521800000000000E-002 -3.508000000000000E-003        
  0.000000000000000E+000  0.000000000000000E+000  0.000000000000000E+000        
  0.000000000000000E+000  0.000000000000000E+000  0.000000000000000E+000        
  0.000000000000000E+000                                                        
   192.300000000000       5.242300000000000E-002 -1.215600000000000E-002        
  0.000000000000000E+000  0.000000000000000E+000  0.000000000000000E+000        
  0.000000000000000E+000  0.000000000000000E+000  0.000000000000000E+000        
  0.000000000000000E+000                                                        
   69.3200000000000       0.145921000000000      -3.626100000000000E-002        
  0.000000000000000E+000  0.000000000000000E+000  0.000000000000000E+000        
  0.000000000000000E+000  0.000000000000000E+000  0.000000000000000E+000        
  0.000000000000000E+000                                                        
   26.9700000000000       0.305258000000000      -8.299200000000000E-002        
  0.000000000000000E+000  0.000000000000000E+000  0.000000000000000E+000        
  0.000000000000000E+000  0.000000000000000E+000  0.000000000000000E+000        
  0.000000000000000E+000                                                        
   11.1000000000000       0.398508000000000      -0.152090000000000             
  0.000000000000000E+000  0.000000000000000E+000  0.000000000000000E+000        
  0.000000000000000E+000  0.000000000000000E+000  0.000000000000000E+000        
  0.000000000000000E+000                                                        
   4.68200000000000       0.216980000000000      -0.115331000000000             
  0.000000000000000E+000  0.000000000000000E+000  0.000000000000000E+000        
  0.000000000000000E+000  0.000000000000000E+000  0.000000000000000E+000        
  0.000000000000000E+000                                                        
   1.42800000000000       1.759400000000000E-002  0.288979000000000             
   1.00000000000000       0.000000000000000E+000  0.000000000000000E+000        
  0.000000000000000E+000  0.000000000000000E+000  0.000000000000000E+000        
  0.000000000000000E+000                                                        
  0.554700000000000      -2.502000000000000E-003  0.586128000000000             
  0.000000000000000E+000   1.00000000000000       0.000000000000000E+000        
  0.000000000000000E+000  0.000000000000000E+000  0.000000000000000E+000        
  0.000000000000000E+000                                                        
  0.206700000000000       9.540000000000000E-004  0.277624000000000             
  0.000000000000000E+000  0.000000000000000E+000   1.00000000000000             
  0.000000000000000E+000  0.000000000000000E+000  0.000000000000000E+000        
  0.000000000000000E+000                                                        
   12.9740000000000       0.000000000000000E+000  0.000000000000000E+000        
  0.000000000000000E+000  0.000000000000000E+000  0.000000000000000E+000        
   1.00000000000000       0.000000000000000E+000  0.000000000000000E+000        
  0.000000000000000E+000                                                        
   34.9000000000000       0.000000000000000E+000  0.000000000000000E+000        
  0.000000000000000E+000  0.000000000000000E+000  0.000000000000000E+000        
  0.000000000000000E+000   1.00000000000000       0.000000000000000E+000        
  0.000000000000000E+000                                                        
   93.8810000000000       0.000000000000000E+000  0.000000000000000E+000        
  0.000000000000000E+000  0.000000000000000E+000  0.000000000000000E+000        
  0.000000000000000E+000  0.000000000000000E+000   1.00000000000000             
  0.000000000000000E+000                                                        
  6.959000000000000E-002  0.000000000000000E+000  0.000000000000000E+000        
  0.000000000000000E+000  0.000000000000000E+000  0.000000000000000E+000        
  0.000000000000000E+000  0.000000000000000E+000  0.000000000000000E+000        
   1.00000000000000                                                             
   10    8                                                                      
   63.4200000000000       6.044000000000000E-003  0.000000000000000E+000        
  0.000000000000000E+000  0.000000000000000E+000  0.000000000000000E+000        
  0.000000000000000E+000  0.000000000000000E+000  0.000000000000000E+000        
   14.6600000000000       4.179900000000000E-002  0.000000000000000E+000        
  0.000000000000000E+000  0.000000000000000E+000  0.000000000000000E+000        
  0.000000000000000E+000  0.000000000000000E+000  0.000000000000000E+000        
   4.45900000000000       0.161143000000000       0.000000000000000E+000        
  0.000000000000000E+000  0.000000000000000E+000  0.000000000000000E+000        
  0.000000000000000E+000  0.000000000000000E+000  0.000000000000000E+000        
   1.53100000000000       0.356731000000000        1.00000000000000             
  0.000000000000000E+000  0.000000000000000E+000  0.000000000000000E+000        
  0.000000000000000E+000  0.000000000000000E+000  0.000000000000000E+000        
  0.530200000000000       0.448309000000000       0.000000000000000E+000        
   1.00000000000000       0.000000000000000E+000  0.000000000000000E+000        
  0.000000000000000E+000  0.000000000000000E+000  0.000000000000000E+000        
  0.175000000000000       0.244940000000000       0.000000000000000E+000        
  0.000000000000000E+000   1.00000000000000       0.000000000000000E+000        
  0.000000000000000E+000  0.000000000000000E+000  0.000000000000000E+000        
   14.4750000000000       0.000000000000000E+000  0.000000000000000E+000        
  0.000000000000000E+000  0.000000000000000E+000   1.00000000000000             
  0.000000000000000E+000  0.000000000000000E+000  0.000000000000000E+000        
   42.7300000000000       0.000000000000000E+000  0.000000000000000E+000        
  0.000000000000000E+000  0.000000000000000E+000  0.000000000000000E+000        
   1.00000000000000       0.000000000000000E+000  0.000000000000000E+000        
   126.140000000000       0.000000000000000E+000  0.000000000000000E+000        
  0.000000000000000E+000  0.000000000000000E+000  0.000000000000000E+000        
  0.000000000000000E+000   1.00000000000000       0.000000000000000E+000        
  5.348000000000000E-002  0.000000000000000E+000  0.000000000000000E+000        
  0.000000000000000E+000  0.000000000000000E+000  0.000000000000000E+000        
  0.000000000000000E+000  0.000000000000000E+000   1.00000000000000             
    6    6                                                                      
   3.77500000000000        1.00000000000000       0.000000000000000E+000        
  0.000000000000000E+000  0.000000000000000E+000  0.000000000000000E+000        
  0.000000000000000E+000                                                        
   1.30000000000000       0.000000000000000E+000   1.00000000000000             
  0.000000000000000E+000  0.000000000000000E+000  0.000000000000000E+000        
  0.000000000000000E+000                                                        
  0.444000000000000       0.000000000000000E+000  0.000000000000000E+000        
   1.00000000000000       0.000000000000000E+000  0.000000000000000E+000        
  0.000000000000000E+000                                                        
   14.9270000000000       0.000000000000000E+000  0.000000000000000E+000        
  0.000000000000000E+000   1.00000000000000       0.000000000000000E+000        
  0.000000000000000E+000                                                        
   57.5440000000000       0.000000000000000E+000  0.000000000000000E+000        
  0.000000000000000E+000  0.000000000000000E+000   1.00000000000000             
  0.000000000000000E+000                                                        
  0.154000000000000       0.000000000000000E+000  0.000000000000000E+000        
  0.000000000000000E+000  0.000000000000000E+000  0.000000000000000E+000        
   1.00000000000000                                                             
    4    4                                                                      
   2.66600000000000        1.00000000000000       0.000000000000000E+000        
  0.000000000000000E+000  0.000000000000000E+000                                
  0.859000000000000       0.000000000000000E+000   1.00000000000000             
  0.000000000000000E+000  0.000000000000000E+000                                
   26.4830000000000       0.000000000000000E+000  0.000000000000000E+000        
   1.00000000000000       0.000000000000000E+000                                
  0.324000000000000       0.000000000000000E+000  0.000000000000000E+000        
  0.000000000000000E+000   1.00000000000000                                     
    2    2                                                                      
   1.84600000000000        1.00000000000000       0.000000000000000E+000        
  0.714000000000000       0.000000000000000E+000   1.00000000000000             
FINISH                                                                          
 
********************************************************************************
 ONE- AND TWO-ELECTRON INTEGRALS OVER SYMMETRY-ADAPTED AOS ARE CALCULATED.

  SPHERICAL HARMONICS ARE USED.
  
  INTEGRALS LESS THAN  0.10E-13 ARE NEGLECTED.

  NUCLEAR REPULSION ENERGY :   15.1566774321 A.U.
  @MOLECU-I, ONE ELECTRON INTEGRALS (CPU/WALL):        0.08/       0.10 SECONDS.
  @TWOEL-I,    4401744 INTEGRALS OF SYMMETRY TYPE  I I I I
  @TWOEL-I,   18996151 INTEGRALS OF SYMMETRY TYPE  I J I J
  @TWOEL-I,   10001999 INTEGRALS OF SYMMETRY TYPE  I I J J
  @TWOEL-I,   14031641 INTEGRALS OF SYMMETRY TYPE  I J K L
  @TWOEL-I, TOTAL NUMBER OF 2-E INTEGRALS   47431535.
  @MOLECU-I, TWO ELECTRON INTEGRALS (CPU/WALL):      264.77/      35.62 SECONDS.
 @CHECKOUT-I, Total execution time (CPU/WALL):      264.87/      35.75 seconds.

Running with 14 threads/proc

--executable xvmol finished with status     0 in       35.88 seconds (walltime).
 --invoking executable--
/nfs/workspaces/public/cfour_mpi/bin/xvmol2ja
 @GETMEM-I,  Allocated    3814 MB of main memory.
 @CHECKOUT-I, Total execution time (CPU/WALL):        0.39/       0.08 seconds.
--executable xvmol2ja finished with status     0 in        0.16 seconds (walltime).
 --invoking executable--
/nfs/workspaces/public/cfour_mpi/bin/xvprop
 @GETMEM-I,  Allocated    3814 MB of main memory.
   Property integrals will be calculated.
    --------------------------------------------------------------
                                   Property evaluated at 
    Property type                X             Y             Z
    --------------------------------------------------------------
    Dipole moment               ----          ----          ----  
    Quadrupole moment           ----          ----          ----  
    Octopole moment             ----          ----          ----  
    Relativisitic corr.         ----          ----          ----  
    Second moment            0.0000000     0.0000000     0.0000000
    Electron density         0.0000000     0.0000000     1.7468157
    Electron density         0.0000000     0.0000000    -1.4201053
    Field gradient           0.0000000     0.0000000     1.7468157
    Field gradient           0.0000000     0.0000000    -1.4201053
    Potential                0.0000000     0.0000000     1.7468157
    Potential                0.0000000     0.0000000    -1.4201053
    --------------------------------------------------------------
 @CHECKOUT-I, Total execution time (CPU/WALL):        1.85/       1.92 seconds.
--executable xvprop finished with status     0 in        2.00 seconds (walltime).
 --invoking executable--
/nfs/workspaces/public/cfour_mpi/bin/xvscf
  There are  218 functions in the AO basis.

  There are 4 irreducible representations.

       Irrep        # of functions
         1                 86
         2                 52
         3                 52
         4                 28


  Parameters for SCF calculation: 
        SCF reference function:  RHF  
  Maximum number of iterations:  150
     Full symmetry point group: CXv 
     Computational point group: C2v 
        Initial density matrix: MOREAD                 
     SCF convergence tolerance: 10**(-10)
  DIIS convergence acceleration:  ON
          Latest start for DIIS:   8
                     DIIS order:   6

  Memory information:    2523578 words required.
  Fock matrices are constructed from AO integral file.
 @GETMEM-I,  Allocated      19 MB of main memory.
  Initialization and symmetry analysis required      0.002 seconds.

  Adding electric field perturbation to one-electron Hamiltonian.
  Field direction     : Z
  Field strength      :  0.0002000 a.u.

  @INITGES-I, Occupancies from core Hamiltonian:

          Alpha population by irrep:   5    1    1    0
           Beta population by irrep:   5    1    1    0


 total no. of electrons in initial guess :  0.000000000000000E+000
  --------------------------------------------------------------------
  Iteration         Total Energy            Largest Density Difference
  --------------------------------------------------------------------
       0            15.156853421865939              0.0000000000D+00
   current occupation vector 
     5  1  1  0
     5  1  1  0
       1           -93.681849450246887              0.1755908839D+02
   current occupation vector 
     5  1  1  0
     5  1  1  0
       2           -97.807201667395873              0.1755907825D+02
   current occupation vector 
     5  1  1  0
     5  1  1  0
       3          -100.045626743380694              0.6885230755D+01
   current occupation vector 
     5  1  1  0
     5  1  1  0
       4           -94.705803359105545              0.6882672083D+01
   current occupation vector 
     5  1  1  0
     5  1  1  0
       5          -100.030220373390989              0.7033968715D+01
   current occupation vector 
     5  1  1  0
     5  1  1  0
       6           -94.577448356288812              0.7034148663D+01
   current occupation vector 
     5  1  1  0
     5  1  1  0
       7          -100.025461736414854              0.7041386441D+01
   current occupation vector 
     5  1  1  0
     5  1  1  0
       8           -94.573979025769603              0.7041395610D+01
   current occupation vector 
     5  1  1  0
     5  1  1  0
       9          -107.271353916220761              0.5999052443D+01
   current occupation vector 
     5  1  1  0
     5  1  1  0
      10          -110.606949713878407              0.1315282410D+01
   current occupation vector 
     5  1  1  0
     5  1  1  0
      11          -112.330739073414350              0.1022147169D+01
   current occupation vector 
     5  1  1  0
     5  1  1  0
      12          -112.451037083365406              0.5403700363D+00
   current occupation vector 
     5  1  1  0
     5  1  1  0
      13          -112.480811788618581              0.1321176378D+00
   current occupation vector 
     5  1  1  0
     5  1  1  0
      14          -112.489532720125482              0.9857198369D-01
   current occupation vector 
     5  1  1  0
     5  1  1  0
      15          -112.490267154284794              0.3313870958D-01
   current occupation vector 
     5  1  1  0
     5  1  1  0
      16          -112.491008595857636              0.5333202224D-01
   current occupation vector 
     5  1  1  0
     5  1  1  0
      17          -112.491362327862134              0.4274005753D-01
   current occupation vector 
     5  1  1  0
     5  1  1  0
      18          -112.491441028274465              0.2679206065D-01
   current occupation vector 
     5  1  1  0
     5  1  1  0
      19          -112.491441776537783              0.2146676223D-02
   current occupation vector 
     5  1  1  0
     5  1  1  0
      20          -112.491441787031050              0.2714195841D-03
   current occupation vector 
     5  1  1  0
     5  1  1  0
      21          -112.491441787353466              0.2342607197D-04
   current occupation vector 
     5  1  1  0
     5  1  1  0
      22          -112.491441787377511              0.1846452431D-04
   current occupation vector 
     5  1  1  0
     5  1  1  0
      23          -112.491441787376374              0.8309148190D-06
   current occupation vector 
     5  1  1  0
     5  1  1  0
      24          -112.491441787376488              0.1739252470D-06
   current occupation vector 
     5  1  1  0
     5  1  1  0
      25          -112.491441787376999              0.5334527775D-07
   current occupation vector 
     5  1  1  0
     5  1  1  0
      26          -112.491441787376289              0.8161224585D-08
   current occupation vector 
     5  1  1  0
     5  1  1  0
      27          -112.491441787376516              0.4951887123D-08
   current occupation vector 
     5  1  1  0
     5  1  1  0
      28          -112.491441787376004              0.2361139950D-08
   current occupation vector 
     5  1  1  0
     5  1  1  0
      29          -112.491441787376260              0.1183612097D-08
   current occupation vector 
     5  1  1  0
     5  1  1  0
      30          -112.491441787377113              0.5509925849D-09
   current occupation vector 
     5  1  1  0
     5  1  1  0
      31          -112.491441787376942              0.3212807798D-09
   current occupation vector 
     5  1  1  0
     5  1  1  0
      32          -112.491441787376885              0.3199650767D-08
   current occupation vector 
     5  1  1  0
     5  1  1  0
      33          -112.491441787376374              0.3029803519D-08
   current occupation vector 
     5  1  1  0
     5  1  1  0
      34          -112.491441787376516              0.1624083090D-09
   current occupation vector 
     5  1  1  0
     5  1  1  0
      35          -112.491441787377369              0.1171336361D-09
   current occupation vector 
     5  1  1  0
     5  1  1  0
      36          -112.491441787376772              0.1099481617D-09
   current occupation vector 
     5  1  1  0
     5  1  1  0

  SCF has converged.

 Density matrix saved to file den.dat
 total electron number:   14.0000000000001     
     E(SCF)=      -112.491441787376488              0.2574629399D-10

  Eigenvector printing suppressed.

 @PUTMOS-I, Writing converged MOs to NEWMOS. 
 @PUTMOS-I, Symmetry   1 Full Blocks 21 Partial Blocksize   2
 @PUTMOS-I, Symmetry   2 Full Blocks 13 Partial Blocksize   0
 @PUTMOS-I, Symmetry   3 Full Blocks 13 Partial Blocksize   0
 @PUTMOS-I, Symmetry   4 Full Blocks  7 Partial Blocksize   0
 @PUTFOCK-I, Writing converged Fock matrix to NEWFOCK. 
 @PUTFOCK-I, Symmetry   1 Full Blocks 21 Partial Blocksize   2
 @PUTFOCK-I, Symmetry   2 Full Blocks 13 Partial Blocksize   0
 @PUTFOCK-I, Symmetry   3 Full Blocks 13 Partial Blocksize   0
 @PUTFOCK-I, Symmetry   4 Full Blocks  7 Partial Blocksize   0


 
  ORBITAL EIGENVALUES (ALPHA)  (1H = 27.2113834 eV)

       MO #        E(hartree)               E(eV)           FULLSYM    COMPSYM
       ----   --------------------   --------------------   -------   ---------
    1     1         -20.6363949217        -561.5448542088     SG+        A1 (1)
    2     2         -11.5334056344        -313.8399226263     SG+        A1 (1)
    3     3          -1.2520989740         -34.0713452366     SG+        A1 (1)
    4     4          -0.8104057675         -22.0522620481     SG+        A1 (1)
    5     5          -0.5126772454         -13.9506570854     SG+        A1 (1)
    6    87          -0.4857486391         -13.2178924551      PI        B1 (2)
    7   139          -0.4857486391         -13.2178924551      PI        B2 (3)
  +++++++++++++++++++++++++++++++++++++++++++++++++++++++++++++++++++++++++++++
    8    88          -0.0182884472          -0.4976539488      PI        B1 (2)
    9   140          -0.0182884472          -0.4976539488      PI        B2 (3)
   10     6           0.0589399809           1.6038384176     SG+        A1 (1)
   11     7           0.0686620900           1.8683904569     SG+        A1 (1)
   12   141           0.0813416619           2.2134191493      PI        B2 (3)
   13    89           0.0813416619           2.2134191493      PI        B1 (2)
   14     8           0.1559153390           4.2426720661     SG+        A1 (1)
   15     9           0.1783436543           4.8529775535     SG+        A1 (1)
   16   142           0.1817049967           4.9444443313      PI        B2 (3)
   17    90           0.1817049967           4.9444443313      PI        B1 (2)
   18   191           0.2207850536           6.0078667413      DE        A2 (4)
   19    10           0.2207850536           6.0078667413      DE        A1 (1)
   20    91           0.2820462692           7.6748691673      PI        B1 (2)
   21   143           0.2820462692           7.6748691673      PI        B2 (3)
   22    11           0.2949935898           8.0271836726     SG+        A1 (1)
   23    12           0.3039413508           8.2706646273     SG+        A1 (1)
   24    92           0.4077933355          11.0966208016      PI        B1 (2)
   25   144           0.4077933355          11.0966208016      PI        B2 (3)
   26    13           0.4123440258          11.2204513801     SG+        A1 (1)
   27    14           0.5146709592          14.0049087947     SG+        A1 (1)
   28   192           0.5504981417          14.9798159945      DE        A2 (4)
   29    15           0.5504981417          14.9798159945      DE        A1 (1)
   30   145           0.6231121661          16.9557440535      PI        B2 (3)
   31    93           0.6231121661          16.9557440535      PI        B1 (2)
   32    16           0.6996670303          19.0389078130     SG+        A1 (1)
   33    94           0.7278277009          19.8051986177      PH        B1 (2)
   34   146           0.7278277009          19.8051986177      PH        B2 (3)
   35   193           0.7339956874          19.9730380642      DE        A2 (4)
   36    17           0.7339956874          19.9730380642      DE        A1 (1)
   37    95           0.7710107098          20.9802680288      PI        B1 (2)
   38   147           0.7710107098          20.9802680288      PI        B2 (3)
   39    18           0.8121800397          22.1005424492     SG+        A1 (1)
   40   194           0.8523320293          23.1931336325      DE        A2 (4)
   41    19           0.8523320293          23.1931336325      DE        A1 (1)
   42   148           0.8723169001          23.7369496148      PI        B2 (3)
   43    96           0.8723169001          23.7369496148      PI        B1 (2)
   44    20           0.8974911937          24.4219769700     SG+        A1 (1)
   45    97           1.0494955671          28.5582262543      PI        B1 (2)
   46   149           1.0494955671          28.5582262543      PI        B2 (3)
   47    21           1.1429559361          31.1014121863     SG+        A1 (1)
   48    22           1.3395017994          36.4496970294     SG+        A1 (1)
   49   150           1.4191239684          38.6163263963      PH        B2 (3)
   50    98           1.4191239684          38.6163263963      PH        B1 (2)
   51    99           1.4650165121          39.8651259989      PI        B1 (2)
   52   151           1.4650165121          39.8651259989      PI        B2 (3)
   53    23           1.5796787187          42.9852432644     SG+        A1 (1)
   54   195           1.5880050421          43.2118140428      DE        A2 (4)
   55    24           1.5880050421          43.2118140428      DE        A1 (1)
   56   100           1.6403234783          44.6354710674      PI        B1 (2)
   57   152           1.6403234783          44.6354710674      PI        B2 (3)
   58   196           1.6641163057          45.2829068166      DE        A2 (4)
   59    25           1.6641163057          45.2829068167      DE        A1 (1)
   60    26           1.9039432759          51.8089304527     SG+        A1 (1)
   61    27           1.9219175823          52.2980361954     SG+        A1 (1)
   62   101           2.0412187572          55.5443862057      PI        B1 (2)
   63   153           2.0412187572          55.5443862057      PI        B2 (3)
   64   197           2.0605036786          56.0691555948      PI        A2 (4)
   65    28           2.0605036786          56.0691555948      PI        A1 (1)
   66   198           2.1174672841          57.6192141044      DE        A2 (4)
   67    29           2.1174672841          57.6192141044      DE        A1 (1)
   68   154           2.1803749163          59.3310178020      PH        B2 (3)
   69   102           2.1803749163          59.3310178020      PH        B1 (2)
   70   155           2.2005440292          59.8798472678      PH        B2 (3)
   71   103           2.2005440292          59.8798472678      PH        B1 (2)
   72   104           2.2080571115          60.0842886310      PI        B1 (2)
   73   156           2.2080571115          60.0842886310      PI        B2 (3)
   74    30           2.2164333084          60.3122165357     SG+        A1 (1)
   75    31           2.2726532059          61.8420377205      DE        A1 (1)
   76   199           2.2726532059          61.8420377205      DE        A2 (4)
   77    32           2.3674278235          64.4209861782     SG+        A1 (1)
   78   105           2.4826396656          67.5560597855      PI        B1 (2)
   79   157           2.4826396656          67.5560597855      PI        B2 (3)
   80    33           2.5831556729          70.2912393961      DE        A1 (1)
   81   200           2.5831556729          70.2912393961      DE        A2 (4)
   82   106           2.6192352156          71.2730136656      PI        B1 (2)
   83   158           2.6192352156          71.2730136656      PI        B2 (3)
   84    34           2.6584897415          72.3411836206     SG+        A1 (1)
   85    35           2.8251620503          76.8765677177     SG+        A1 (1)
   86   107           3.3046042018          89.9228519191      PI        B1 (2)
   87   159           3.3046042018          89.9228519191      PI        B2 (3)
   88    36           3.7166506431         101.1352056135      PI        A1 (1)
   89   201           3.7166506431         101.1352056135      PI        A2 (4)
   90    37           3.8430900391         104.5757964951     SG+        A1 (1)
   91   108           3.8784817490         105.5388538813      PH        B1 (2)
   92   160           3.8784817490         105.5388538813      PH        B2 (3)
   93    38           4.0705216392         110.7645249611     SG+        A1 (1)
   94   161           4.1470814735         112.8478239654      PH        B2 (3)
   95   109           4.1470814735         112.8478239654      PH        B1 (2)
   96   110           4.1475837838         112.8614925234      PI        B1 (2)
   97   162           4.1475837838         112.8614925234      PI        B2 (3)
   98    39           4.1507290772         112.9470803090      DE        A1 (1)
   99   202           4.1507290772         112.9470803090      DE        A2 (4)
  100   203           4.3067124169         117.1916027710      DE        A2 (4)
  101    40           4.3067124169         117.1916027710      DE        A1 (1)
  102    41           4.3407681698         118.1183069196     SG+        A1 (1)
  103   111           4.4859007736         122.0675658452      PI        B1 (2)
  104   163           4.4859007736         122.0675658452      PI        B2 (3)
  105    42           4.6020391738         125.2278523795      DE        A1 (1)
  106   204           4.6020391738         125.2278523796      DE        A2 (4)
  107    43           4.8649520215         132.3820746794     SG+        A1 (1)
  108   112           5.0637505980         137.7916589631      PI        B1 (2)
  109   164           5.0637505980         137.7916589631      PI        B2 (3)
  110    44           5.0938516910         138.6107513472     SG+        A1 (1)
  111   165           5.3551828073         145.7219325475      PI        B2 (3)
  112   113           5.3551828073         145.7219325476      PI        B1 (2)
  113   205           5.8136633711         158.1978229507      PI        A2 (4)
  114    45           5.8136633711         158.1978229507      PI        A1 (1)
  115   166           5.8841939025         160.1170562813      PH        B2 (3)
  116   114           5.8841939025         160.1170562813      PH        B1 (2)
  117    46           5.9759912590         162.6149893427     SG+        A1 (1)
  118    47           6.0526394982         164.7006939672      DE        A1 (1)
  119   206           6.0526394982         164.7006939672      DE        A2 (4)
  120   115           6.1055508811         166.1404858946      PI        B1 (2)
  121   167           6.1055508811         166.1404858946      PI        B2 (3)
  122    48           6.1515518158         167.3922349635     SG+        A1 (1)
  123   207           6.2582656897         170.2960671001      DE        A2 (4)
  124    49           6.2582656897         170.2960671001      DE        A1 (1)
  125   116           6.3381043648         172.4685879009      PH        B1 (2)
  126   168           6.3381043648         172.4685879009      PH        B2 (3)
  127    50           6.4691596022         176.0347822108      DE        A1 (1)
  128   208           6.4691596022         176.0347822108      DE        A2 (4)
  129   169           6.7175390674         182.7935310667      PI        B2 (3)
  130   117           6.7175390674         182.7935310667      PI        B1 (2)
  131   118           7.0611289340         192.1430866589      PI        B1 (2)
  132   170           7.0611289340         192.1430866589      PI        B2 (3)
  133    51           7.0630990401         192.1966959714     SG+        A1 (1)
  134    52           7.5428316367         205.2508835873     SG+        A1 (1)
  135    53           9.3882522678         255.4673319142     SG+        A1 (1)
  136   119           9.6328623835         262.1235115557      PI        B1 (2)
  137   171           9.6328623835         262.1235115559      PI        B2 (3)
  138    54          10.6689825669         290.3177751156     SG+        A1 (1)
  139   209          10.6718966438         290.3970711808      PI        A2 (4)
  140    55          10.6718966438         290.3970711808      PI        A1 (1)
  141   172          10.7283108845         291.9321807116      PH        B2 (3)
  142   120          10.7283108845         291.9321807116      PH        B1 (2)
  143    56          10.9350577656         297.5580493608      DE        A1 (1)
  144   210          10.9350577656         297.5580493608      DE        A2 (4)
  145   121          10.9892433580         299.0325142892      PI        B1 (2)
  146   173          10.9892433580         299.0325142892      PI        B2 (3)
  147    57          11.1306324137         302.8799060932     SG+        A1 (1)
  148   174          11.9073316827         324.0149676878      PH        B2 (3)
  149   122          11.9073316827         324.0149676878      PH        B1 (2)
  150   211          11.9775271092         325.9250823514      DE        A2 (4)
  151    58          11.9775271092         325.9250823515      DE        A1 (1)
  152   123          12.2326127900         332.8663166125      PI        B1 (2)
  153   175          12.2326127900         332.8663166125      PI        B2 (3)
  154    59          12.5044977066         340.2646813188     SG+        A1 (1)
  155    60          12.7238927963         346.2347252210      DE        A1 (1)
  156   212          12.7238927963         346.2347252210      DE        A2 (4)
  157   124          13.1033569400         356.5604695203      PI        B1 (2)
  158   176          13.1033569400         356.5604695203      PI        B2 (3)
  159    61          13.3613767697         363.5815460316     SG+        A1 (1)
  160    62          17.2377146932         469.0620634561     SG+        A1 (1)
  161   125          18.6748022935         508.1672051269      PI        B1 (2)
  162   177          18.6748022935         508.1672051270      PI        B2 (3)
  163    63          19.4512590265         529.2956669838     SG+        A1 (1)
  164   213          26.2372191887         713.9510306927      DE        A2 (4)
  165    64          26.2372191887         713.9510306927      DE        A1 (1)
  166   126          26.4743150976         720.4027383743      PI        B1 (2)
  167   178          26.4743150976         720.4027383743      PI        B2 (3)
  168    65          26.9050754014         732.1243221525     SG+        A1 (1)
  169   127          33.3577226287         907.7097797992      PI        B1 (2)
  170   179          33.3577226287         907.7097797999      PI        B2 (3)
  171    66          34.2205040571         931.1872560383     SG+        A1 (1)
  172    67          35.5087552468         966.2423530767     SG+        A1 (1)
  173   214          47.0787224486        1281.0771665298      DE        A2 (4)
  174    68          47.0787224486        1281.0771665299      DE        A1 (1)
  175   180          47.2635271154        1286.1059571726      PI        B2 (3)
  176   128          47.2635271154        1286.1059571726      PI        B1 (2)
  177    69          47.4179267761        1290.3073855363     SG+        A1 (1)
  178    70          63.6747479878        1732.6779803943     SG+        A1 (1)
  179   129          66.2675508893        1803.2317342287      PI        B1 (2)
  180   181          66.2675508893        1803.2317342287      PI        B2 (3)
  181    71          66.8467080147        1818.9914008161     SG+        A1 (1)
  182   182          98.4943894931        2680.1685952449      PH        B2 (3)
  183   130          98.4943894931        2680.1685952449      PH        B1 (2)
  184    72          98.5089599821        2680.5650784092      DE        A1 (1)
  185   215          98.5089599821        2680.5650784092      DE        A2 (4)
  186   183          98.5223751091        2680.9301225711      PI        B2 (3)
  187   131          98.5223751091        2680.9301225711      PI        B1 (2)
  188    73          98.5299625191        2681.1365864936     SG+        A1 (1)
  189    74         103.3183784199        2811.4360074504      DE        A1 (1)
  190   216         103.3183784200        2811.4360074517      DE        A2 (4)
  191   184         103.3255130939        2811.6301518004      PH        B2 (3)
  192   132         103.3255130939        2811.6301518004      PH        B1 (2)
  193   133         103.3327468288        2811.8269917325      PI        B1 (2)
  194   185         103.3327468288        2811.8269917325      PI        B2 (3)
  195    75         103.3439891492        2812.1329108255     SG+        A1 (1)
  196   217         114.9440421447        3127.7864003459      DE        A2 (4)
  197    76         114.9440421447        3127.7864003459      DE        A1 (1)
  198   134         115.0599629852        3130.9407667796      PI        B1 (2)
  199   186         115.0599629852        3130.9407667797      PI        B2 (3)
  200    77         115.2439065148        3135.9461246884     SG+        A1 (1)
  201   135         116.6744678382        3174.8736773357      PI        B1 (2)
  202   187         116.6744678382        3174.8736773364      PI        B2 (3)
  203    78         117.3907059273        3194.3635065853     SG+        A1 (1)
  204    79         121.7839441968        3313.9095975022     SG+        A1 (1)
  205   218         198.5628335174        5403.1693918333      DE        A2 (4)
  206    80         198.5628335174        5403.1693918334      DE        A1 (1)
  207   188         198.6634895331        5405.9083812673      PI        B2 (3)
  208   136         198.6634895331        5405.9083812673      PI        B1 (2)
  209    81         198.7440961311        5408.1017983103     SG+        A1 (1)
  210    82         216.2041241707        5883.2133154706     SG+        A1 (1)
  211   137         224.7549934584        6115.8942980605      PI        B1 (2)
  212   189         224.7549934584        6115.8942980605      PI        B2 (3)
  213    83         225.2128931097        6128.3543810324     SG+        A1 (1)
  214   138         395.2211883845       10754.5152849340      PI        B1 (2)
  215   190         395.2211883845       10754.5152849347      PI        B2 (3)
  216    84         395.7682654660       10769.4020091489     SG+        A1 (1)
  217    85         508.5355850480       13837.9567772858     SG+        A1 (1)
  218    86         895.0151848217       24354.6013430047     SG+        A1 (1)


  VSCF finished.

 @CHECKOUT-I, Total execution time (CPU/WALL):       65.50/      16.97 seconds.
--executable xvscf finished with status     0 in       17.08 seconds (walltime).
 --invoking executable--
/nfs/workspaces/public/cfour_mpi/bin/xvtran
 @GETMEM-I,  Allocated    3814 MB of main memory.
  Full RHF integral transformation
  Transformation of IIII integrals :
  1 pass through the AO integral file was required.
     4401744 AO integrals were read.
     8586875 MO integrals were written to HF2.
  Transformation of IIJJ integrals :
  1 pass through the AO integral file was required.
    10001999 AO integrals were read.
    14370691 MO integrals were written to HF2.
  Transformation of IJIJ integrals :
  1 pass through the AO integral file was required.
    18996151 AO integrals were read.
    26798222 MO integrals were written to HF2.
  Transformation of IJKL integrals :
  1 pass through the AO integral file was required.
    14031641 AO integrals were read.
    18118380 MO integrals were written to HF2.
  Summary of active molecular orbitals: 
------------------------------------------------------------------------
 
  Index      Eigenvalue    Symmetry    Index      Eigenvalue    Symmetry
------------------------------------------------------------------------
     1       -20.6363949        1       110         4.1470815        2
     2       -11.5334056        1       111         4.1475838        2
     3        -1.2520990        1       112         4.4859008        2
     4        -0.8104058        1       113         5.0637506        2
     5        -0.5126772        1       114         5.3551828        2
     6        -0.4857486        2       115         5.8841939        2
     7        -0.4857486        3       116         6.1055509        2
     8         0.0589400        1       117         6.3381044        2
     9         0.0686621        1       118         6.7175391        2
    10         0.1559153        1       119         7.0611289        2
    11         0.1783437        1       120         9.6328624        2
    12         0.2207851        1       121        10.7283109        2
    13         0.2949936        1       122        10.9892434        2
    14         0.3039414        1       123        11.9073317        2
    15         0.4123440        1       124        12.2326128        2
    16         0.5146710        1       125        13.1033569        2
    17         0.5504981        1       126        18.6748023        2
    18         0.6996670        1       127        26.4743151        2
    19         0.7339957        1       128        33.3577226        2
    20         0.8121800        1       129        47.2635271        2
    21         0.8523320        1       130        66.2675509        2
    22         0.8974912        1       131        98.4943895        2
    23         1.1429559        1       132        98.5223751        2
    24         1.3395018        1       133       103.3255131        2
    25         1.5796787        1       134       103.3327468        2
    26         1.5880050        1       135       115.0599630        2
    27         1.6641163        1       136       116.6744678        2
    28         1.9039433        1       137       198.6634895        2
    29         1.9219176        1       138       224.7549935        2
    30         2.0605037        1       139       395.2211884        2
    31         2.1174673        1       140        -0.0182884        3
    32         2.2164333        1       141         0.0813417        3
    33         2.2726532        1       142         0.1817050        3
    34         2.3674278        1       143         0.2820463        3
    35         2.5831557        1       144         0.4077933        3
    36         2.6584897        1       145         0.6231122        3
    37         2.8251621        1       146         0.7278277        3
    38         3.7166506        1       147         0.7710107        3
    39         3.8430900        1       148         0.8723169        3
    40         4.0705216        1       149         1.0494956        3
    41         4.1507291        1       150         1.4191240        3
    42         4.3067124        1       151         1.4650165        3
    43         4.3407682        1       152         1.6403235        3
    44         4.6020392        1       153         2.0412188        3
    45         4.8649520        1       154         2.1803749        3
    46         5.0938517        1       155         2.2005440        3
    47         5.8136634        1       156         2.2080571        3
    48         5.9759913        1       157         2.4826397        3
    49         6.0526395        1       158         2.6192352        3
    50         6.1515518        1       159         3.3046042        3
    51         6.2582657        1       160         3.8784817        3
    52         6.4691596        1       161         4.1470815        3
    53         7.0630990        1       162         4.1475838        3
    54         7.5428316        1       163         4.4859008        3
    55         9.3882523        1       164         5.0637506        3
    56        10.6689826        1       165         5.3551828        3
    57        10.6718966        1       166         5.8841939        3
    58        10.9350578        1       167         6.1055509        3
    59        11.1306324        1       168         6.3381044        3
    60        11.9775271        1       169         6.7175391        3
    61        12.5044977        1       170         7.0611289        3
    62        12.7238928        1       171         9.6328624        3
    63        13.3613768        1       172        10.7283109        3
    64        17.2377147        1       173        10.9892434        3
    65        19.4512590        1       174        11.9073317        3
    66        26.2372192        1       175        12.2326128        3
    67        26.9050754        1       176        13.1033569        3
    68        34.2205041        1       177        18.6748023        3
    69        35.5087552        1       178        26.4743151        3
    70        47.0787224        1       179        33.3577226        3
    71        47.4179268        1       180        47.2635271        3
    72        63.6747480        1       181        66.2675509        3
    73        66.8467080        1       182        98.4943895        3
    74        98.5089600        1       183        98.5223751        3
    75        98.5299625        1       184       103.3255131        3
    76       103.3183784        1       185       103.3327468        3
    77       103.3439891        1       186       115.0599630        3
    78       114.9440421        1       187       116.6744678        3
    79       115.2439065        1       188       198.6634895        3
    80       117.3907059        1       189       224.7549935        3
    81       121.7839442        1       190       395.2211884        3
    82       198.5628335        1       191         0.2207851        4
    83       198.7440961        1       192         0.5504981        4
    84       216.2041242        1       193         0.7339957        4
    85       225.2128931        1       194         0.8523320        4
    86       395.7682655        1       195         1.5880050        4
    87       508.5355850        1       196         1.6641163        4
    88       895.0151848        1       197         2.0605037        4
    89        -0.0182884        2       198         2.1174673        4
    90         0.0813417        2       199         2.2726532        4
    91         0.1817050        2       200         2.5831557        4
    92         0.2820463        2       201         3.7166506        4
    93         0.4077933        2       202         4.1507291        4
    94         0.6231122        2       203         4.3067124        4
    95         0.7278277        2       204         4.6020392        4
    96         0.7710107        2       205         5.8136634        4
    97         0.8723169        2       206         6.0526395        4
    98         1.0494956        2       207         6.2582657        4
    99         1.4191240        2       208         6.4691596        4
   100         1.4650165        2       209        10.6718966        4
   101         1.6403235        2       210        10.9350578        4
   102         2.0412188        2       211        11.9775271        4
   103         2.1803749        2       212        12.7238928        4
   104         2.2005440        2       213        26.2372192        4
   105         2.2080571        2       214        47.0787224        4
   106         2.4826397        2       215        98.5089600        4
   107         2.6192352        2       216       103.3183784        4
   108         3.3046042        2       217       114.9440421        4
   109         3.8784817        2       218       198.5628335        4
------------------------------------------------------------------------
  -20.6363949217233       -11.5334056344338       -1.25209897401348     
 -0.810405767466561      -0.512677245413235      -0.485748639119030     
 -0.485748639119026       5.893998089183204E-002  6.866209003163760E-002
  0.155915338950454       0.178343654275731       0.220785053554848     
  0.294993589799238       0.303941350783046       0.412344025848511     
[...]
 Convergence information after    17 iterations: 
 Largest element of residual vector :  0.76553286E-06.
 Largest element of DIIS residual   :  0.32517071E-06.
 Convergence information after    18 iterations: 
 Largest element of residual vector :  0.12446151E-06.
 Largest element of DIIS residual   : -0.10386222E-06.
 Convergence information after    19 iterations: 
 Largest element of residual vector :  0.13036814E-06.
 Largest element of DIIS residual   : -0.44167064E-07.
 Perturbed amplitude equations converged in    19 iterations.
  Dominant contributions to perturbed wavefunction:
    7    7  140   22  -0.2214672713 ABAB
    7    7   22  140  -0.2214672713 ABAB
    7    7  140   45  -0.2145923595 ABAB
    7    7   45  140  -0.2145923595 ABAB
    7    0   36    0   0.2089262184 AA  
    7    0   22    0   0.1926254461 AA  
    7    0   28    0   0.1850948243 AA  
    7    7  140   32  -0.1778784208 ABAB
    7    7   32  140  -0.1778784208 ABAB
    7    7  140   28  -0.1758916433 ABAB
    7    7   28  140  -0.1758916433 ABAB
    7    0   45    0   0.1736439657 AA  
    7    0   46    0  -0.1723150480 AA  
    7    7  140   39  -0.1705153238 ABAB
    7    7   39  140  -0.1705153238 ABAB
    7    0   39    0   0.1623164872 AA  
    7    0   25    0  -0.1533385513 AA  
    7    7  140   56  -0.1532600170 ABAB
    7    7   56  140  -0.1532600170 ABAB
    7    7  140   36  -0.1499687961 ABAB
  norm of converged amps    1.59448263333873     
 Starting iterative solution of the perturbed Lambda equations.
 The DIIS procedure is used to accelerate convergence.
 Convergence criterion is 10**(-7).
 Maximum number of iterations is 100.
 Convergence information after     1 iterations: 
 Largest element of residual vector :  0.77987007E-01.
 Largest element of DIIS residual   :  0.77987007E-01.
 Convergence information after     2 iterations: 
 Largest element of residual vector : -0.17552603E-01.
 Largest element of DIIS residual   :  0.14116793E-01.
 Convergence information after     3 iterations: 
 Largest element of residual vector :  0.63454310E-02.
 Largest element of DIIS residual   :  0.60943404E-02.
 Convergence information after     4 iterations: 
 Largest element of residual vector :  0.34273507E-02.
 Largest element of DIIS residual   :  0.31945912E-02.
 Convergence information after     5 iterations: 
 Largest element of residual vector :  0.32397779E-02.
 Largest element of DIIS residual   :  0.27829912E-02.
 Convergence information after     6 iterations: 
 Largest element of residual vector :  0.18526311E-02.
 Largest element of DIIS residual   :  0.85043588E-03.
 Convergence information after     7 iterations: 
 Largest element of residual vector :  0.92398721E-03.
 Largest element of DIIS residual   :  0.46312820E-03.
 Convergence information after     8 iterations: 
 Largest element of residual vector :  0.34839249E-03.
 Largest element of DIIS residual   : -0.20421048E-03.
 Convergence information after     9 iterations: 
 Largest element of residual vector :  0.15446847E-03.
 Largest element of DIIS residual   : -0.10038580E-03.
 Convergence information after    10 iterations: 
 Largest element of residual vector : -0.89472314E-04.
 Largest element of DIIS residual   : -0.55667372E-04.
 Convergence information after    11 iterations: 
 Largest element of residual vector : -0.29708351E-04.
 Largest element of DIIS residual   : -0.93961751E-05.
 Convergence information after    12 iterations: 
 Largest element of residual vector :  0.13285950E-04.
 Largest element of DIIS residual   :  0.74905466E-05.
 Convergence information after    13 iterations: 
 Largest element of residual vector :  0.35400091E-05.
 Largest element of DIIS residual   :  0.30284890E-05.
 Convergence information after    14 iterations: 
 Largest element of residual vector :  0.37900716E-05.
 Largest element of DIIS residual   :  0.21384960E-05.
 Convergence information after    15 iterations: 
 Largest element of residual vector :  0.20894867E-05.
 Largest element of DIIS residual   :  0.99606223E-06.
 Convergence information after    16 iterations: 
 Largest element of residual vector :  0.90492945E-06.
 Largest element of DIIS residual   :  0.26635424E-06.
 Convergence information after    17 iterations: 
 Largest element of residual vector :  0.43214473E-06.
 Largest element of DIIS residual   :  0.18774615E-06.
 Convergence information after    18 iterations: 
 Largest element of residual vector :  0.79440072E-07.
 Largest element of DIIS residual   : -0.56407880E-07.
 Perturbed Lambda equations converged in    18 iterations.
  Dominant contributions to perturbed wavefunction:
    7    7  140   22  -0.1687597593 ABAB
    7    7   22  140  -0.1687597593 ABAB
    7    7  140   45  -0.1654233467 ABAB
    7    7   45  140  -0.1654233467 ABAB
    7    7  140   32  -0.1363792586 ABAB
    7    7   32  140  -0.1363792586 ABAB
    7    7  140   28  -0.1313998106 ABAB
    7    7   28  140  -0.1313998106 ABAB
    7    7  140   39  -0.1290262485 ABAB
    7    7   39  140  -0.1290262485 ABAB
    7    7  140   56  -0.1163904649 ABAB
    7    7   56  140  -0.1163904649 ABAB
    7    7  140   36  -0.1076691108 ABAB
    7    7   36  140  -0.1076691108 ABAB
    7    6   22   89  -0.1044111235 ABAB
    6    7   89   22  -0.1044111235 ABAB
    7    7  140   16   0.1037918783 ABAB
    7    7   16  140   0.1037918783 ABAB
    7    6   45   89  -0.1030234673 ABAB
    6    7   89   45  -0.1030234673 ABAB
        The DBOC first-order density matrix is being calculated 
             (Symmetry block 3, perturbation   2)
 term   2.63485045166440     
 final tnorm  0.745759707962165     
  norm contr. I: |<0|L dT/dx|0>|^2   0.000000000000000E+000
  norm contr. II: <0|[nabla(1+L)e-T][nabla e^T]|0>   2.63485045166440     
  total norm contribution   2.63485045166440     
 oo  1.095940304372191E-002
 vv  -19.6950706459560     
 vo  3.661630580309773E-002
  Correlated perturbed 1-el contribution to DBOC  -19.6474949371091       cm**-1
  SUM_I |dc_I/dx|^2 contribution to DBOC   9.91944680948004       cm**-1
 
 
  The total diagonal Born-Oppenheimer correction (DBOC) is:      0.0040090903 a.u.
  The total diagonal Born-Oppenheimer correction (DBOC) is:        879.893619 cm-1
 
 Total CC energy including DBOC  -113.041793810811     
 First-order density matrix is being calculated  (Symmetry block 3, perturbation   2)
 Calculation of the contributions of <pq||rs> to dI(i,j)/dx required   1.7 seconds.
 Calculation of the contributions of <pq||rs> to dI(a,b)/dx required  15.7 seconds.
 Calculation of the contributions of <pq||rs> to dI(i,a)/dx required   9.3 seconds.
 First-order Z-vector equations are solved for 1 perturbation.
 Convergence reached after  20 iterations.
        U*G(pq,rs) contribution is being calculated
             (Symmetry block 3, perturbation   2)

 CCSD contribution to force constants 

        0.0000000000        0.0000000000        0.0000000000
        0.0000000000        0.0000000000        0.0000000000
        0.0000000000        0.0000000000        0.0000000000
        0.0000000000        0.0000000000        0.0000000000
        0.0000000000        0.0000000000        0.0000000000
        0.0000000000        0.0000000000        0.0000000000
        0.0000000000        0.0000000000        0.0000000000
        0.0000000000        0.0000000000        0.0000000000
        0.0000000000        0.0000000000        0.0000000000
        0.0000000000        0.0000000000        0.0000000000
        0.0000000000        0.0000000000        0.0000000000
        0.0000000000       -7.2923360004        7.2923360004

 CCSD contribution to dipole derivatives 

        0.0000000000        0.0000000000        0.0000000000
        0.0000000000        0.0000000000        0.0000000000
        0.0000000000        0.0000000000        0.0000000000
        0.0000000000        0.0000000000       -0.0571035690
        0.0000000000        0.0000000000        0.0000000000
        0.0000000000        0.0000000000        0.0000000000
 @CHECKOUT-I, Total execution time (CPU/WALL):     1250.87/     408.21 seconds.
--executable xsdcc finished with status     0 in      408.41 seconds (walltime).
 --invoking executable--
/nfs/workspaces/public/cfour_mpi/bin/xanti
 @GETMEM-I,  Allocated    3814 MB of main memory.
 CCSD MO derivative gammas will be sorted to Mulliken order.
 @CHECKOUT-I, Total execution time (CPU/WALL):       11.76/      27.47 seconds.
--executable xanti finished with status     0 in       27.59 seconds (walltime).
 --invoking executable--
/nfs/workspaces/public/cfour_mpi/bin/xbcktrn
 @GETMEM-I,  Allocated    3814 MB of main memory.
 CCSD MO derivative gammas will be transformed to the AO basis.
 @CHECKOUT-I, Total execution time (CPU/WALL):       26.38/       3.86 seconds.
--executable xbcktrn finished with status     0 in        3.90 seconds (walltime).
 --invoking executable--
/nfs/workspaces/public/cfour_mpi/bin/xvdint
 @GETMEM-I,  Allocated    3814 MB of main memory.
 One- and two-electron integral derivatives are calculated
 for RHF-CC/MBPT hessians and dipole derivatives.
 Spherical gaussians are used.
  magnet F F
                    8722  records have been written to the Sort file.
  Total length of Sort file :             178609116  words.
 Evaluation of 2el integral derivatives

                      Two-electron integral gradient
                      ------------------------------

                         C #1 z     0.0000000000
                         O #2 z     0.0000000000


 C #1       0.0000000000            0.0807687671            0.0000000000
 O #2       0.0000000000           -0.0807687671            0.0000000000


 Evaluation of 2e integral derivatives required  373.46 seconds.
  contribution to Hessian
        0.0000000000        0.0000000000        0.0000000000
        0.0000000000        0.0807687671       -0.0807687671
 @CHECKOUT-I, Total execution time (CPU/WALL):      373.44/      72.86 seconds.
--executable xvdint finished with status     0 in       73.02 seconds (walltime).
 --invoking executable--
/nfs/workspaces/public/cfour_mpi/bin/xanti
 @GETMEM-I,  Allocated    3814 MB of main memory.
 CCSD MO gammas will be sorted to Mulliken order.
 @CHECKOUT-I, Total execution time (CPU/WALL):       14.36/      40.22 seconds.
--executable xanti finished with status     0 in       40.30 seconds (walltime).
 --invoking executable--
/nfs/workspaces/public/cfour_mpi/bin/xbcktrn
 @GETMEM-I,  Allocated    3814 MB of main memory.
 CCSD MO gammas will be transformed to the AO basis.
 @CHECKOUT-I, Total execution time (CPU/WALL):       29.87/       8.79 seconds.
--executable xbcktrn finished with status     0 in        8.81 seconds (walltime).
 --invoking executable--
/nfs/workspaces/public/cfour_mpi/bin/xvdint
 @GETMEM-I,  Allocated    3814 MB of main memory.
 One- and two-electron integral derivatives are calculated
 for RHF-CC/MBPT hessians and dipole derivatives.
 Spherical gaussians are used.
  magnet F F

                     Kinetic energy integral gradient
                     --------------------------------

                         C #1 z    -0.4497029402
                         O #2 z     0.4497029402


 C #1       0.0000000000            0.0000000000           -0.4497029402
 O #2       0.0000000000            0.0000000000            0.4497029402



                   Nuclear attraction integral gradient
                   ------------------------------------

                         C #1 z    12.5901880069
                         O #2 z   -12.5901880069


 C #1       0.0000000000            0.0000000000           12.5901880069
 O #2       0.0000000000            0.0000000000          -12.5901880069



                      Reorthonormalization gradient
                      -----------------------------

                         C #1 z     0.0000000000
                         O #2 z     0.0000000000


 C #1       0.0000000000            0.0000000000            0.0000000000
 O #2       0.0000000000            0.0000000000            0.0000000000



                     Kinetic energy integral Hessian
                     -------------------------------


           Symmetry 1

           C #1 z      O #2 z

 C #1 z    0.475470
 O #2 z   -0.475470    0.475470


           Symmetry 2

           C #1 x      O #2 x

 C #1 x   -0.317792
 O #2 x    0.317792   -0.317792


           Symmetry 3

           C #1 y      O #2 y

 C #1 y   -0.317792
 O #2 y    0.317792   -0.317792




           C #1 x      C #1 y      C #1 z      O #2 x      O #2 y      O #2 z

 C #1 x   -0.317792
 C #1 y    0.000000   -0.317792
 C #1 z    0.000000    0.000000    0.475470

 O #2 x    0.317792    0.000000    0.000000   -0.317792
 O #2 y    0.000000    0.317792    0.000000    0.000000   -0.317792
 O #2 z    0.000000    0.000000   -0.475470    0.000000    0.000000    0.475470




                   Nuclear attraction integral Hessian
                   -----------------------------------


           Symmetry 1

           C #1 z      O #2 z

 C #1 z   -7.535811
 O #2 z    7.535811   -7.535811


           Symmetry 2

           C #1 x      O #2 x

 C #1 x    6.268124
 O #2 x   -6.268124    6.268124


           Symmetry 3

           C #1 y      O #2 y

 C #1 y    6.268124
 O #2 y   -6.268124    6.268124




           C #1 x      C #1 y      C #1 z      O #2 x      O #2 y      O #2 z

 C #1 x    6.268124
 C #1 y    0.000000    6.268124
 C #1 z    0.000000    0.000000   -7.535811

 O #2 x   -6.268124    0.000000    0.000000    6.268124
 O #2 y    0.000000   -6.268124    0.000000    0.000000    6.268124
 O #2 z    0.000000    0.000000    7.535811    0.000000    0.000000   -7.535811




                Highest order reorthonormalization Hessian
                ------------------------------------------


           Symmetry 1

           C #1 z      O #2 z

 C #1 z    0.000000
 O #2 z    0.000000    0.000000


           Symmetry 2

           C #1 x      O #2 x

 C #1 x    0.000000
 O #2 x    0.000000    0.000000


           Symmetry 3

           C #1 y      O #2 y

 C #1 y    0.000000
 O #2 y    0.000000    0.000000




           C #1 x      C #1 y      C #1 z      O #2 x      O #2 y      O #2 z




                Electronic contributions to dipole moment
                -----------------------------------------

                               au             Debye

                    z      1.42957824      3.63362608

  Conversion factor used: 1 a.u. =   2.54174691 Debye 



   Electronic contributions to static part of dipole moment derivatives
   --------------------------------------------------------------------


                     Total dipole moment derivatives
                     -------------------------------


           Symmetry 1
                              Ez

               C #1 z    -5.69002194
               O #2 z    -8.30997806

           Symmetry 2
                              Ex

               C #1 x    -5.68055982
               O #2 x    -8.31944018

           Symmetry 3
                              Ey

               C #1 y    -5.68055982
               O #2 y    -8.31944018



                       Ex          Ey          Ez

      C #1    x   -5.680560    0.000000    0.000000
      C #1    y    0.000000   -5.680560    0.000000
      C #1    z    0.000000    0.000000   -5.690022

      O #2    x   -8.319440    0.000000    0.000000
      O #2    y    0.000000   -8.319440    0.000000
      O #2    z    0.000000    0.000000   -8.309978

 Evaluation of 1e integral derivatives required    1.75 seconds.
                    8815  records have been written to the Sort file.
  Total length of Sort file :             180513570  words.
 Evaluation of 2el integral derivatives

                      Two-electron integral gradient
                      ------------------------------

                         C #1 z    -6.8116875078
                         O #2 z     6.8116875078


 C #1       0.0000000000            0.0000000000           -6.8116875078
 O #2       0.0000000000            0.0000000000            6.8116875078


 Evaluation of 2e integral derivatives required  715.61 seconds.

                            Molecular gradient
                            ------------------

                         C #1 z     0.5428627509
                         O #2 z    -0.5428627509


 C #1       0.0000000000            0.0000000000            0.5428627509
 O #2       0.0000000000            0.0000000000           -0.5428627509


  Molecular gradient norm 0.768E+00

                            Molecular hessian
                            -----------------


           Symmetry 1

           C #1 z      O #2 z

 C #1 z   11.143139
 O #2 z  -11.143139   11.143139


           Symmetry 2

           C #1 x      O #2 x

 C #1 x    7.448810
 O #2 x   -7.448810    7.448810


           Symmetry 3

           C #1 y      O #2 y

 C #1 y    7.448810
 O #2 y   -7.448810    7.448810




           C #1 x      C #1 y      C #1 z      O #2 x      O #2 y      O #2 z

 C #1 x    7.448810
 C #1 y    0.000000    7.448810
 C #1 z    0.000000    0.000000   11.143139

 O #2 x   -7.448810    0.000000    0.000000    7.448810
 O #2 y    0.000000   -7.448810    0.000000    0.000000    7.448810
 O #2 z    0.000000    0.000000  -11.143139    0.000000    0.000000   11.143139




                           Total dipole moment
                           -------------------

                               au             Debye

                    z      0.54962940      1.39701884

  Conversion factor used: 1 a.u. =   2.54174691 Debye 



                     Total dipole moment derivatives
                     -------------------------------


           Symmetry 1
                              Ez

               C #1 z     0.52862226
               O #2 z    -0.52862226

           Symmetry 2
                              Ex

               C #1 x     0.18343069
               O #2 x    -0.18343069

           Symmetry 3
                              Ey

               C #1 y     0.18343069
               O #2 y    -0.18343069



                       Ex          Ey          Ez

      C #1    x    0.183431    0.000000    0.000000
      C #1    y    0.000000    0.183431    0.000000
      C #1    z    0.000000    0.000000    0.528622

      O #2    x   -0.183431    0.000000    0.000000
      O #2    y    0.000000   -0.183431    0.000000
      O #2    z    0.000000    0.000000   -0.528622

 @CHECKOUT-I, Total execution time (CPU/WALL):      717.35/     126.05 seconds.
--executable xvdint finished with status     0 in      126.17 seconds (walltime).
 --invoking executable--
/nfs/workspaces/public/cfour_mpi/bin/xjoda
  @GTFLGS-I, Hessian will be transformed to curvilinear coordinates.
  @GTFLGS-I, Hessian will be transformed to curvilinear coordinates.
  igrd and ihes are                      0                     1
  gradient from JOBARC 
   0.000000000000000   0.000000000000000   0.542862750915182
   0.000000000000000   0.000000000000000  -0.542862750915182
 
  @PROJFCM-I, Projecting force constant matrix onto totally symmetric subspace.
  Largest difference between matrix elements of symmetrized
  and unsymmetrized FCM :    -0.1669775429E-12.
  read isotopes from ZMAT file 
 
  Summary of diagonal Born-Oppenheimer correction at the correlated level
  The total diagonal Born-Oppenheimer correction (DBOC) is:      0.0040090903 a.u.
  The total diagonal Born-Oppenheimer correction (DBOC) is:        879.893619 cm-1
  The total diagonal Born-Oppenheimer correction (DBOC) is:            10.526 kJ/mole
  hellooooooo 
  readis is  F
 
 @CHECKOUT-I, Total execution time (CPU/WALL):        0.02/       0.07 seconds.
--executable xjoda finished with status     0 in        0.10 seconds (walltime).
  The final electronic energy is      -113.041793810810503 a.u. 
  This computation required                         4674.75 seconds (walltime).
