 --invoking executable--
/nfs/workspaces/public/cfour_mpi/bin/xjoda


   *************************************************************************
         <<<     CCCCCC     CCCCCC   |||     CCCCCC     CCCCCC   >>>
       <<<      CCC        CCC       |||    CCC        CCC         >>>
      <<<      CCC        CCC        |||   CCC        CCC            >>>
    <<<        CCC        CCC        |||   CCC        CCC              >>>
      <<<      CCC        CCC        |||   CCC        CCC            >>>
       <<<      CCC        CCC       |||    CCC        CCC         >>>
         <<<     CCCCCC     CCCCCC   |||     CCCCCC     CCCCCC   >>>
   *************************************************************************

     ****************************************************************
     * CFOUR Coupled-Cluster techniques for Computational Chemistry *
     ****************************************************************
 

   Department of Chemistry                Institut fuer Physikalische Chemie
   University of Florida                  Universitaet Mainz
   Gainesville, FL 32611, USA             D-55099 Mainz, Germany

   Department of Chemistry                Fakultaet fuer Chemie und Biowiss.
   Johns Hopkins University               Karlsruher Institut fuer Technologie
   Baltimore, MD 21218, USA               D-76131 Karlsruhe, Germany

   Department of Chemistry                Department of Physical Chemistry
   Southern Methodist University          Eotvos Lorand University
   Dallas, TX 75275, USA                  H-1053 Budapest, Hungary

 
                       Version 2.1
 
                     vincent.theory.phys.ucl.ac.uk                     
                     Fri 28 Feb 13:13:46 GMT 2025                      
                     integer*8 version is running
 
********************************************************************************
*                          Input from ZMAT file                                *
********************************************************************************
Carbon Monoxide DBOC calculation                                                
C                                                                               
O 1 r                                                                           
                                                                                
r=1.6448275862068966                                                            
                                                                                
                                                                                
*CFOUR(CALC=CCSD,BASIS=AUG-PCVQZ,SCF_CONV=10                                    
CC_CONV=14,DBOC=ON,MEMORY=500000000                                             
ZFIELD=200)                                                                     
                                                                                
%isotopes                                                                       
13                                                                              
16                                                                              
********************************************************************************
  @GTFLGS-I, Hessian will be transformed to curvilinear coordinates.
    -------------------------------------------------------------------
                    CFOUR Control Parameters 
    -------------------------------------------------------------------
        External           Internal           Value            Units
          Name               Name
    -------------------------------------------------------------------
       ABCDTYPE             IABCDT         STANDARD    [  0]    ***   
       ANHARMONIC           IANHAR         OFF         [  0]    ***   
       ANH_ALGORIT          IANALG         STANDARD    [  0]    ***   
       ANH_DERIVAT          IANDER         SECOND      [  1]    ***   
       ANH_MODE             ANHMOD         VIBRATION   [  0]    ***   
       ANH_STEPSIZ          ICUBST             50000          x 10-6  
       ANH_SYMMETR          IANHSM         ABELIAN     [  0]    ***   
       AO_LADDERS           IAOLAD         SINGLEPASS  [  1]    ***   
       AV_SCF               IAVSCF         OFF         [  0]    ***   
       BASIS                IBASIS         AUG-PCVQZ   [ 52]    ***   
       BOTHVECTORS          BOTHVC         OFF         [  0]    ***   
       BOX_POTENT           IPIAB          OFF         [  0]    ***   
       BREIT                IBREIT         OFF         [  0]    ***   
       BRUCK_CONV           IBRTOL          10D-  4             ***   
       BRUECKNER            IBRKNR         OFF         [  0]    ***   
       BUFFERSIZE           IBUFFS              4096            ***   
       CACHE_RECS           ICHREC             10               ***   
       CALCLEVEL            ICLLVL         CCSD        [ 10]    ***   
       CCORBOPT             ICCORB         OFF         [  0]  x 0.01  
       CC_CONV              ICCCNV          10D- 14             ***   
       CC_EXPORDER          ICCEOR              5               ***   
       CC_EXTRAPOL          ICCEXT         DIIS        [  1]    ***   
       CC_GUESS             ICCGES         MP2         [  0]    ***   
       CC_MAXCYC            ICCCYC            100              cycles 
       CC_PROGRAM           ICCPRO         VCC         [  0]    ***   
       CHARGE               ICHRGE              0               ***   
       CHOLESKY             ICHOLE         OFF         [  0]    ***   
       CIS_CONV             ICISTL              5               ***   
       COMM_SIZE            IPSIZE            ***               ***   
       CONSTANT             ICONST         OLD         [  1]    ***   
       CONTINUUM            ICONTU         NONE        [  0]    ***   
       CONTRACTION          ICNTYP         GENERAL     [  1]    ***   
       COORDINATES          ICOORD         INTERNAL    [  0]    ***   
       CPHF_CONVER          ICPHFT          10D- 16             ***   
       CPHF_MAXCYC          ICPHFC             64              cycles 
       CUBIC                ICUBIC         OFF         [  0]    ***   
       CURVILINEAR          ICURVY         ON          [  1]    ***   
       DBOC                 IDBOC          ON          [  1]    ***   
       DCT                  IDCT           OFF         [  0]    ***   
       DERIV_LEV            IDRLVL         SECOND      [  2]    ***   
       DEVMEM_SIZE          IDVMEM          50000000           MByte  
       DIAG_MRCC            IEOMST          10D-  0             ***   
       DIFF_TYPE            IDIFTY         RELAXED     [  0]    ***   
       DIRECT               IDIRCT         OFF         [  0]    ***   
       DROPMO               IDRPMO      NONE         
       ECP                  IECP           OFF         [  0]    ***   
       EIGENVECTOR          IVEC                1               ***   
       EL_ANHARM            IELANH         OFF         [  0]    ***   
       EOMFOLLOW            IEOMSR         ENERGY      [  0]    ***   
       EOMIP                IEOMIP         OFF         [  0]    ***   
       EOMLEVEL             HBARFM         SAME        [  0]    ***   
       EOM_MRCC             IMRCCE         NEW         [  1]    ***   
       EOM_NONIT            EOMNON         OFF         [  0]    ***   
       EOM_NSING            IEOMSI          10D-  0             ***   
       EOM_NSTATES          IMRCCD         DAVIDSON    [  0]    ***   
       EOM_NTRIP            IEOMTR          10D-  0             ***   
       EOM_ORDER            IEXORD         ENERGY      [  0]    ***   
       EOM_PROPSTA          IEOMST              0               ***   
       ESTATE_CONV          IEXTOL          10D-  5             ***   
       ESTATE_DIAG          IEXDIG         ITERATIVE   [  0]    ***   
       ESTATE_LOCK          IESLOC         ON          [  1]    ***   
       ESTATE_MAXC          IEXMXC             40               ***   
       ESTATE_PROP          IEXPRP         OFF         [  0]    ***   
       EVAL_HESS            IRECAL              0            # of cyc.
       EXCITATION           IEXCIT              0               ***   
       EXCITE               IEXCIT         NONE        [  0]    ***   
       EXTERN_POT           IEXPOT         OFF         [  0]    ***   
       FCGRADNEW            IFCGNW         OFF         [  0]    ***   
       FC_FIELD             IFINFC              0             x 10-6  
       FD_CALTYPE           IFDCAL         GRADONLY    [  0]    ***   
       FD_PROJECT           IFDPRJ         OFF         [  1]    ***   
       FD_STEPSIZE          IDISFD              0            10-4 bohr
       FD_USEGROUP          IFDGRP         FULL        [  0]    ***   
       FILE_RECSIZ          IFLREC              4096           words  
       FINITE_PERT          IFIPER              0             x 10-6  
       FIXGEOM              IFIXGM         OFF         [  0]    ***   
       FOCK                 IFOCK          AO          [  1]    ***   
       FREQ_ALGORI          IVIALG         STANDARD    [  0]    ***   
       FROZEN_CORE          IFROCO         OFF         [  0]    ***   
       GAMMA_ABCD           IGABCD         STORE       [  0]    ***   
       GAMMA_ABCI           IGABCI         STORE       [  0]    ***   
       GENBAS_1             IGNBS1              0               ***   
       GENBAS_2             IGNBS2              0               ***   
       GENBAS_3             IGNBS3              0               ***   
       GENBAS_4             IGNBS4              0               ***   
       GEO_CONV             ICONTL              5              H/bohr 
       GEO_MAXCYC           IOPTCY             50               ***   
       GEO_MAXSTEP          IMXSTP            300            millibohr
       GEO_METHOD           INR            SINGLE_POINT[  5]    ***   
       GIAO                 IGIAO          OFF         [  1]    ***   
       GIMIC                IGIMIC         OFF         [  0]    ***   
       GRID                 IGRID          OFF         [  0]    ***   
       GRID_ALGO            IGALGO         SERIAL      [  0]    ***   
       GUESS                IGUESS         MOREAD      [  0]    ***   
       HBAR                 IHBAR          OFF         [  0]    ***   
       HESS_TYPE            IHESTP         SCF         [  0]    ***   
       HF2_FILE             IHF2Fl         USE         [  1]    ***   
       HFSTABILITY          ISTABL         OFF         [  0]    ***   
       INCORE               INCORE         OFF         [  0]    ***   
       INPUT_MRCC           IMRCC          ON          [  1]    ***   
       INTEGRALS            INTTYP         VMOL        [  1]    ***   
       JODA_PRINT           IJPRNT              0               ***   
       KEYWORD_OUT          IDMPKW         NO          [  0]    ***   
       LINDEP_TOL           ILINDP              8               ***   
       LINEQ_CONV           IZTACN          10D-  7           cycles  
       LINEQ_EXPOR          ILMAXD              5               ***   
       LINEQ_MAXCY          ILMAXC            100               ***   
       LINEQ_TYPE           ILTYPE         DIIS        [  1]    ***   
       LOCK_ORBOCC          ILOCOC         OFF         [  0]    ***   
       MEMORY_SIZE          IMEMSZ         500000000           words  
       MEM_UNIT             IMEMU          INTEGERWORDS[  0]    ***   
       MRCC                 IMRCCC         OFF         [  0]    ***   
       MULTIPLICTY          IMULTP              1               ***   
       NACOUPLING           IVCOUP         OFF         [  0]    ***   
       NEGEVAL              IDIE           ABORT       [  0]    ***   
       NEWNORM              INEWNO         OFF         [  0]    ***   
       NON-HF               INONHF         OFF         [  0]    ***   
       NTOP_TAMP            ITOPT2             15               ***   
       NUC_MODEL            INUCMO         POINT       [  0]    ***   
       OCCUPATION           IOCCU   ESTIMATED BY SCF 
       OPEN-SHELL           IOPEN          SPIN-ORBITAL[  0]    ***   
       OPTVIB               IOPTVB         OFF         [  0]    ***   
       ORBITALS             IORBTP         STANDARD    [  0]    ***   
       PARALLEL             IPARAL         ON          [  1]    ***   
       PARA_INT             IPINTS         ON          [  1]    ***   
       PARA_PRINT           IPPRIN              0               ***   
       PERT_ORB             IPTORB         STANDARD    [  0]    ***   
       POINTS               IGRDFD              0               ***   
       PRINT                IPRNT               0               ***   
       PROPS                IPROPS         OFF         [  0]    ***   
       PROP_INTEGR          IINTYP         INTERNAL    [  0]    ***   
       PSI                  IPSI           OFF         [  0]    ***   
       QC_ALG               IQCALG         FLM         [  0]    ***   
       QC_LINALG            IQCLIN         TRIDIAG     [  2]    ***   
       QC_MAXCYC            IQCMAX          10D-100           cycles  
       QC_MAXSCFCY          IQCMSC          10D- 15           cycles  
       QC_RTRUST            IQCRTR          10D-  0           x 10-3  
       QC_SKIPSCF           IQCSKI         OFF         [  0]    ***   
       QC_START             IQCSTA          10D-  1             ***   
       QRHFGUESS            IQGUES         OFF         [  0]    ***   
       QUARTIC              IQUART         OFF         [  0]    ***   
       RAMAN_INT            IRAMIN         OFF         [  0]    ***   
       RAMAN_ORB            IRAMRE         UNRELAXED   [  0]    ***   
       RDO                  IRDOFM         ON          [  1]    ***   
       REDUCE_REPR          REDREP         Ir          [  0]    ***   
       REFERENCE            IREFNC         RHF         [  0]    ***   
       RELATIVIST           IRELAT         OFF         [  0]    ***   
       RELAX_DENS           IRDENS         ON          [  1]    ***   
       RESET_FLAGS          IRESET         OFF         [  0]    ***   
       RESTART_CC           ICCRES         OFF         [  0]    ***   
       ROT_EVEC             ROTVEC              0               ***   
       SAVE_INTS            ISVINT         OFF         [  0]    ***   
       SCALE_ON             ISTCRT              0               ***   
       SCF_CONV             ISCFCV          10D- 10             ***   
       SCF_DAMPING          IDAMP               0             x 10-3  
       SCF_EXPORDE          IRPPOR              6               ***   
       SCF_EXPSTAR          IRPPLS              8               ***   
       SCF_EXTRAPO          IRPP           ON          [  1]    ***   
       SCF_MAXCYC           ISCFCY            150              cycles 
       SCF_NOSTOP           ISCFST         OFF         [  0]    ***   
       SCF_PRINT            ISCFPR              0               ***   
       SCF_PROG             ISCFPR         SCF         [  0]    ***   
       SD_FIELD             IFINSD              0             x 10-6  
       SOPERT               IPERSO         OFF         [  0]    ***   
       SPHERICAL            IDFGHI         ON          [  1]    ***   
       SPINORBIT            ISOCAL         OFF         [  0]    ***   
       SPINROTATIO          ISRCON         OFF         [  0]    ***   
       SPIN_FLIP            ISPFLP         OFF         [  0]    ***   
       SPIN_ORBIT           ISPORB         OFF         [  0]    ***   
       SPIN_SCAL            ISCSMP         OFF         [  0]    ***   
       STEEPSCALE           ISTPSC              1000          x 10-3  
       SUBGROUP             ISUBGP         DEFAULT     [  0]    ***   
       SUBGRPAXIS           ISBXYZ         X           [  0]    ***   
       SYMMETRY             ISYM           ON          [  0]    ***   
       SYM_CHECK            ISYMCK         OVERRIDE    [  1]    ***   
       T3_EXTRAPOL          IT3EXT         OFF         [  0]    ***   
       T4_EXTRAPOL          IT4EXP         OFF         [  0]    ***   
       TAMP_SUM             IEVERY              5               ***   
       TESTSUITE            ITESTS         OFF         [  0]    ***   
       THERMOCH             ITHERM         OFF         [  0]    ***   
       TOL_CHOLESK          ITOLCH          10D-  4             ***   
       TRANGRAD             IRESRM         OFF         [  0]    ***   
       TRANS_INV            ITRAIN         IGNORE      [  1]    ***   
       TREAT_PERT           ITREAT         SIMULTANEOUS[  0]    ***   
       TRIP_ALGORI          ITRALG         NORMAL      [  0]    ***   
       UIJ_THRESHO          IUIJTH              1               ***   
       UNITS                IUNITS         ANGSTROM    [  0]    ***   
       UNOS                 IUNOS          OFF         [  0]    ***   
       UPDATE_HESS          IHUPDT         ON          [  1]    ***   
       VIBPHASE             ISETPH         STANDARD    [  0]    ***   
       VIBRATION            IVIB           ANALYTIC    [  1]    ***   
       VIB_ALGORIT          IGEALG         STANDARD    [  0]    ***   
       VNATORB              IVNORB         OFF         [  0]    ***   
       VTRAN                IVTRAN         FULL/PARTIAL[  0]    ***   
       XFIELD               IXEFLD              0             x 10-6  
       XFORM_TOL            IXFTOL          10D- 11             ***   
       YFIELD               IYEFLD              0             x 10-6  
       ZFIELD               IZEFLD            200             x 10-6  
       ZSCALE_EXP           IZEXPS         OFF         [  0]    ***   
    -------------------------------------------------------------------
   2 entries found in Z-matrix 
   Job Title : Carbon Monoxide DBOC calculation                                                
   There are  1 unique internal coordinates.
   Of these,  0 will be optimized.
   User supplied Z-matrix: 
--------------------------------------------------------------------------------
       SYMBOL    BOND      LENGTH    ANGLE     ANGLE     DIHED     ANGLE
                  TO      (ANGST)    WRT      (DEG)      WRT      (DEG)
--------------------------------------------------------------------------------
        C    
        O          1         r    
                  *Initial values for internal coordinates* 
                      Name             Value
                        r               1.6448275862
--------------------------------------------------------------------------------
  read isotopes from ZMAT file 
   Rotational constants (in cm-1): 
          0.8687414314             0.8687414314
   Rotational constants (in MHz): 
      26044.2165573645         26044.2165573645
********************************************************************************
   The full molecular point group is CXv .
   The largest Abelian subgroup of the full molecular point group is C2v .
   The computational point group is C2v .
********************************************************************************
--------------------------------------------------------------------------------
   Analysis of internal coordinates specified by Z-matrix 
--------------------------------------------------------------------------------
   *The nuclear repulsion energy is   15.442652477987419 a.u.
   *There is   1 degree of freedom within the tot. symm. molecular subspace.
   *Z-matrix requests optimization of   0 coordinates.
   *The optimization is constrained.
   *The following   1 parameters can have non-zero 
    derivatives within the totally symmetric subspace:
             r    [ 1]
   *The following   0 parameters are to be optimized:

   *The following coordinates must be varied in an  unconstrained optimization.
             r    [ 1]
--------------------------------------------------------------------------------


 ----------------------------------------------------------------
         Coordinates used in calculation (QCOMP) 
 ----------------------------------------------------------------
 Z-matrix   Atomic            Coordinates (in bohr)
  Symbol    Number           X              Y              Z
 ----------------------------------------------------------------
     C         6        -0.00000000     0.00000000     1.71446721
     O         8         0.00000000     0.00000000    -1.39380710
 ----------------------------------------------------------------
 
   Interatomic distance matrix (Angstroms) 
 
                 C             O    
                [ 1]        [ 2]
  C    [ 1]     0.00000
  O    [ 2]     1.64483     0.00000
 rotcon2
   Rotational constants (in cm-1): 
          0.8687414314             0.0000000000
   Rotational constants (in MHz): 
      26044.2165573645             0.0000000000
  ECPDATA file not present.   Using default ECPDATA. 
  @GTFLGS-I, Hessian will be transformed to curvilinear coordinates.
  There are  218 basis functions.
 @CHECKOUT-I, Total execution time (CPU/WALL):        0.13/       0.20 seconds.
--executable xjoda finished with status     0 in        0.22 seconds (walltime).
 --invoking executable--
/nfs/workspaces/public/cfour_mpi/bin/xvmol
 SERIAL VERSION OF MOLECULE STARTED
********************************************************************************
                    INPUT FROM MOL FILE
********************************************************************************
INTGRL        1    0    1    0    0    0    0    0    0                         
         *** CFOUR Program System (Release V0.1) ***                            
Carbon Monoxide DBOC calculation                                                
    2    2 X  Y       0.10E-08              0    0                              
   9999.00      3.00                                                            
          6.00000000    1    5    1    1    1    1    1                         
C #1  -0.000000000000000   0.000000000000000   1.714467214527945                
   16    9                                                                      
   33980.0000000000       9.100000000000000E-005 -1.900000000000000E-005        
  0.000000000000000E+000  0.000000000000000E+000  0.000000000000000E+000        
  0.000000000000000E+000  0.000000000000000E+000  0.000000000000000E+000        
  0.000000000000000E+000                                                        
   5089.00000000000       7.040000000000000E-004 -1.510000000000000E-004        
  0.000000000000000E+000  0.000000000000000E+000  0.000000000000000E+000        
  0.000000000000000E+000  0.000000000000000E+000  0.000000000000000E+000        
  0.000000000000000E+000                                                        
   1157.00000000000       3.693000000000000E-003 -7.850000000000000E-004        
  0.000000000000000E+000  0.000000000000000E+000  0.000000000000000E+000        
  0.000000000000000E+000  0.000000000000000E+000  0.000000000000000E+000        
  0.000000000000000E+000                                                        
   326.600000000000       1.536000000000000E-002 -3.324000000000000E-003        
  0.000000000000000E+000  0.000000000000000E+000  0.000000000000000E+000        
  0.000000000000000E+000  0.000000000000000E+000  0.000000000000000E+000        
  0.000000000000000E+000                                                        
   106.100000000000       5.292900000000000E-002 -1.151200000000000E-002        
  0.000000000000000E+000  0.000000000000000E+000  0.000000000000000E+000        
  0.000000000000000E+000  0.000000000000000E+000  0.000000000000000E+000        
  0.000000000000000E+000                                                        
   38.1100000000000       0.147043000000000      -3.416000000000000E-002        
  0.000000000000000E+000  0.000000000000000E+000  0.000000000000000E+000        
  0.000000000000000E+000  0.000000000000000E+000  0.000000000000000E+000        
  0.000000000000000E+000                                                        
   14.7500000000000       0.305631000000000      -7.717300000000001E-002        
  0.000000000000000E+000  0.000000000000000E+000  0.000000000000000E+000        
  0.000000000000000E+000  0.000000000000000E+000  0.000000000000000E+000        
  0.000000000000000E+000                                                        
   6.03500000000000       0.399345000000000      -0.141493000000000             
  0.000000000000000E+000  0.000000000000000E+000  0.000000000000000E+000        
  0.000000000000000E+000  0.000000000000000E+000  0.000000000000000E+000        
  0.000000000000000E+000                                                        
   2.53000000000000       0.217051000000000      -0.118019000000000             
  0.000000000000000E+000  0.000000000000000E+000  0.000000000000000E+000        
  0.000000000000000E+000  0.000000000000000E+000  0.000000000000000E+000        
  0.000000000000000E+000                                                        
  0.735500000000000       1.589400000000000E-002  0.273806000000000             
   1.00000000000000       0.000000000000000E+000  0.000000000000000E+000        
  0.000000000000000E+000  0.000000000000000E+000  0.000000000000000E+000        
  0.000000000000000E+000                                                        
  0.290500000000000      -3.084000000000000E-003  0.586510000000000             
  0.000000000000000E+000   1.00000000000000       0.000000000000000E+000        
  0.000000000000000E+000  0.000000000000000E+000  0.000000000000000E+000        
  0.000000000000000E+000                                                        
  0.111100000000000       9.779999999999999E-004  0.285430000000000             
  0.000000000000000E+000  0.000000000000000E+000   1.00000000000000             
  0.000000000000000E+000  0.000000000000000E+000  0.000000000000000E+000        
  0.000000000000000E+000                                                        
   7.21600000000000       0.000000000000000E+000  0.000000000000000E+000        
  0.000000000000000E+000  0.000000000000000E+000  0.000000000000000E+000        
   1.00000000000000       0.000000000000000E+000  0.000000000000000E+000        
  0.000000000000000E+000                                                        
   19.5700000000000       0.000000000000000E+000  0.000000000000000E+000        
  0.000000000000000E+000  0.000000000000000E+000  0.000000000000000E+000        
  0.000000000000000E+000   1.00000000000000       0.000000000000000E+000        
  0.000000000000000E+000                                                        
   53.0730000000000       0.000000000000000E+000  0.000000000000000E+000        
  0.000000000000000E+000  0.000000000000000E+000  0.000000000000000E+000        
  0.000000000000000E+000  0.000000000000000E+000   1.00000000000000             
  0.000000000000000E+000                                                        
  4.145000000000000E-002  0.000000000000000E+000  0.000000000000000E+000        
  0.000000000000000E+000  0.000000000000000E+000  0.000000000000000E+000        
  0.000000000000000E+000  0.000000000000000E+000  0.000000000000000E+000        
   1.00000000000000                                                             
   10    8                                                                      
   34.5100000000000       5.378000000000000E-003  0.000000000000000E+000        
  0.000000000000000E+000  0.000000000000000E+000  0.000000000000000E+000        
  0.000000000000000E+000  0.000000000000000E+000  0.000000000000000E+000        
   7.91500000000000       3.613200000000000E-002  0.000000000000000E+000        
  0.000000000000000E+000  0.000000000000000E+000  0.000000000000000E+000        
  0.000000000000000E+000  0.000000000000000E+000  0.000000000000000E+000        
   2.36800000000000       0.142493000000000       0.000000000000000E+000        
  0.000000000000000E+000  0.000000000000000E+000  0.000000000000000E+000        
  0.000000000000000E+000  0.000000000000000E+000  0.000000000000000E+000        
  0.813200000000000       0.342150000000000        1.00000000000000             
  0.000000000000000E+000  0.000000000000000E+000  0.000000000000000E+000        
  0.000000000000000E+000  0.000000000000000E+000  0.000000000000000E+000        
  0.289000000000000       0.463864000000000       0.000000000000000E+000        
   1.00000000000000       0.000000000000000E+000  0.000000000000000E+000        
  0.000000000000000E+000  0.000000000000000E+000  0.000000000000000E+000        
  0.100700000000000       0.250028000000000       0.000000000000000E+000        
  0.000000000000000E+000   1.00000000000000       0.000000000000000E+000        
  0.000000000000000E+000  0.000000000000000E+000  0.000000000000000E+000        
   8.18200000000000       0.000000000000000E+000  0.000000000000000E+000        
  0.000000000000000E+000  0.000000000000000E+000   1.00000000000000             
  0.000000000000000E+000  0.000000000000000E+000  0.000000000000000E+000        
   24.1860000000000       0.000000000000000E+000  0.000000000000000E+000        
  0.000000000000000E+000  0.000000000000000E+000  0.000000000000000E+000        
   1.00000000000000       0.000000000000000E+000  0.000000000000000E+000        
   71.4940000000000       0.000000000000000E+000  0.000000000000000E+000        
  0.000000000000000E+000  0.000000000000000E+000  0.000000000000000E+000        
  0.000000000000000E+000   1.00000000000000       0.000000000000000E+000        
  3.218000000000000E-002  0.000000000000000E+000  0.000000000000000E+000        
  0.000000000000000E+000  0.000000000000000E+000  0.000000000000000E+000        
  0.000000000000000E+000  0.000000000000000E+000   1.00000000000000             
    6    6                                                                      
   1.84800000000000        1.00000000000000       0.000000000000000E+000        
  0.000000000000000E+000  0.000000000000000E+000  0.000000000000000E+000        
  0.000000000000000E+000                                                        
  0.649000000000000       0.000000000000000E+000   1.00000000000000             
  0.000000000000000E+000  0.000000000000000E+000  0.000000000000000E+000        
  0.000000000000000E+000                                                        
  0.228000000000000       0.000000000000000E+000  0.000000000000000E+000        
   1.00000000000000       0.000000000000000E+000  0.000000000000000E+000        
  0.000000000000000E+000                                                        
   8.65600000000000       0.000000000000000E+000  0.000000000000000E+000        
  0.000000000000000E+000   1.00000000000000       0.000000000000000E+000        
  0.000000000000000E+000                                                        
   33.2130000000000       0.000000000000000E+000  0.000000000000000E+000        
  0.000000000000000E+000  0.000000000000000E+000   1.00000000000000             
  0.000000000000000E+000                                                        
  7.660000000000000E-002  0.000000000000000E+000  0.000000000000000E+000        
  0.000000000000000E+000  0.000000000000000E+000  0.000000000000000E+000        
   1.00000000000000                                                             
    4    4                                                                      
   1.41900000000000        1.00000000000000       0.000000000000000E+000        
  0.000000000000000E+000  0.000000000000000E+000                                
  0.485000000000000       0.000000000000000E+000   1.00000000000000             
  0.000000000000000E+000  0.000000000000000E+000                                
   24.6940000000000       0.000000000000000E+000  0.000000000000000E+000        
   1.00000000000000       0.000000000000000E+000                                
  0.187000000000000       0.000000000000000E+000  0.000000000000000E+000        
  0.000000000000000E+000   1.00000000000000                                     
    2    2                                                                      
   1.01100000000000        1.00000000000000       0.000000000000000E+000        
  0.424000000000000       0.000000000000000E+000   1.00000000000000             
          8.00000000    1    5    1    1    1    1    1                         
O #2   0.000000000000000   0.000000000000000  -1.393807097052992                
   16    9                                                                      
   61420.0000000000       9.000000000000001E-005 -2.000000000000000E-005        
  0.000000000000000E+000  0.000000000000000E+000  0.000000000000000E+000        
  0.000000000000000E+000  0.000000000000000E+000  0.000000000000000E+000        
  0.000000000000000E+000                                                        
   9199.00000000000       6.980000000000001E-004 -1.590000000000000E-004        
  0.000000000000000E+000  0.000000000000000E+000  0.000000000000000E+000        
  0.000000000000000E+000  0.000000000000000E+000  0.000000000000000E+000        
  0.000000000000000E+000                                                        
   2091.00000000000       3.664000000000000E-003 -8.290000000000000E-004        
  0.000000000000000E+000  0.000000000000000E+000  0.000000000000000E+000        
  0.000000000000000E+000  0.000000000000000E+000  0.000000000000000E+000        
  0.000000000000000E+000                                                        
   590.900000000000       1.521800000000000E-002 -3.508000000000000E-003        
  0.000000000000000E+000  0.000000000000000E+000  0.000000000000000E+000        
  0.000000000000000E+000  0.000000000000000E+000  0.000000000000000E+000        
  0.000000000000000E+000                                                        
   192.300000000000       5.242300000000000E-002 -1.215600000000000E-002        
  0.000000000000000E+000  0.000000000000000E+000  0.000000000000000E+000        
  0.000000000000000E+000  0.000000000000000E+000  0.000000000000000E+000        
  0.000000000000000E+000                                                        
   69.3200000000000       0.145921000000000      -3.626100000000000E-002        
  0.000000000000000E+000  0.000000000000000E+000  0.000000000000000E+000        
  0.000000000000000E+000  0.000000000000000E+000  0.000000000000000E+000        
  0.000000000000000E+000                                                        
   26.9700000000000       0.305258000000000      -8.299200000000000E-002        
  0.000000000000000E+000  0.000000000000000E+000  0.000000000000000E+000        
  0.000000000000000E+000  0.000000000000000E+000  0.000000000000000E+000        
  0.000000000000000E+000                                                        
   11.1000000000000       0.398508000000000      -0.152090000000000             
  0.000000000000000E+000  0.000000000000000E+000  0.000000000000000E+000        
  0.000000000000000E+000  0.000000000000000E+000  0.000000000000000E+000        
  0.000000000000000E+000                                                        
   4.68200000000000       0.216980000000000      -0.115331000000000             
  0.000000000000000E+000  0.000000000000000E+000  0.000000000000000E+000        
  0.000000000000000E+000  0.000000000000000E+000  0.000000000000000E+000        
  0.000000000000000E+000                                                        
   1.42800000000000       1.759400000000000E-002  0.288979000000000             
   1.00000000000000       0.000000000000000E+000  0.000000000000000E+000        
  0.000000000000000E+000  0.000000000000000E+000  0.000000000000000E+000        
  0.000000000000000E+000                                                        
  0.554700000000000      -2.502000000000000E-003  0.586128000000000             
  0.000000000000000E+000   1.00000000000000       0.000000000000000E+000        
  0.000000000000000E+000  0.000000000000000E+000  0.000000000000000E+000        
  0.000000000000000E+000                                                        
  0.206700000000000       9.540000000000000E-004  0.277624000000000             
  0.000000000000000E+000  0.000000000000000E+000   1.00000000000000             
  0.000000000000000E+000  0.000000000000000E+000  0.000000000000000E+000        
  0.000000000000000E+000                                                        
   12.9740000000000       0.000000000000000E+000  0.000000000000000E+000        
  0.000000000000000E+000  0.000000000000000E+000  0.000000000000000E+000        
   1.00000000000000       0.000000000000000E+000  0.000000000000000E+000        
  0.000000000000000E+000                                                        
   34.9000000000000       0.000000000000000E+000  0.000000000000000E+000        
  0.000000000000000E+000  0.000000000000000E+000  0.000000000000000E+000        
  0.000000000000000E+000   1.00000000000000       0.000000000000000E+000        
  0.000000000000000E+000                                                        
   93.8810000000000       0.000000000000000E+000  0.000000000000000E+000        
  0.000000000000000E+000  0.000000000000000E+000  0.000000000000000E+000        
  0.000000000000000E+000  0.000000000000000E+000   1.00000000000000             
  0.000000000000000E+000                                                        
  6.959000000000000E-002  0.000000000000000E+000  0.000000000000000E+000        
  0.000000000000000E+000  0.000000000000000E+000  0.000000000000000E+000        
  0.000000000000000E+000  0.000000000000000E+000  0.000000000000000E+000        
   1.00000000000000                                                             
   10    8                                                                      
   63.4200000000000       6.044000000000000E-003  0.000000000000000E+000        
  0.000000000000000E+000  0.000000000000000E+000  0.000000000000000E+000        
  0.000000000000000E+000  0.000000000000000E+000  0.000000000000000E+000        
   14.6600000000000       4.179900000000000E-002  0.000000000000000E+000        
  0.000000000000000E+000  0.000000000000000E+000  0.000000000000000E+000        
  0.000000000000000E+000  0.000000000000000E+000  0.000000000000000E+000        
   4.45900000000000       0.161143000000000       0.000000000000000E+000        
  0.000000000000000E+000  0.000000000000000E+000  0.000000000000000E+000        
  0.000000000000000E+000  0.000000000000000E+000  0.000000000000000E+000        
   1.53100000000000       0.356731000000000        1.00000000000000             
  0.000000000000000E+000  0.000000000000000E+000  0.000000000000000E+000        
  0.000000000000000E+000  0.000000000000000E+000  0.000000000000000E+000        
  0.530200000000000       0.448309000000000       0.000000000000000E+000        
   1.00000000000000       0.000000000000000E+000  0.000000000000000E+000        
  0.000000000000000E+000  0.000000000000000E+000  0.000000000000000E+000        
  0.175000000000000       0.244940000000000       0.000000000000000E+000        
  0.000000000000000E+000   1.00000000000000       0.000000000000000E+000        
  0.000000000000000E+000  0.000000000000000E+000  0.000000000000000E+000        
   14.4750000000000       0.000000000000000E+000  0.000000000000000E+000        
  0.000000000000000E+000  0.000000000000000E+000   1.00000000000000             
  0.000000000000000E+000  0.000000000000000E+000  0.000000000000000E+000        
   42.7300000000000       0.000000000000000E+000  0.000000000000000E+000        
  0.000000000000000E+000  0.000000000000000E+000  0.000000000000000E+000        
   1.00000000000000       0.000000000000000E+000  0.000000000000000E+000        
   126.140000000000       0.000000000000000E+000  0.000000000000000E+000        
  0.000000000000000E+000  0.000000000000000E+000  0.000000000000000E+000        
  0.000000000000000E+000   1.00000000000000       0.000000000000000E+000        
  5.348000000000000E-002  0.000000000000000E+000  0.000000000000000E+000        
  0.000000000000000E+000  0.000000000000000E+000  0.000000000000000E+000        
  0.000000000000000E+000  0.000000000000000E+000   1.00000000000000             
    6    6                                                                      
   3.77500000000000        1.00000000000000       0.000000000000000E+000        
  0.000000000000000E+000  0.000000000000000E+000  0.000000000000000E+000        
  0.000000000000000E+000                                                        
   1.30000000000000       0.000000000000000E+000   1.00000000000000             
  0.000000000000000E+000  0.000000000000000E+000  0.000000000000000E+000        
  0.000000000000000E+000                                                        
  0.444000000000000       0.000000000000000E+000  0.000000000000000E+000        
   1.00000000000000       0.000000000000000E+000  0.000000000000000E+000        
  0.000000000000000E+000                                                        
   14.9270000000000       0.000000000000000E+000  0.000000000000000E+000        
  0.000000000000000E+000   1.00000000000000       0.000000000000000E+000        
  0.000000000000000E+000                                                        
   57.5440000000000       0.000000000000000E+000  0.000000000000000E+000        
  0.000000000000000E+000  0.000000000000000E+000   1.00000000000000             
  0.000000000000000E+000                                                        
  0.154000000000000       0.000000000000000E+000  0.000000000000000E+000        
  0.000000000000000E+000  0.000000000000000E+000  0.000000000000000E+000        
   1.00000000000000                                                             
    4    4                                                                      
   2.66600000000000        1.00000000000000       0.000000000000000E+000        
  0.000000000000000E+000  0.000000000000000E+000                                
  0.859000000000000       0.000000000000000E+000   1.00000000000000             
  0.000000000000000E+000  0.000000000000000E+000                                
   26.4830000000000       0.000000000000000E+000  0.000000000000000E+000        
   1.00000000000000       0.000000000000000E+000                                
  0.324000000000000       0.000000000000000E+000  0.000000000000000E+000        
  0.000000000000000E+000   1.00000000000000                                     
    2    2                                                                      
   1.84600000000000        1.00000000000000       0.000000000000000E+000        
  0.714000000000000       0.000000000000000E+000   1.00000000000000             
FINISH                                                                          
 
********************************************************************************
 ONE- AND TWO-ELECTRON INTEGRALS OVER SYMMETRY-ADAPTED AOS ARE CALCULATED.

  SPHERICAL HARMONICS ARE USED.
  
  INTEGRALS LESS THAN  0.10E-13 ARE NEGLECTED.

  NUCLEAR REPULSION ENERGY :   15.4426524780 A.U.
  @MOLECU-I, ONE ELECTRON INTEGRALS (CPU/WALL):        0.05/       0.06 SECONDS.
  @TWOEL-I,    4413362 INTEGRALS OF SYMMETRY TYPE  I I I I
  @TWOEL-I,   19047775 INTEGRALS OF SYMMETRY TYPE  I J I J
  @TWOEL-I,   10029591 INTEGRALS OF SYMMETRY TYPE  I I J J
  @TWOEL-I,   14073034 INTEGRALS OF SYMMETRY TYPE  I J K L
  @TWOEL-I, TOTAL NUMBER OF 2-E INTEGRALS   47563762.
  @MOLECU-I, TWO ELECTRON INTEGRALS (CPU/WALL):      238.94/      32.93 SECONDS.
 @CHECKOUT-I, Total execution time (CPU/WALL):      239.00/      33.01 seconds.

Running with 14 threads/proc

--executable xvmol finished with status     0 in       33.05 seconds (walltime).
 --invoking executable--
/nfs/workspaces/public/cfour_mpi/bin/xvmol2ja
 @GETMEM-I,  Allocated    3814 MB of main memory.
 @CHECKOUT-I, Total execution time (CPU/WALL):        0.24/       0.06 seconds.
--executable xvmol2ja finished with status     0 in        0.11 seconds (walltime).
 --invoking executable--
/nfs/workspaces/public/cfour_mpi/bin/xvprop
 @GETMEM-I,  Allocated    3814 MB of main memory.
   Property integrals will be calculated.
    --------------------------------------------------------------
                                   Property evaluated at 
    Property type                X             Y             Z
    --------------------------------------------------------------
    Dipole moment               ----          ----          ----  
    Quadrupole moment           ----          ----          ----  
    Octopole moment             ----          ----          ----  
    Relativisitic corr.         ----          ----          ----  
    Second moment            0.0000000     0.0000000     0.0000000
    Electron density         0.0000000     0.0000000     1.7144672
    Electron density         0.0000000     0.0000000    -1.3938071
    Field gradient           0.0000000     0.0000000     1.7144672
    Field gradient           0.0000000     0.0000000    -1.3938071
    Potential                0.0000000     0.0000000     1.7144672
    Potential                0.0000000     0.0000000    -1.3938071
    --------------------------------------------------------------
 @CHECKOUT-I, Total execution time (CPU/WALL):        1.43/       1.47 seconds.
--executable xvprop finished with status     0 in        1.50 seconds (walltime).
 --invoking executable--
/nfs/workspaces/public/cfour_mpi/bin/xvscf
  There are  218 functions in the AO basis.

  There are 4 irreducible representations.

       Irrep        # of functions
         1                 86
         2                 52
         3                 52
         4                 28


  Parameters for SCF calculation: 
        SCF reference function:  RHF  
  Maximum number of iterations:  150
     Full symmetry point group: CXv 
     Computational point group: C2v 
        Initial density matrix: MOREAD                 
     SCF convergence tolerance: 10**(-10)
  DIIS convergence acceleration:  ON
          Latest start for DIIS:   8
                     DIIS order:   6

  Memory information:    2523578 words required.
  Fock matrices are constructed from AO integral file.
 @GETMEM-I,  Allocated      19 MB of main memory.
  Initialization and symmetry analysis required      0.001 seconds.

  Adding electric field perturbation to one-electron Hamiltonian.
  Field direction     : Z
  Field strength      :  0.0002000 a.u.

  @INITGES-I, Occupancies from core Hamiltonian:

          Alpha population by irrep:   5    1    1    0
           Beta population by irrep:   5    1    1    0


 total no. of electrons in initial guess :  0.000000000000000E+000
  --------------------------------------------------------------------
  Iteration         Total Energy            Largest Density Difference
  --------------------------------------------------------------------
       0            15.442825208684836              0.0000000000D+00
   current occupation vector 
     5  1  1  0
     5  1  1  0
       1           -93.650062520215599              0.1755569473D+02
   current occupation vector 
     5  1  1  0
     5  1  1  0
       2           -97.884920977291642              0.1755568240D+02
   current occupation vector 
     5  1  1  0
     5  1  1  0
       3          -100.170696468266442              0.6820858464D+01
   current occupation vector 
     5  1  1  0
     5  1  1  0
       4           -94.924018186668548              0.6817680395D+01
   current occupation vector 
     5  1  1  0
     5  1  1  0
       5          -100.128252513214107              0.7010651961D+01
   current occupation vector 
     5  1  1  0
     5  1  1  0
       6           -94.771596790931113              0.7010926407D+01
   current occupation vector 
     5  1  1  0
     5  1  1  0
       7          -100.121930978723171              0.7020563740D+01
   current occupation vector 
     5  1  1  0
     5  1  1  0
       8           -94.767178895035045              0.7020578882D+01
   current occupation vector 
     5  1  1  0
     5  1  1  0
       9          -107.358018529816704              0.5945939895D+01
   current occupation vector 
     5  1  1  0
     5  1  1  0
      10          -110.622402697609900              0.1323180731D+01
   current occupation vector 
     5  1  1  0
     5  1  1  0
      11          -112.360405206601740              0.1024226399D+01
   current occupation vector 
     5  1  1  0
     5  1  1  0
      12          -112.478347892193383              0.5099160211D+00
   current occupation vector 
     5  1  1  0
     5  1  1  0
      13          -112.500623261169721              0.1282888190D+00
   current occupation vector 
     5  1  1  0
     5  1  1  0
      14          -112.507270133744143              0.9062121430D-01
   current occupation vector 
     5  1  1  0
     5  1  1  0
      15          -112.507797412361086              0.2812857604D-01
   current occupation vector 
     5  1  1  0
     5  1  1  0
      16          -112.508295877232683              0.4315945667D-01
   current occupation vector 
     5  1  1  0
     5  1  1  0
      17          -112.508505886232086              0.3200362459D-01
   current occupation vector 
     5  1  1  0
     5  1  1  0
      18          -112.508551050888670              0.1944425123D-01
   current occupation vector 
     5  1  1  0
     5  1  1  0
      19          -112.508551460818452              0.1644064033D-02
   current occupation vector 
     5  1  1  0
     5  1  1  0
      20          -112.508551464615138              0.1410498215D-03
   current occupation vector 
     5  1  1  0
     5  1  1  0
      21          -112.508551464793854              0.1713586507D-04
   current occupation vector 
     5  1  1  0
     5  1  1  0
      22          -112.508551464793968              0.3348324507D-05
   current occupation vector 
     5  1  1  0
     5  1  1  0
      23          -112.508551464794749              0.9480490819D-06
   current occupation vector 
     5  1  1  0
     5  1  1  0
      24          -112.508551464795161              0.1029656224D-06
   current occupation vector 
     5  1  1  0
     5  1  1  0
      25          -112.508551464794181              0.3322888809D-07
   current occupation vector 
     5  1  1  0
     5  1  1  0
      26          -112.508551464794891              0.3328582743D-08
   current occupation vector 
     5  1  1  0
     5  1  1  0
      27          -112.508551464793982              0.5957496496D-08
   current occupation vector 
     5  1  1  0
     5  1  1  0
      28          -112.508551464794380              0.6477976155D-08
   current occupation vector 
     5  1  1  0
     5  1  1  0
      29          -112.508551464794536              0.1047765208D-08
   current occupation vector 
     5  1  1  0
     5  1  1  0
      30          -112.508551464793243              0.1016609019D-09
   current occupation vector 
     5  1  1  0
     5  1  1  0

  SCF has converged.

 Density matrix saved to file den.dat
 total electron number:   14.0000000000002     
     E(SCF)=      -112.508551464794607              0.9582890037D-10

  Eigenvector printing suppressed.

 @PUTMOS-I, Writing converged MOs to NEWMOS. 
 @PUTMOS-I, Symmetry   1 Full Blocks 21 Partial Blocksize   2
 @PUTMOS-I, Symmetry   2 Full Blocks 13 Partial Blocksize   0
 @PUTMOS-I, Symmetry   3 Full Blocks 13 Partial Blocksize   0
 @PUTMOS-I, Symmetry   4 Full Blocks  7 Partial Blocksize   0
 @PUTFOCK-I, Writing converged Fock matrix to NEWFOCK. 
 @PUTFOCK-I, Symmetry   1 Full Blocks 21 Partial Blocksize   2
 @PUTFOCK-I, Symmetry   2 Full Blocks 13 Partial Blocksize   0
 @PUTFOCK-I, Symmetry   3 Full Blocks 13 Partial Blocksize   0
 @PUTFOCK-I, Symmetry   4 Full Blocks  7 Partial Blocksize   0


 
  ORBITAL EIGENVALUES (ALPHA)  (1H = 27.2113834 eV)

       MO #        E(hartree)               E(eV)           FULLSYM    COMPSYM
       ----   --------------------   --------------------   -------   ---------
    1     1         -20.6401102993        -561.6459547734     SG+        A1 (1)
    2     2         -11.5297234977        -313.7397265930     SG+        A1 (1)
    3     3          -1.2619010607         -34.3380735767     SG+        A1 (1)
    4     4          -0.8083496777         -21.9963130024     SG+        A1 (1)
    5     5          -0.5202184530         -14.1558637764     SG+        A1 (1)
    6   139          -0.4900553096         -13.3350829158      PI        B2 (3)
    7    87          -0.4900553096         -13.3350829158      PI        B1 (2)
  +++++++++++++++++++++++++++++++++++++++++++++++++++++++++++++++++++++++++++++
    8   140          -0.0138852900          -0.3778379498      PI        B2 (3)
    9    88          -0.0138852900          -0.3778379498      PI        B1 (2)
   10     6           0.0596946856           1.6243749776     SG+        A1 (1)
   11     7           0.0686054335           1.8668487547     SG+        A1 (1)
   12    89           0.0816445709           2.2216617220      PI        B1 (2)
   13   141           0.0816445709           2.2216617220      PI        B2 (3)
   14     8           0.1563587883           4.2547389354     SG+        A1 (1)
   15   142           0.1807884466           4.9195037342      PI        B2 (3)
   16    90           0.1807884466           4.9195037342      PI        B1 (2)
   17     9           0.1864078134           5.0724144793     SG+        A1 (1)
   18    10           0.2213708680           6.0238075636      DE        A1 (1)
   19   191           0.2213708680           6.0238075636      DE        A2 (4)
   20   143           0.2834018357           7.7117560073      PI        B2 (3)
   21    91           0.2834018357           7.7117560073      PI        B1 (2)
   22    11           0.2992484124           8.1429632803     SG+        A1 (1)
   23    12           0.3043397579           8.2815058356     SG+        A1 (1)
   24   144           0.4067855705          11.0691981191      PI        B2 (3)
   25    92           0.4067855705          11.0691981191      PI        B1 (2)
   26    13           0.4149570349          11.2915549711     SG+        A1 (1)
   27    14           0.5141327924          13.9902645321     SG+        A1 (1)
   28    15           0.5503021222          14.9744820320      DE        A1 (1)
   29   192           0.5503021222          14.9744820320      DE        A2 (4)
   30    93           0.6228943385          16.9498166619      PI        B1 (2)
   31   145           0.6228943385          16.9498166619      PI        B2 (3)
   32    16           0.7013651194          19.0851151679     SG+        A1 (1)
   33   146           0.7293499363          19.8466207487      PH        B2 (3)
   34    94           0.7293499363          19.8466207487      PH        B1 (2)
   35    17           0.7357781599          20.0215416066      DE        A1 (1)
   36   193           0.7357781599          20.0215416066      DE        A2 (4)
   37   147           0.7730281155          21.0351644306      PI        B2 (3)
   38    95           0.7730281155          21.0351644306      PI        B1 (2)
   39    18           0.8150721130          22.1792397651     SG+        A1 (1)
   40    19           0.8550548667          23.2672258050      DE        A1 (1)
   41   194           0.8550548667          23.2672258050      DE        A2 (4)
   42    96           0.8770666591          23.8661971285      PI        B1 (2)
   43   148           0.8770666591          23.8661971285      PI        B2 (3)
   44    20           0.8925246213          24.2868296637     SG+        A1 (1)
   45    97           1.0458292742          28.4584613504      PI        B1 (2)
   46   149           1.0458292742          28.4584613504      PI        B2 (3)
   47    21           1.1391851537          30.9988039812     SG+        A1 (1)
   48    22           1.3479368021          36.6792251201     SG+        A1 (1)
   49   150           1.4196573608          38.6308407409      PH        B2 (3)
   50    98           1.4196573608          38.6308407409      PH        B1 (2)
   51   151           1.4732119147          40.0881342408      PI        B2 (3)
   52    99           1.4732119147          40.0881342408      PI        B1 (2)
   53    23           1.5829897669          43.0753414659     SG+        A1 (1)
   54    24           1.5874132594          43.1957108170      DE        A1 (1)
   55   195           1.5874132594          43.1957108170      DE        A2 (4)
   56   100           1.6395029957          44.6131446001      PI        B1 (2)
   57   152           1.6395029957          44.6131446001      PI        B2 (3)
   58    25           1.6685206583          45.4027553443      DE        A1 (1)
   59   196           1.6685206583          45.4027553443      DE        A2 (4)
   60    26           1.9195979494          52.2349157737     SG+        A1 (1)
   61    27           1.9249878042          52.3815811806     SG+        A1 (1)
   62   101           2.0533008000          55.8731553051      PI        B1 (2)
   63   153           2.0533008000          55.8731553051      PI        B2 (3)
   64   197           2.0632765648          56.1446096648      PI        A2 (4)
   65    28           2.0632765648          56.1446096648      PI        A1 (1)
   66    29           2.1204205870          57.6995775627      DE        A1 (1)
   67   198           2.1204205870          57.6995775627      DE        A2 (4)
   68   154           2.1888653813          59.5620551020      PH        B2 (3)
   69   102           2.1888653813          59.5620551020      PH        B1 (2)
   70   155           2.2038186312          59.9689537173      PH        B2 (3)
   71   103           2.2038186312          59.9689537173      PH        B1 (2)
   72   104           2.2134885463          60.2320854855      PI        B1 (2)
   73   156           2.2134885463          60.2320854855      PI        B2 (3)
   74    30           2.2163257126          60.3092887043     SG+        A1 (1)
   75    31           2.2766304416          61.9502638056      DE        A1 (1)
   76   199           2.2766304416          61.9502638056      DE        A2 (4)
   77    32           2.3770769393          64.6835519656     SG+        A1 (1)
   78   105           2.4930179879          67.8384682928      PI        B1 (2)
   79   157           2.4930179879          67.8384682928      PI        B2 (3)
   80   200           2.6033280997          70.8401590368      DE        A2 (4)
   81    33           2.6033280997          70.8401590368      DE        A1 (1)
   82   106           2.6081919528          70.9725112081      PI        B1 (2)
   83   158           2.6081919528          70.9725112081      PI        B2 (3)
   84    34           2.6526103826          72.1811981322     SG+        A1 (1)
   85    35           2.8562888649          77.7235714046     SG+        A1 (1)
   86   159           3.3350136350          90.7503346659      PI        B2 (3)
   87   107           3.3350136350          90.7503346659      PI        B1 (2)
   88   201           3.7136500523         101.0535553877      PI        A2 (4)
   89    36           3.7136500523         101.0535553877      PI        A1 (1)
   90    37           3.8670954480         105.2290168789     SG+        A1 (1)
   91   160           3.8909103096         105.8770522093      PH        B2 (3)
   92   108           3.8909103096         105.8770522093      PH        B1 (2)
   93    38           4.0847437954         111.1515295073     SG+        A1 (1)
   94   161           4.1440255943         112.7646692651      PH        B2 (3)
   95   109           4.1440255943         112.7646692651      PH        B1 (2)
   96   110           4.1513886227         112.9650274535      PI        B1 (2)
   97   162           4.1513886227         112.9650274535      PI        B2 (3)
   98    39           4.1621291611         113.2572923623      DE        A1 (1)
   99   202           4.1621291611         113.2572923623      DE        A2 (4)
  100    40           4.3023834653         117.0738060068      DE        A1 (1)
  101   203           4.3023834653         117.0738060068      DE        A2 (4)
  102    41           4.3618030094         118.6906940027     SG+        A1 (1)
  103   111           4.5004140838         122.4624930932      PI        B1 (2)
  104   163           4.5004140838         122.4624930932      PI        B2 (3)
  105   204           4.6264147198         125.8911447066      DE        A2 (4)
  106    42           4.6264147198         125.8911447067      DE        A1 (1)
  107    43           4.8369114649         131.6190523426     SG+        A1 (1)
  108   164           5.0969248689         138.6943767696      PI        B2 (3)
  109   112           5.0969248689         138.6943767697      PI        B1 (2)
  110    44           5.1326475013         139.6664390148     SG+        A1 (1)
  111   113           5.3524551642         145.6477096039      PI        B1 (2)
  112   165           5.3524551642         145.6477096039      PI        B2 (3)
  113   205           5.8182958380         158.3238787815      PI        A2 (4)
  114    45           5.8182958380         158.3238787815      PI        A1 (1)
  115   166           5.8888583047         160.2439811164      PH        B2 (3)
  116   114           5.8888583047         160.2439811164      PH        B1 (2)
  117    46           5.9990586512         163.2426849962     SG+        A1 (1)
  118   206           6.0683193965         165.1273656913      DE        A2 (4)
  119    47           6.0683193965         165.1273656913      DE        A1 (1)
  120   167           6.1121376287         166.3197204092      PI        B2 (3)
  121   115           6.1121376287         166.3197204092      PI        B1 (2)
  122    48           6.1630936890         167.7063053017     SG+        A1 (1)
  123    49           6.2734860909         170.7102352741      DE        A1 (1)
  124   207           6.2734860909         170.7102352742      DE        A2 (4)
  125   116           6.3432696415         172.6091422234      PH        B1 (2)
  126   168           6.3432696415         172.6091422234      PH        B2 (3)
  127   208           6.4755992139         176.2100129548      DE        A2 (4)
  128    50           6.4755992139         176.2100129548      DE        A1 (1)
  129   117           6.7403007932         183.4129091148      PI        B1 (2)
  130   169           6.7403007932         183.4129091148      PI        B2 (3)
  131    51           7.0722221313         192.4449479061     SG+        A1 (1)
  132   170           7.1236808790         193.8452116184      PI        B2 (3)
  133   118           7.1236808790         193.8452116184      PI        B1 (2)
  134    52           7.6287748327         207.5895168450     SG+        A1 (1)
  135    53           9.4489950560         257.1202272141     SG+        A1 (1)
  136   171           9.6632173244         262.9495114927      PI        B2 (3)
  137   119           9.6632173244         262.9495114930      PI        B1 (2)
  138    54          10.6658247059         290.2318453496      PI        A1 (1)
  139   209          10.6658247059         290.2318453496      PI        A2 (4)
  140    55          10.6753892440         290.4921096630     SG+        A1 (1)
  141   120          10.7308426128         292.0010725408      PH        B1 (2)
  142   172          10.7308426128         292.0010725408      PH        B2 (3)
  143   210          10.9452234797         297.8346725056      DE        A2 (4)
  144    56          10.9452234797         297.8346725056      DE        A1 (1)
  145   121          10.9830748672         298.8646611216      PI        B1 (2)
  146   173          10.9830748672         298.8646611216      PI        B2 (3)
  147    57          11.1434168452         303.2277881597     SG+        A1 (1)
  148   122          11.9018141603         323.8648282707      PH        B1 (2)
  149   174          11.9018141603         323.8648282707      PH        B2 (3)
  150    58          11.9811252237         326.0229920244      DE        A1 (1)
  151   211          11.9811252237         326.0229920244      DE        A2 (4)
  152   175          12.2705645400         333.8990362322      PI        B2 (3)
  153   123          12.2705645400         333.8990362322      PI        B1 (2)
  154    59          12.5295633420         340.9467519342     SG+        A1 (1)
  155    60          12.7245902698         346.2537044401      DE        A1 (1)
  156   212          12.7245902698         346.2537044401      DE        A2 (4)
  157   124          13.1070886212         356.6620137287      PI        B1 (2)
  158   176          13.1070886212         356.6620137287      PI        B2 (3)
  159    61          13.4047435485         364.7616160775     SG+        A1 (1)
  160    62          17.2767576248         470.1244756362     SG+        A1 (1)
  161   125          18.6886934737         508.5452033578      PI        B1 (2)
  162   177          18.6886934737         508.5452033579      PI        B2 (3)
  163    63          19.5164008749         531.0682667940     SG+        A1 (1)
  164   213          26.2432926810         714.1162988208      DE        A2 (4)
  165    64          26.2432926810         714.1162988208      DE        A1 (1)
  166   178          26.5009489445         721.1274821938      PI        B2 (3)
  167   126          26.5009489445         721.1274821938      PI        B1 (2)
  168    65          26.9453448609         733.2201098552     SG+        A1 (1)
  169   179          33.3792319733         908.2950788221      PI        B2 (3)
  170   127          33.3792319733         908.2950788233      PI        B1 (2)
  171    66          34.2641977703         932.3762224220     SG+        A1 (1)
  172    67          35.5257200195         966.7039880126     SG+        A1 (1)
  173    68          47.0763474025        1281.0125382411      DE        A1 (1)
  174   214          47.0763474025        1281.0125382411      DE        A2 (4)
  175   128          47.2641824320        1286.1237892445      PI        B1 (2)
  176   180          47.2641824320        1286.1237892445      PI        B2 (3)
  177    69          47.4396905426        1290.8996077322     SG+        A1 (1)
  178    70          63.7061139491        1733.5314915939     SG+        A1 (1)
  179   129          66.2787718070        1803.5370709217      PI        B1 (2)
  180   181          66.2787718070        1803.5370709219      PI        B2 (3)
  181    71          66.8934760881        1820.2640247912     SG+        A1 (1)
  182   182          98.4986030498        2680.2832519524      PH        B2 (3)
  183   130          98.4986030498        2680.2832519524      PH        B1 (2)
  184   215          98.5127766061        2680.6689340274      DE        A2 (4)
  185    72          98.5127766061        2680.6689340274      DE        A1 (1)
  186   131          98.5259111441        2681.0263429769      PI        B1 (2)
  187   183          98.5259111441        2681.0263429769      PI        B2 (3)
  188    73          98.5342642616        2681.2536428582     SG+        A1 (1)
  189   216         103.3154388807        2811.3560185209      DE        A2 (4)
  190    74         103.3154388807        2811.3560185225      DE        A1 (1)
  191   132         103.3200273656        2811.4808775438      PH        B1 (2)
  192   184         103.3200273656        2811.4808775438      PH        B2 (3)
  193   133         103.3340282920        2811.8618621188      PI        B1 (2)
  194   185         103.3340282920        2811.8618621189      PI        B2 (3)
  195    75         103.3443511843        2812.1427622991     SG+        A1 (1)
  196   217         114.9487361370        3127.9141303681      DE        A2 (4)
  197    76         114.9487361370        3127.9141303681      DE        A1 (1)
  198   134         115.0744671534        3131.3354452617      PI        B1 (2)
  199   186         115.0744671534        3131.3354452617      PI        B2 (3)
  200    77         115.2692862779        3136.6367431529     SG+        A1 (1)
  201   187         116.6916228815        3175.3404897968      PI        B2 (3)
  202   135         116.6916228815        3175.3404897977      PI        B1 (2)
  203    78         117.4180881504        3195.1086147569     SG+        A1 (1)
  204    79         121.8057120894        3314.5019319734     SG+        A1 (1)
  205    80         198.5597541745        5403.0855986530      DE        A1 (1)
  206   218         198.5597541745        5403.0855986530      DE        A2 (4)
  207   136         198.6621358349        5405.8715452654      PI        B1 (2)
  208   188         198.6621358349        5405.8715452654      PI        B2 (3)
  209    81         198.7529090240        5408.3416093162     SG+        A1 (1)
  210    82         216.2327318129        5883.9917689905     SG+        A1 (1)
  211   137         224.7643035297        6116.1476379806      PI        B1 (2)
  212   189         224.7643035297        6116.1476379808      PI        B2 (3)
  213    83         225.2502053027        6129.3696974199     SG+        A1 (1)
  214   190         395.2328698149       10754.8331528149      PI        B2 (3)
  215   138         395.2328698149       10754.8331528152      PI        B1 (2)
  216    84         395.7911692749       10770.0252534739     SG+        A1 (1)
  217    85         508.5524467232       13838.4156067942     SG+        A1 (1)
  218    86         895.0445541047       24355.4005218243     SG+        A1 (1)


  VSCF finished.

 @CHECKOUT-I, Total execution time (CPU/WALL):       55.67/      12.47 seconds.
--executable xvscf finished with status     0 in       12.50 seconds (walltime).
 --invoking executable--
/nfs/workspaces/public/cfour_mpi/bin/xvtran
 @GETMEM-I,  Allocated    3814 MB of main memory.
  Full RHF integral transformation
  Transformation of IIII integrals :
  1 pass through the AO integral file was required.
     4413362 AO integrals were read.
     8589953 MO integrals were written to HF2.
  Transformation of IIJJ integrals :
  1 pass through the AO integral file was required.
    10029591 AO integrals were read.
    14358676 MO integrals were written to HF2.
  Transformation of IJIJ integrals :
  1 pass through the AO integral file was required.
    19047775 AO integrals were read.
    26710141 MO integrals were written to HF2.
  Transformation of IJKL integrals :
  1 pass through the AO integral file was required.
    14073034 AO integrals were read.
    18082415 MO integrals were written to HF2.
  Summary of active molecular orbitals: 
------------------------------------------------------------------------
 
  Index      Eigenvalue    Symmetry    Index      Eigenvalue    Symmetry
------------------------------------------------------------------------
     1       -20.6401103        1       110         4.1440256        2
     2       -11.5297235        1       111         4.1513886        2
     3        -1.2619011        1       112         4.5004141        2
     4        -0.8083497        1       113         5.0969249        2
     5        -0.5202185        1       114         5.3524552        2
     6        -0.4900553        2       115         5.8888583        2
     7        -0.4900553        3       116         6.1121376        2
     8         0.0596947        1       117         6.3432696        2
     9         0.0686054        1       118         6.7403008        2
    10         0.1563588        1       119         7.1236809        2
    11         0.1864078        1       120         9.6632173        2
    12         0.2213709        1       121        10.7308426        2
    13         0.2992484        1       122        10.9830749        2
    14         0.3043398        1       123        11.9018142        2
    15         0.4149570        1       124        12.2705645        2
    16         0.5141328        1       125        13.1070886        2
    17         0.5503021        1       126        18.6886935        2
    18         0.7013651        1       127        26.5009489        2
    19         0.7357782        1       128        33.3792320        2
    20         0.8150721        1       129        47.2641824        2
    21         0.8550549        1       130        66.2787718        2
    22         0.8925246        1       131        98.4986030        2
    23         1.1391852        1       132        98.5259111        2
    24         1.3479368        1       133       103.3200274        2
    25         1.5829898        1       134       103.3340283        2
    26         1.5874133        1       135       115.0744672        2
    27         1.6685207        1       136       116.6916229        2
    28         1.9195979        1       137       198.6621358        2
    29         1.9249878        1       138       224.7643035        2
    30         2.0632766        1       139       395.2328698        2
    31         2.1204206        1       140        -0.0138853        3
    32         2.2163257        1       141         0.0816446        3
    33         2.2766304        1       142         0.1807884        3
    34         2.3770769        1       143         0.2834018        3
    35         2.6033281        1       144         0.4067856        3
    36         2.6526104        1       145         0.6228943        3
    37         2.8562889        1       146         0.7293499        3
    38         3.7136501        1       147         0.7730281        3
    39         3.8670954        1       148         0.8770667        3
    40         4.0847438        1       149         1.0458293        3
    41         4.1621292        1       150         1.4196574        3
    42         4.3023835        1       151         1.4732119        3
    43         4.3618030        1       152         1.6395030        3
    44         4.6264147        1       153         2.0533008        3
    45         4.8369115        1       154         2.1888654        3
    46         5.1326475        1       155         2.2038186        3
    47         5.8182958        1       156         2.2134885        3
    48         5.9990587        1       157         2.4930180        3
    49         6.0683194        1       158         2.6081920        3
    50         6.1630937        1       159         3.3350136        3
    51         6.2734861        1       160         3.8909103        3
    52         6.4755992        1       161         4.1440256        3
    53         7.0722221        1       162         4.1513886        3
    54         7.6287748        1       163         4.5004141        3
    55         9.4489951        1       164         5.0969249        3
    56        10.6658247        1       165         5.3524552        3
    57        10.6753892        1       166         5.8888583        3
    58        10.9452235        1       167         6.1121376        3
    59        11.1434168        1       168         6.3432696        3
    60        11.9811252        1       169         6.7403008        3
    61        12.5295633        1       170         7.1236809        3
    62        12.7245903        1       171         9.6632173        3
    63        13.4047435        1       172        10.7308426        3
    64        17.2767576        1       173        10.9830749        3
    65        19.5164009        1       174        11.9018142        3
    66        26.2432927        1       175        12.2705645        3
    67        26.9453449        1       176        13.1070886        3
    68        34.2641978        1       177        18.6886935        3
    69        35.5257200        1       178        26.5009489        3
    70        47.0763474        1       179        33.3792320        3
    71        47.4396905        1       180        47.2641824        3
    72        63.7061139        1       181        66.2787718        3
    73        66.8934761        1       182        98.4986030        3
    74        98.5127766        1       183        98.5259111        3
    75        98.5342643        1       184       103.3200274        3
    76       103.3154389        1       185       103.3340283        3
    77       103.3443512        1       186       115.0744672        3
    78       114.9487361        1       187       116.6916229        3
    79       115.2692863        1       188       198.6621358        3
    80       117.4180882        1       189       224.7643035        3
    81       121.8057121        1       190       395.2328698        3
    82       198.5597542        1       191         0.2213709        4
    83       198.7529090        1       192         0.5503021        4
    84       216.2327318        1       193         0.7357782        4
    85       225.2502053        1       194         0.8550549        4
    86       395.7911693        1       195         1.5874133        4
    87       508.5524467        1       196         1.6685207        4
    88       895.0445541        1       197         2.0632766        4
    89        -0.0138853        2       198         2.1204206        4
    90         0.0816446        2       199         2.2766304        4
    91         0.1807884        2       200         2.6033281        4
    92         0.2834018        2       201         3.7136501        4
    93         0.4067856        2       202         4.1621292        4
    94         0.6228943        2       203         4.3023835        4
    95         0.7293499        2       204         4.6264147        4
    96         0.7730281        2       205         5.8182958        4
    97         0.8770667        2       206         6.0683194        4
    98         1.0458293        2       207         6.2734861        4
    99         1.4196574        2       208         6.4755992        4
   100         1.4732119        2       209        10.6658247        4
   101         1.6395030        2       210        10.9452235        4
   102         2.0533008        2       211        11.9811252        4
   103         2.1888654        2       212        12.7245903        4
   104         2.2038186        2       213        26.2432927        4
   105         2.2134885        2       214        47.0763474        4
   106         2.4930180        2       215        98.5127766        4
   107         2.6081920        2       216       103.3154389        4
   108         3.3350136        2       217       114.9487361        4
   109         3.8909103        2       218       198.5597542        4
------------------------------------------------------------------------
  -20.6401102993311       -11.5297234977403       -1.26190106074143     
 -0.808349677745273      -0.520218453001019      -0.490055309565387     
 -0.490055309565412       5.969468563012213E-002  6.860543351367951E-002
  0.156358788262555       0.186407813402491       0.221370868032656     
  0.299248412351938       0.304339757881531       0.414957034897875     
  0.514132792385236       0.550302122162631       0.701365119417812     
  0.735778159908069       0.815072112986854       0.855054866671245     
  0.892524621285381        1.13918515371042        1.34793680207108     
   1.58298976691980        1.58741325944587        1.66852065831698     
   1.91959794935172        1.92498780420820        2.06327656479188     
   2.12042058702310        2.21632571257925        2.27663044156852     
   2.37707693926323        2.60332809969513        2.65261038261498     
   2.85628886492556        3.71365005234286        3.86709544796260     
   4.08474379539608        4.16212916107254        4.30238346525304     
   4.36180300935148        4.62641471975476        4.83691146487432     
   5.13264750129391        5.81829583796631        5.99905865117519     
[...]
 Convergence information after    16 iterations: 
 Largest element of residual vector :  0.10815418E-05.
 Largest element of DIIS residual   :  0.35716141E-06.
 Convergence information after    17 iterations: 
 Largest element of residual vector :  0.49906128E-06.
 Largest element of DIIS residual   :  0.20849741E-06.
 Convergence information after    18 iterations: 
 Largest element of residual vector :  0.88934196E-07.
 Largest element of DIIS residual   : -0.39736328E-07.
 Perturbed amplitude equations converged in    18 iterations.
  Dominant contributions to perturbed wavefunction:
    7    7  140   45  -0.2297172082 ABAB
    7    7   45  140  -0.2297172082 ABAB
    7    7  140   22  -0.2206406520 ABAB
    7    7   22  140  -0.2206406520 ABAB
    7    7  140   28   0.2159492408 ABAB
    7    7   28  140   0.2159492408 ABAB
    7    0   36    0   0.1975572359 AA  
    7    7  140   39  -0.1844458958 ABAB
    7    7   39  140  -0.1844458958 ABAB
    7    0   45    0   0.1700494145 AA  
    7    7  140   32  -0.1689248470 ABAB
    7    7   32  140  -0.1689248470 ABAB
    7    0   22    0   0.1688136592 AA  
    7    0   39    0   0.1580000805 AA  
    7    7  140   57  -0.1567190086 ABAB
    7    7   57  140  -0.1567190086 ABAB
    7    0   28    0  -0.1559876954 AA  
    7    7  140   36  -0.1440055788 ABAB
    7    7   36  140  -0.1440055788 ABAB
    7    6   45   89  -0.1432862950 ABAB
  norm of converged amps    1.61652176531547     
 Starting iterative solution of the perturbed Lambda equations.
 The DIIS procedure is used to accelerate convergence.
 Convergence criterion is 10**(-7).
 Maximum number of iterations is 100.
 Convergence information after     1 iterations: 
 Largest element of residual vector :  0.80303010E-01.
 Largest element of DIIS residual   :  0.80303010E-01.
 Convergence information after     2 iterations: 
 Largest element of residual vector :  0.17470610E-01.
 Largest element of DIIS residual   :  0.13620161E-01.
 Convergence information after     3 iterations: 
 Largest element of residual vector :  0.70571616E-02.
 Largest element of DIIS residual   :  0.62023456E-02.
 Convergence information after     4 iterations: 
 Largest element of residual vector :  0.35734107E-02.
 Largest element of DIIS residual   :  0.32953344E-02.
 Convergence information after     5 iterations: 
 Largest element of residual vector :  0.32752988E-02.
 Largest element of DIIS residual   :  0.27548036E-02.
 Convergence information after     6 iterations: 
 Largest element of residual vector :  0.18165097E-02.
 Largest element of DIIS residual   :  0.81715711E-03.
 Convergence information after     7 iterations: 
 Largest element of residual vector :  0.87800790E-03.
 Largest element of DIIS residual   :  0.44047922E-03.
 Convergence information after     8 iterations: 
 Largest element of residual vector :  0.32621353E-03.
 Largest element of DIIS residual   : -0.20035667E-03.
 Convergence information after     9 iterations: 
 Largest element of residual vector :  0.14434052E-03.
 Largest element of DIIS residual   : -0.89290823E-04.
 Convergence information after    10 iterations: 
 Largest element of residual vector : -0.78764823E-04.
 Largest element of DIIS residual   : -0.42599748E-04.
 Convergence information after    11 iterations: 
 Largest element of residual vector : -0.21841149E-04.
 Largest element of DIIS residual   : -0.77169059E-05.
 Convergence information after    12 iterations: 
 Largest element of residual vector :  0.91460842E-05.
 Largest element of DIIS residual   :  0.54436984E-05.
 Convergence information after    13 iterations: 
 Largest element of residual vector :  0.23819085E-05.
 Largest element of DIIS residual   :  0.20132318E-05.
 Convergence information after    14 iterations: 
 Largest element of residual vector :  0.25829558E-05.
 Largest element of DIIS residual   :  0.15530766E-05.
 Convergence information after    15 iterations: 
 Largest element of residual vector :  0.14109233E-05.
 Largest element of DIIS residual   :  0.69828197E-06.
 Convergence information after    16 iterations: 
 Largest element of residual vector :  0.65908316E-06.
 Largest element of DIIS residual   :  0.21140131E-06.
 Convergence information after    17 iterations: 
 Largest element of residual vector :  0.30410681E-06.
 Largest element of DIIS residual   :  0.13093199E-06.
 Convergence information after    18 iterations: 
 Largest element of residual vector :  0.62611346E-07.
 Largest element of DIIS residual   : -0.29094507E-07.
 Perturbed Lambda equations converged in    18 iterations.
  Dominant contributions to perturbed wavefunction:
    7    7  140   45  -0.1817299579 ABAB
    7    7   45  140  -0.1817299579 ABAB
    7    7  140   22  -0.1733803664 ABAB
    7    7   22  140  -0.1733803664 ABAB
    7    7  140   28   0.1707047908 ABAB
    7    7   28  140   0.1707047908 ABAB
    7    7  140   39  -0.1438188645 ABAB
    7    7   39  140  -0.1438188645 ABAB
    7    7  140   32  -0.1335190109 ABAB
    7    7   32  140  -0.1335190109 ABAB
    7    7  140   57  -0.1226947886 ABAB
    7    7   57  140  -0.1226947886 ABAB
    7    6   45   89  -0.1127014227 ABAB
    6    7   89   45  -0.1127014227 ABAB
    7    6   22   89  -0.1067483768 ABAB
    6    7   89   22  -0.1067483768 ABAB
    7    7  140   16   0.1061619749 ABAB
    7    7   16  140   0.1061619749 ABAB
    7    7  140   36  -0.1058597412 ABAB
    7    7   36  140  -0.1058597412 ABAB
        The DBOC first-order density matrix is being calculated 
             (Symmetry block 3, perturbation   2)
 term   2.71509515160808     
 final tnorm  0.767074171174582     
  norm contr. I: |<0|L dT/dx|0>|^2   0.000000000000000E+000
  norm contr. II: <0|[nabla(1+L)e-T][nabla e^T]|0>   2.71509515160808     
  total norm contribution   2.71509515160808     
 oo  1.026879750817920E-002
 vv  -20.3017751324225     
 vo  4.980662057995702E-002
  Correlated perturbed 1-el contribution to DBOC  -20.2416997143344       cm**-1
  SUM_I |dc_I/dx|^2 contribution to DBOC   10.2215448023021       cm**-1
 
 
  The total diagonal Born-Oppenheimer correction (DBOC) is:      0.0040095412 a.u.
  The total diagonal Born-Oppenheimer correction (DBOC) is:        879.992574 cm-1
 
 Total CC energy including DBOC  -113.056294578607     
 First-order density matrix is being calculated  (Symmetry block 3, perturbation   2)
 Calculation of the contributions of <pq||rs> to dI(i,j)/dx required   3.2 seconds.
 Calculation of the contributions of <pq||rs> to dI(a,b)/dx required  16.8 seconds.
 Calculation of the contributions of <pq||rs> to dI(i,a)/dx required   9.5 seconds.
 First-order Z-vector equations are solved for 1 perturbation.
 Convergence reached after  19 iterations.
        U*G(pq,rs) contribution is being calculated
             (Symmetry block 3, perturbation   2)

 CCSD contribution to force constants 

        0.0000000000        0.0000000000        0.0000000000
        0.0000000000        0.0000000000        0.0000000000
        0.0000000000        0.0000000000        0.0000000000
        0.0000000000        0.0000000000        0.0000000000
        0.0000000000        0.0000000000        0.0000000000
        0.0000000000        0.0000000000        0.0000000000
        0.0000000000        0.0000000000        0.0000000000
        0.0000000000        0.0000000000        0.0000000000
        0.0000000000        0.0000000000        0.0000000000
        0.0000000000        0.0000000000        0.0000000000
        0.0000000000        0.0000000000        0.0000000000
        0.0000000000       -6.1760733628        6.1760733628

 CCSD contribution to dipole derivatives 

        0.0000000000        0.0000000000        0.0000000000
        0.0000000000        0.0000000000        0.0000000000
        0.0000000000        0.0000000000        0.0000000000
        0.0000000000        0.0000000000       -0.0573550888
        0.0000000000        0.0000000000        0.0000000000
        0.0000000000        0.0000000000        0.0000000000
 @CHECKOUT-I, Total execution time (CPU/WALL):     1409.77/     530.11 seconds.
--executable xsdcc finished with status     0 in      530.35 seconds (walltime).
 --invoking executable--
/nfs/workspaces/public/cfour_mpi/bin/xanti
 @GETMEM-I,  Allocated    3814 MB of main memory.
 CCSD MO derivative gammas will be sorted to Mulliken order.
 @CHECKOUT-I, Total execution time (CPU/WALL):       26.37/      68.76 seconds.
--executable xanti finished with status     0 in       68.90 seconds (walltime).
 --invoking executable--
/nfs/workspaces/public/cfour_mpi/bin/xbcktrn
 @GETMEM-I,  Allocated    3814 MB of main memory.
 CCSD MO derivative gammas will be transformed to the AO basis.
 @CHECKOUT-I, Total execution time (CPU/WALL):       30.51/       5.26 seconds.
--executable xbcktrn finished with status     0 in        5.32 seconds (walltime).
 --invoking executable--
/nfs/workspaces/public/cfour_mpi/bin/xvdint
 @GETMEM-I,  Allocated    3814 MB of main memory.
 One- and two-electron integral derivatives are calculated
 for RHF-CC/MBPT hessians and dipole derivatives.
 Spherical gaussians are used.
  magnet F F
                    8722  records have been written to the Sort file.
  Total length of Sort file :             178609116  words.
 Evaluation of 2el integral derivatives

                      Two-electron integral gradient
                      ------------------------------

                         C #1 z     0.0000000000
                         O #2 z     0.0000000000


 C #1       0.0000000000            0.0802120953            0.0000000000
 O #2       0.0000000000           -0.0802120953            0.0000000000


 Evaluation of 2e integral derivatives required  361.16 seconds.
  contribution to Hessian
        0.0000000000        0.0000000000        0.0000000000
        0.0000000000        0.0802120953       -0.0802120953
 @CHECKOUT-I, Total execution time (CPU/WALL):      361.15/      77.48 seconds.
--executable xvdint finished with status     0 in       77.65 seconds (walltime).
 --invoking executable--
/nfs/workspaces/public/cfour_mpi/bin/xanti
 @GETMEM-I,  Allocated    3814 MB of main memory.
 CCSD MO gammas will be sorted to Mulliken order.
 @CHECKOUT-I, Total execution time (CPU/WALL):       18.10/      59.45 seconds.
--executable xanti finished with status     0 in       59.66 seconds (walltime).
 --invoking executable--
/nfs/workspaces/public/cfour_mpi/bin/xbcktrn
 @GETMEM-I,  Allocated    3814 MB of main memory.
 CCSD MO gammas will be transformed to the AO basis.
 @CHECKOUT-I, Total execution time (CPU/WALL):       46.37/      10.63 seconds.
--executable xbcktrn finished with status     0 in       10.76 seconds (walltime).
 --invoking executable--
/nfs/workspaces/public/cfour_mpi/bin/xvdint
 @GETMEM-I,  Allocated    3814 MB of main memory.
 One- and two-electron integral derivatives are calculated
 for RHF-CC/MBPT hessians and dipole derivatives.
 Spherical gaussians are used.
  magnet F F

                     Kinetic energy integral gradient
                     --------------------------------

                         C #1 z    -0.4801095822
                         O #2 z     0.4801095822


 C #1       0.0000000000            0.0000000000           -0.4801095822
 O #2       0.0000000000            0.0000000000            0.4801095822



                   Nuclear attraction integral gradient
                   ------------------------------------

                         C #1 z    13.0118854144
                         O #2 z   -13.0118854144


 C #1       0.0000000000            0.0000000000           13.0118854144
 O #2       0.0000000000            0.0000000000          -13.0118854144



                      Reorthonormalization gradient
                      -----------------------------

                         C #1 z     0.0000000000
                         O #2 z     0.0000000000


 C #1       0.0000000000            0.0000000000            0.0000000000
 O #2       0.0000000000            0.0000000000            0.0000000000



                     Kinetic energy integral Hessian
                     -------------------------------


           Symmetry 1

           C #1 z      O #2 z

 C #1 z    0.506632
 O #2 z   -0.506632    0.506632


           Symmetry 2

           C #1 x      O #2 x

 C #1 x   -0.349443
 O #2 x    0.349443   -0.349443


           Symmetry 3

           C #1 y      O #2 y

 C #1 y   -0.349443
 O #2 y    0.349443   -0.349443




           C #1 x      C #1 y      C #1 z      O #2 x      O #2 y      O #2 z

 C #1 x   -0.349443
 C #1 y    0.000000   -0.349443
 C #1 z    0.000000    0.000000    0.506632

 O #2 x    0.349443    0.000000    0.000000   -0.349443
 O #2 y    0.000000    0.349443    0.000000    0.000000   -0.349443
 O #2 z    0.000000    0.000000   -0.506632    0.000000    0.000000    0.506632




                   Nuclear attraction integral Hessian
                   -----------------------------------


           Symmetry 1

           C #1 z      O #2 z

 C #1 z   -7.834990
 O #2 z    7.834990   -7.834990


           Symmetry 2

           C #1 x      O #2 x

 C #1 x    6.658816
 O #2 x   -6.658816    6.658816


           Symmetry 3

           C #1 y      O #2 y

 C #1 y    6.658816
 O #2 y   -6.658816    6.658816




           C #1 x      C #1 y      C #1 z      O #2 x      O #2 y      O #2 z

 C #1 x    6.658816
 C #1 y    0.000000    6.658816
 C #1 z    0.000000    0.000000   -7.834990

 O #2 x   -6.658816    0.000000    0.000000    6.658816
 O #2 y    0.000000   -6.658816    0.000000    0.000000    6.658816
 O #2 z    0.000000    0.000000    7.834990    0.000000    0.000000   -7.834990




                Highest order reorthonormalization Hessian
                ------------------------------------------


           Symmetry 1

           C #1 z      O #2 z

 C #1 z    0.000000
 O #2 z    0.000000    0.000000


           Symmetry 2

           C #1 x      O #2 x

 C #1 x    0.000000
 O #2 x    0.000000    0.000000


           Symmetry 3

           C #1 y      O #2 y

 C #1 y    0.000000
 O #2 y    0.000000    0.000000




           C #1 x      C #1 y      C #1 z      O #2 x      O #2 y      O #2 z




                Electronic contributions to dipole moment
                -----------------------------------------

                               au             Debye

                    z      1.38963500      3.53210046

  Conversion factor used: 1 a.u. =   2.54174691 Debye 



   Electronic contributions to static part of dipole moment derivatives
   --------------------------------------------------------------------


                     Total dipole moment derivatives
                     -------------------------------


           Symmetry 1
                              Ez

               C #1 z    -5.68516354
               O #2 z    -8.31483646

           Symmetry 2
                              Ex

               C #1 x    -5.67698733
               O #2 x    -8.32301267

           Symmetry 3
                              Ey

               C #1 y    -5.67698733
               O #2 y    -8.32301267



                       Ex          Ey          Ez

      C #1    x   -5.676987    0.000000    0.000000
      C #1    y    0.000000   -5.676987    0.000000
      C #1    z    0.000000    0.000000   -5.685164

      O #2    x   -8.323013    0.000000    0.000000
      O #2    y    0.000000   -8.323013    0.000000
      O #2    z    0.000000    0.000000   -8.314836

 Evaluation of 1e integral derivatives required    1.65 seconds.
                    8815  records have been written to the Sort file.
  Total length of Sort file :             180513570  words.
 Evaluation of 2el integral derivatives

                      Two-electron integral gradient
                      ------------------------------

                         C #1 z    -7.0036598762
                         O #2 z     7.0036598762


 C #1       0.0000000000            0.0000000000           -7.0036598762
 O #2       0.0000000000            0.0000000000            7.0036598762


 Evaluation of 2e integral derivatives required  723.51 seconds.

                            Molecular gradient
                            ------------------

                         C #1 z     0.5598760486
                         O #2 z    -0.5598760486


 C #1       0.0000000000            0.0000000000            0.5598760486
 O #2       0.0000000000            0.0000000000           -0.5598760486


  Molecular gradient norm 0.792E+00

                            Molecular hessian
                            -----------------


           Symmetry 1

           C #1 z      O #2 z

 C #1 z   12.841342
 O #2 z  -12.841342   12.841342


           Symmetry 2

           C #1 x      O #2 x

 C #1 x    6.338606
 O #2 x   -6.338606    6.338606


           Symmetry 3

           C #1 y      O #2 y

 C #1 y    6.338606
 O #2 y   -6.338606    6.338606




           C #1 x      C #1 y      C #1 z      O #2 x      O #2 y      O #2 z

 C #1 x    6.338606
 C #1 y    0.000000    6.338606
 C #1 z    0.000000    0.000000   12.841342

 O #2 x   -6.338606    0.000000    0.000000    6.338606
 O #2 y    0.000000   -6.338606    0.000000    0.000000    6.338606
 O #2 z    0.000000    0.000000  -12.841342    0.000000    0.000000   12.841342




                           Total dipole moment
                           -------------------

                               au             Debye

                    z      0.52598151      1.33691187

  Conversion factor used: 1 a.u. =   2.54174691 Debye 



                     Total dipole moment derivatives
                     -------------------------------


           Symmetry 1
                              Ez

               C #1 z     0.55414103
               O #2 z    -0.55414103

           Symmetry 2
                              Ex

               C #1 x     0.17789525
               O #2 x    -0.17789525

           Symmetry 3
                              Ey

               C #1 y     0.17789525
               O #2 y    -0.17789525



                       Ex          Ey          Ez

      C #1    x    0.177895    0.000000    0.000000
      C #1    y    0.000000    0.177895    0.000000
      C #1    z    0.000000    0.000000    0.554141

      O #2    x   -0.177895    0.000000    0.000000
      O #2    y    0.000000   -0.177895    0.000000
      O #2    z    0.000000    0.000000   -0.554141

 @CHECKOUT-I, Total execution time (CPU/WALL):      725.14/     124.26 seconds.
--executable xvdint finished with status     0 in      124.45 seconds (walltime).
 --invoking executable--
/nfs/workspaces/public/cfour_mpi/bin/xjoda
  @GTFLGS-I, Hessian will be transformed to curvilinear coordinates.
  @GTFLGS-I, Hessian will be transformed to curvilinear coordinates.
  igrd and ihes are                      0                     1
  gradient from JOBARC 
   0.000000000000000   0.000000000000000   0.559876048555380
   0.000000000000000   0.000000000000000  -0.559876048555380
 
  @PROJFCM-I, Projecting force constant matrix onto totally symmetric subspace.
  Largest difference between matrix elements of symmetrized
  and unsymmetrized FCM :     0.2753353101E-12.
  read isotopes from ZMAT file 
 
  Summary of diagonal Born-Oppenheimer correction at the correlated level
  The total diagonal Born-Oppenheimer correction (DBOC) is:      0.0040095412 a.u.
  The total diagonal Born-Oppenheimer correction (DBOC) is:        879.992574 cm-1
  The total diagonal Born-Oppenheimer correction (DBOC) is:            10.527 kJ/mole
  hellooooooo 
  readis is  F
 
 @CHECKOUT-I, Total execution time (CPU/WALL):        0.01/       0.10 seconds.
--executable xjoda finished with status     0 in        0.15 seconds (walltime).
  The final electronic energy is      -113.056294578606682 a.u. 
  This computation required                         4678.69 seconds (walltime).
