 --invoking executable--
/nfs/workspaces/public/cfour_mpi/bin/xjoda


   *************************************************************************
         <<<     CCCCCC     CCCCCC   |||     CCCCCC     CCCCCC   >>>
       <<<      CCC        CCC       |||    CCC        CCC         >>>
      <<<      CCC        CCC        |||   CCC        CCC            >>>
    <<<        CCC        CCC        |||   CCC        CCC              >>>
      <<<      CCC        CCC        |||   CCC        CCC            >>>
       <<<      CCC        CCC       |||    CCC        CCC         >>>
         <<<     CCCCCC     CCCCCC   |||     CCCCCC     CCCCCC   >>>
   *************************************************************************

     ****************************************************************
     * CFOUR Coupled-Cluster techniques for Computational Chemistry *
     ****************************************************************
 

   Department of Chemistry                Institut fuer Physikalische Chemie
   University of Florida                  Universitaet Mainz
   Gainesville, FL 32611, USA             D-55099 Mainz, Germany

   Department of Chemistry                Fakultaet fuer Chemie und Biowiss.
   Johns Hopkins University               Karlsruher Institut fuer Technologie
   Baltimore, MD 21218, USA               D-76131 Karlsruhe, Germany

   Department of Chemistry                Department of Physical Chemistry
   Southern Methodist University          Eotvos Lorand University
   Dallas, TX 75275, USA                  H-1053 Budapest, Hungary

 
                       Version 2.1
 
                     vincent.theory.phys.ucl.ac.uk                     
                     Fri 28 Feb 21:05:31 GMT 2025                      
                     integer*8 version is running
 
********************************************************************************
*                          Input from ZMAT file                                *
********************************************************************************
Carbon Monoxide DBOC calculation                                                
C                                                                               
O 1 r                                                                           
                                                                                
r=1.7379310344827585                                                            
                                                                                
                                                                                
*CFOUR(CALC=CCSD,BASIS=AUG-PCVQZ,SCF_CONV=10                                    
CC_CONV=14,DBOC=ON,MEMORY=500000000                                             
ZFIELD=200)                                                                     
                                                                                
%isotopes                                                                       
13                                                                              
16                                                                              
********************************************************************************
  @GTFLGS-I, Hessian will be transformed to curvilinear coordinates.
    -------------------------------------------------------------------
                    CFOUR Control Parameters 
    -------------------------------------------------------------------
        External           Internal           Value            Units
          Name               Name
    -------------------------------------------------------------------
       ABCDTYPE             IABCDT         STANDARD    [  0]    ***   
       ANHARMONIC           IANHAR         OFF         [  0]    ***   
       ANH_ALGORIT          IANALG         STANDARD    [  0]    ***   
       ANH_DERIVAT          IANDER         SECOND      [  1]    ***   
       ANH_MODE             ANHMOD         VIBRATION   [  0]    ***   
       ANH_STEPSIZ          ICUBST             50000          x 10-6  
       ANH_SYMMETR          IANHSM         ABELIAN     [  0]    ***   
       AO_LADDERS           IAOLAD         SINGLEPASS  [  1]    ***   
       AV_SCF               IAVSCF         OFF         [  0]    ***   
       BASIS                IBASIS         AUG-PCVQZ   [ 52]    ***   
       BOTHVECTORS          BOTHVC         OFF         [  0]    ***   
       BOX_POTENT           IPIAB          OFF         [  0]    ***   
       BREIT                IBREIT         OFF         [  0]    ***   
       BRUCK_CONV           IBRTOL          10D-  4             ***   
       BRUECKNER            IBRKNR         OFF         [  0]    ***   
       BUFFERSIZE           IBUFFS              4096            ***   
       CACHE_RECS           ICHREC             10               ***   
       CALCLEVEL            ICLLVL         CCSD        [ 10]    ***   
       CCORBOPT             ICCORB         OFF         [  0]  x 0.01  
       CC_CONV              ICCCNV          10D- 14             ***   
       CC_EXPORDER          ICCEOR              5               ***   
       CC_EXTRAPOL          ICCEXT         DIIS        [  1]    ***   
       CC_GUESS             ICCGES         MP2         [  0]    ***   
       CC_MAXCYC            ICCCYC            100              cycles 
       CC_PROGRAM           ICCPRO         VCC         [  0]    ***   
       CHARGE               ICHRGE              0               ***   
       CHOLESKY             ICHOLE         OFF         [  0]    ***   
       CIS_CONV             ICISTL              5               ***   
       COMM_SIZE            IPSIZE            ***               ***   
       CONSTANT             ICONST         OLD         [  1]    ***   
       CONTINUUM            ICONTU         NONE        [  0]    ***   
       CONTRACTION          ICNTYP         GENERAL     [  1]    ***   
       COORDINATES          ICOORD         INTERNAL    [  0]    ***   
       CPHF_CONVER          ICPHFT          10D- 16             ***   
       CPHF_MAXCYC          ICPHFC             64              cycles 
       CUBIC                ICUBIC         OFF         [  0]    ***   
       CURVILINEAR          ICURVY         ON          [  1]    ***   
       DBOC                 IDBOC          ON          [  1]    ***   
       DCT                  IDCT           OFF         [  0]    ***   
       DERIV_LEV            IDRLVL         SECOND      [  2]    ***   
       DEVMEM_SIZE          IDVMEM          50000000           MByte  
       DIAG_MRCC            IEOMST          10D-  0             ***   
       DIFF_TYPE            IDIFTY         RELAXED     [  0]    ***   
       DIRECT               IDIRCT         OFF         [  0]    ***   
       DROPMO               IDRPMO      NONE         
       ECP                  IECP           OFF         [  0]    ***   
       EIGENVECTOR          IVEC                1               ***   
       EL_ANHARM            IELANH         OFF         [  0]    ***   
       EOMFOLLOW            IEOMSR         ENERGY      [  0]    ***   
       EOMIP                IEOMIP         OFF         [  0]    ***   
       EOMLEVEL             HBARFM         SAME        [  0]    ***   
       EOM_MRCC             IMRCCE         NEW         [  1]    ***   
       EOM_NONIT            EOMNON         OFF         [  0]    ***   
       EOM_NSING            IEOMSI          10D-  0             ***   
       EOM_NSTATES          IMRCCD         DAVIDSON    [  0]    ***   
       EOM_NTRIP            IEOMTR          10D-  0             ***   
       EOM_ORDER            IEXORD         ENERGY      [  0]    ***   
       EOM_PROPSTA          IEOMST              0               ***   
       ESTATE_CONV          IEXTOL          10D-  5             ***   
       ESTATE_DIAG          IEXDIG         ITERATIVE   [  0]    ***   
       ESTATE_LOCK          IESLOC         ON          [  1]    ***   
       ESTATE_MAXC          IEXMXC             40               ***   
       ESTATE_PROP          IEXPRP         OFF         [  0]    ***   
       EVAL_HESS            IRECAL              0            # of cyc.
       EXCITATION           IEXCIT              0               ***   
       EXCITE               IEXCIT         NONE        [  0]    ***   
       EXTERN_POT           IEXPOT         OFF         [  0]    ***   
       FCGRADNEW            IFCGNW         OFF         [  0]    ***   
       FC_FIELD             IFINFC              0             x 10-6  
       FD_CALTYPE           IFDCAL         GRADONLY    [  0]    ***   
       FD_PROJECT           IFDPRJ         OFF         [  1]    ***   
       FD_STEPSIZE          IDISFD              0            10-4 bohr
       FD_USEGROUP          IFDGRP         FULL        [  0]    ***   
       FILE_RECSIZ          IFLREC              4096           words  
       FINITE_PERT          IFIPER              0             x 10-6  
       FIXGEOM              IFIXGM         OFF         [  0]    ***   
       FOCK                 IFOCK          AO          [  1]    ***   
       FREQ_ALGORI          IVIALG         STANDARD    [  0]    ***   
       FROZEN_CORE          IFROCO         OFF         [  0]    ***   
       GAMMA_ABCD           IGABCD         STORE       [  0]    ***   
       GAMMA_ABCI           IGABCI         STORE       [  0]    ***   
       GENBAS_1             IGNBS1              0               ***   
       GENBAS_2             IGNBS2              0               ***   
       GENBAS_3             IGNBS3              0               ***   
       GENBAS_4             IGNBS4              0               ***   
       GEO_CONV             ICONTL              5              H/bohr 
       GEO_MAXCYC           IOPTCY             50               ***   
       GEO_MAXSTEP          IMXSTP            300            millibohr
       GEO_METHOD           INR            SINGLE_POINT[  5]    ***   
       GIAO                 IGIAO          OFF         [  1]    ***   
       GIMIC                IGIMIC         OFF         [  0]    ***   
       GRID                 IGRID          OFF         [  0]    ***   
       GRID_ALGO            IGALGO         SERIAL      [  0]    ***   
       GUESS                IGUESS         MOREAD      [  0]    ***   
       HBAR                 IHBAR          OFF         [  0]    ***   
       HESS_TYPE            IHESTP         SCF         [  0]    ***   
       HF2_FILE             IHF2Fl         USE         [  1]    ***   
       HFSTABILITY          ISTABL         OFF         [  0]    ***   
       INCORE               INCORE         OFF         [  0]    ***   
       INPUT_MRCC           IMRCC          ON          [  1]    ***   
       INTEGRALS            INTTYP         VMOL        [  1]    ***   
       JODA_PRINT           IJPRNT              0               ***   
       KEYWORD_OUT          IDMPKW         NO          [  0]    ***   
       LINDEP_TOL           ILINDP              8               ***   
       LINEQ_CONV           IZTACN          10D-  7           cycles  
       LINEQ_EXPOR          ILMAXD              5               ***   
       LINEQ_MAXCY          ILMAXC            100               ***   
       LINEQ_TYPE           ILTYPE         DIIS        [  1]    ***   
       LOCK_ORBOCC          ILOCOC         OFF         [  0]    ***   
       MEMORY_SIZE          IMEMSZ         500000000           words  
       MEM_UNIT             IMEMU          INTEGERWORDS[  0]    ***   
       MRCC                 IMRCCC         OFF         [  0]    ***   
       MULTIPLICTY          IMULTP              1               ***   
       NACOUPLING           IVCOUP         OFF         [  0]    ***   
       NEGEVAL              IDIE           ABORT       [  0]    ***   
       NEWNORM              INEWNO         OFF         [  0]    ***   
       NON-HF               INONHF         OFF         [  0]    ***   
       NTOP_TAMP            ITOPT2             15               ***   
       NUC_MODEL            INUCMO         POINT       [  0]    ***   
       OCCUPATION           IOCCU   ESTIMATED BY SCF 
       OPEN-SHELL           IOPEN          SPIN-ORBITAL[  0]    ***   
       OPTVIB               IOPTVB         OFF         [  0]    ***   
       ORBITALS             IORBTP         STANDARD    [  0]    ***   
       PARALLEL             IPARAL         ON          [  1]    ***   
       PARA_INT             IPINTS         ON          [  1]    ***   
       PARA_PRINT           IPPRIN              0               ***   
       PERT_ORB             IPTORB         STANDARD    [  0]    ***   
       POINTS               IGRDFD              0               ***   
       PRINT                IPRNT               0               ***   
       PROPS                IPROPS         OFF         [  0]    ***   
       PROP_INTEGR          IINTYP         INTERNAL    [  0]    ***   
       PSI                  IPSI           OFF         [  0]    ***   
       QC_ALG               IQCALG         FLM         [  0]    ***   
       QC_LINALG            IQCLIN         TRIDIAG     [  2]    ***   
       QC_MAXCYC            IQCMAX          10D-100           cycles  
       QC_MAXSCFCY          IQCMSC          10D- 15           cycles  
       QC_RTRUST            IQCRTR          10D-  0           x 10-3  
       QC_SKIPSCF           IQCSKI         OFF         [  0]    ***   
       QC_START             IQCSTA          10D-  1             ***   
       QRHFGUESS            IQGUES         OFF         [  0]    ***   
       QUARTIC              IQUART         OFF         [  0]    ***   
       RAMAN_INT            IRAMIN         OFF         [  0]    ***   
       RAMAN_ORB            IRAMRE         UNRELAXED   [  0]    ***   
       RDO                  IRDOFM         ON          [  1]    ***   
       REDUCE_REPR          REDREP         Ir          [  0]    ***   
       REFERENCE            IREFNC         RHF         [  0]    ***   
       RELATIVIST           IRELAT         OFF         [  0]    ***   
       RELAX_DENS           IRDENS         ON          [  1]    ***   
       RESET_FLAGS          IRESET         OFF         [  0]    ***   
       RESTART_CC           ICCRES         OFF         [  0]    ***   
       ROT_EVEC             ROTVEC              0               ***   
       SAVE_INTS            ISVINT         OFF         [  0]    ***   
       SCALE_ON             ISTCRT              0               ***   
       SCF_CONV             ISCFCV          10D- 10             ***   
       SCF_DAMPING          IDAMP               0             x 10-3  
       SCF_EXPORDE          IRPPOR              6               ***   
       SCF_EXPSTAR          IRPPLS              8               ***   
       SCF_EXTRAPO          IRPP           ON          [  1]    ***   
       SCF_MAXCYC           ISCFCY            150              cycles 
       SCF_NOSTOP           ISCFST         OFF         [  0]    ***   
       SCF_PRINT            ISCFPR              0               ***   
       SCF_PROG             ISCFPR         SCF         [  0]    ***   
       SD_FIELD             IFINSD              0             x 10-6  
       SOPERT               IPERSO         OFF         [  0]    ***   
       SPHERICAL            IDFGHI         ON          [  1]    ***   
       SPINORBIT            ISOCAL         OFF         [  0]    ***   
       SPINROTATIO          ISRCON         OFF         [  0]    ***   
       SPIN_FLIP            ISPFLP         OFF         [  0]    ***   
       SPIN_ORBIT           ISPORB         OFF         [  0]    ***   
       SPIN_SCAL            ISCSMP         OFF         [  0]    ***   
       STEEPSCALE           ISTPSC              1000          x 10-3  
       SUBGROUP             ISUBGP         DEFAULT     [  0]    ***   
       SUBGRPAXIS           ISBXYZ         X           [  0]    ***   
       SYMMETRY             ISYM           ON          [  0]    ***   
       SYM_CHECK            ISYMCK         OVERRIDE    [  1]    ***   
       T3_EXTRAPOL          IT3EXT         OFF         [  0]    ***   
       T4_EXTRAPOL          IT4EXP         OFF         [  0]    ***   
       TAMP_SUM             IEVERY              5               ***   
       TESTSUITE            ITESTS         OFF         [  0]    ***   
       THERMOCH             ITHERM         OFF         [  0]    ***   
       TOL_CHOLESK          ITOLCH          10D-  4             ***   
       TRANGRAD             IRESRM         OFF         [  0]    ***   
       TRANS_INV            ITRAIN         IGNORE      [  1]    ***   
       TREAT_PERT           ITREAT         SIMULTANEOUS[  0]    ***   
       TRIP_ALGORI          ITRALG         NORMAL      [  0]    ***   
       UIJ_THRESHO          IUIJTH              1               ***   
       UNITS                IUNITS         ANGSTROM    [  0]    ***   
       UNOS                 IUNOS          OFF         [  0]    ***   
       UPDATE_HESS          IHUPDT         ON          [  1]    ***   
       VIBPHASE             ISETPH         STANDARD    [  0]    ***   
       VIBRATION            IVIB           ANALYTIC    [  1]    ***   
       VIB_ALGORIT          IGEALG         STANDARD    [  0]    ***   
       VNATORB              IVNORB         OFF         [  0]    ***   
       VTRAN                IVTRAN         FULL/PARTIAL[  0]    ***   
       XFIELD               IXEFLD              0             x 10-6  
       XFORM_TOL            IXFTOL          10D- 11             ***   
       YFIELD               IYEFLD              0             x 10-6  
       ZFIELD               IZEFLD            200             x 10-6  
       ZSCALE_EXP           IZEXPS         OFF         [  0]    ***   
    -------------------------------------------------------------------
   2 entries found in Z-matrix 
   Job Title : Carbon Monoxide DBOC calculation                                                
   There are  1 unique internal coordinates.
   Of these,  0 will be optimized.
   User supplied Z-matrix: 
--------------------------------------------------------------------------------
       SYMBOL    BOND      LENGTH    ANGLE     ANGLE     DIHED     ANGLE
                  TO      (ANGST)    WRT      (DEG)      WRT      (DEG)
--------------------------------------------------------------------------------
        C    
        O          1         r    
                  *Initial values for internal coordinates* 
                      Name             Value
                        r               1.7379310345
--------------------------------------------------------------------------------
  read isotopes from ZMAT file 
   Rotational constants (in cm-1): 
          0.7781551916             0.7781551916
   Rotational constants (in MHz): 
      23328.5090273077         23328.5090273077
********************************************************************************
   The full molecular point group is CXv .
   The largest Abelian subgroup of the full molecular point group is C2v .
   The computational point group is C2v .
********************************************************************************
--------------------------------------------------------------------------------
   Analysis of internal coordinates specified by Z-matrix 
--------------------------------------------------------------------------------
   *The nuclear repulsion energy is   14.615367523809523 a.u.
   *There is   1 degree of freedom within the tot. symm. molecular subspace.
   *Z-matrix requests optimization of   0 coordinates.
   *The optimization is constrained.
   *The following   1 parameters can have non-zero 
    derivatives within the totally symmetric subspace:
             r    [ 1]
   *The following   0 parameters are to be optimized:

   *The following coordinates must be varied in an  unconstrained optimization.
             r    [ 1]
--------------------------------------------------------------------------------


 ----------------------------------------------------------------
         Coordinates used in calculation (QCOMP) 
 ----------------------------------------------------------------
 Z-matrix   Atomic            Coordinates (in bohr)
  Symbol    Number           X              Y              Z
 ----------------------------------------------------------------
     C         6        -0.00000000     0.00000000     1.81151253
     O         8         0.00000000     0.00000000    -1.47270184
 ----------------------------------------------------------------
 
   Interatomic distance matrix (Angstroms) 
 
                 C             O    
                [ 1]        [ 2]
  C    [ 1]     0.00000
  O    [ 2]     1.73793     0.00000
 rotcon2
   Rotational constants (in cm-1): 
          0.7781551916             0.0000000000
   Rotational constants (in MHz): 
      23328.5090273077             0.0000000000
  ECPDATA file not present.   Using default ECPDATA. 
  @GTFLGS-I, Hessian will be transformed to curvilinear coordinates.
  There are  218 basis functions.
 @CHECKOUT-I, Total execution time (CPU/WALL):        0.17/       0.22 seconds.
--executable xjoda finished with status     0 in        0.26 seconds (walltime).
 --invoking executable--
/nfs/workspaces/public/cfour_mpi/bin/xvmol
 SERIAL VERSION OF MOLECULE STARTED
********************************************************************************
                    INPUT FROM MOL FILE
********************************************************************************
INTGRL        1    0    1    0    0    0    0    0    0                         
         *** CFOUR Program System (Release V0.1) ***                            
Carbon Monoxide DBOC calculation                                                
    2    2 X  Y       0.10E-08              0    0                              
   9999.00      3.00                                                            
          6.00000000    1    5    1    1    1    1    1                         
C #1  -0.000000000000000   0.000000000000000   1.811512528557828                
   16    9                                                                      
   33980.0000000000       9.100000000000000E-005 -1.900000000000000E-005        
  0.000000000000000E+000  0.000000000000000E+000  0.000000000000000E+000        
  0.000000000000000E+000  0.000000000000000E+000  0.000000000000000E+000        
  0.000000000000000E+000                                                        
   5089.00000000000       7.040000000000000E-004 -1.510000000000000E-004        
  0.000000000000000E+000  0.000000000000000E+000  0.000000000000000E+000        
  0.000000000000000E+000  0.000000000000000E+000  0.000000000000000E+000        
  0.000000000000000E+000                                                        
   1157.00000000000       3.693000000000000E-003 -7.850000000000000E-004        
  0.000000000000000E+000  0.000000000000000E+000  0.000000000000000E+000        
  0.000000000000000E+000  0.000000000000000E+000  0.000000000000000E+000        
  0.000000000000000E+000                                                        
   326.600000000000       1.536000000000000E-002 -3.324000000000000E-003        
  0.000000000000000E+000  0.000000000000000E+000  0.000000000000000E+000        
  0.000000000000000E+000  0.000000000000000E+000  0.000000000000000E+000        
  0.000000000000000E+000                                                        
   106.100000000000       5.292900000000000E-002 -1.151200000000000E-002        
  0.000000000000000E+000  0.000000000000000E+000  0.000000000000000E+000        
  0.000000000000000E+000  0.000000000000000E+000  0.000000000000000E+000        
  0.000000000000000E+000                                                        
   38.1100000000000       0.147043000000000      -3.416000000000000E-002        
  0.000000000000000E+000  0.000000000000000E+000  0.000000000000000E+000        
  0.000000000000000E+000  0.000000000000000E+000  0.000000000000000E+000        
  0.000000000000000E+000                                                        
   14.7500000000000       0.305631000000000      -7.717300000000001E-002        
  0.000000000000000E+000  0.000000000000000E+000  0.000000000000000E+000        
  0.000000000000000E+000  0.000000000000000E+000  0.000000000000000E+000        
  0.000000000000000E+000                                                        
   6.03500000000000       0.399345000000000      -0.141493000000000             
  0.000000000000000E+000  0.000000000000000E+000  0.000000000000000E+000        
  0.000000000000000E+000  0.000000000000000E+000  0.000000000000000E+000        
  0.000000000000000E+000                                                        
   2.53000000000000       0.217051000000000      -0.118019000000000             
  0.000000000000000E+000  0.000000000000000E+000  0.000000000000000E+000        
  0.000000000000000E+000  0.000000000000000E+000  0.000000000000000E+000        
  0.000000000000000E+000                                                        
  0.735500000000000       1.589400000000000E-002  0.273806000000000             
   1.00000000000000       0.000000000000000E+000  0.000000000000000E+000        
  0.000000000000000E+000  0.000000000000000E+000  0.000000000000000E+000        
  0.000000000000000E+000                                                        
  0.290500000000000      -3.084000000000000E-003  0.586510000000000             
  0.000000000000000E+000   1.00000000000000       0.000000000000000E+000        
  0.000000000000000E+000  0.000000000000000E+000  0.000000000000000E+000        
  0.000000000000000E+000                                                        
  0.111100000000000       9.779999999999999E-004  0.285430000000000             
  0.000000000000000E+000  0.000000000000000E+000   1.00000000000000             
  0.000000000000000E+000  0.000000000000000E+000  0.000000000000000E+000        
  0.000000000000000E+000                                                        
   7.21600000000000       0.000000000000000E+000  0.000000000000000E+000        
  0.000000000000000E+000  0.000000000000000E+000  0.000000000000000E+000        
   1.00000000000000       0.000000000000000E+000  0.000000000000000E+000        
  0.000000000000000E+000                                                        
   19.5700000000000       0.000000000000000E+000  0.000000000000000E+000        
  0.000000000000000E+000  0.000000000000000E+000  0.000000000000000E+000        
  0.000000000000000E+000   1.00000000000000       0.000000000000000E+000        
  0.000000000000000E+000                                                        
   53.0730000000000       0.000000000000000E+000  0.000000000000000E+000        
  0.000000000000000E+000  0.000000000000000E+000  0.000000000000000E+000        
  0.000000000000000E+000  0.000000000000000E+000   1.00000000000000             
  0.000000000000000E+000                                                        
  4.145000000000000E-002  0.000000000000000E+000  0.000000000000000E+000        
  0.000000000000000E+000  0.000000000000000E+000  0.000000000000000E+000        
  0.000000000000000E+000  0.000000000000000E+000  0.000000000000000E+000        
   1.00000000000000                                                             
   10    8                                                                      
   34.5100000000000       5.378000000000000E-003  0.000000000000000E+000        
  0.000000000000000E+000  0.000000000000000E+000  0.000000000000000E+000        
  0.000000000000000E+000  0.000000000000000E+000  0.000000000000000E+000        
   7.91500000000000       3.613200000000000E-002  0.000000000000000E+000        
  0.000000000000000E+000  0.000000000000000E+000  0.000000000000000E+000        
  0.000000000000000E+000  0.000000000000000E+000  0.000000000000000E+000        
   2.36800000000000       0.142493000000000       0.000000000000000E+000        
  0.000000000000000E+000  0.000000000000000E+000  0.000000000000000E+000        
  0.000000000000000E+000  0.000000000000000E+000  0.000000000000000E+000        
  0.813200000000000       0.342150000000000        1.00000000000000             
  0.000000000000000E+000  0.000000000000000E+000  0.000000000000000E+000        
  0.000000000000000E+000  0.000000000000000E+000  0.000000000000000E+000        
  0.289000000000000       0.463864000000000       0.000000000000000E+000        
   1.00000000000000       0.000000000000000E+000  0.000000000000000E+000        
  0.000000000000000E+000  0.000000000000000E+000  0.000000000000000E+000        
  0.100700000000000       0.250028000000000       0.000000000000000E+000        
  0.000000000000000E+000   1.00000000000000       0.000000000000000E+000        
  0.000000000000000E+000  0.000000000000000E+000  0.000000000000000E+000        
   8.18200000000000       0.000000000000000E+000  0.000000000000000E+000        
  0.000000000000000E+000  0.000000000000000E+000   1.00000000000000             
  0.000000000000000E+000  0.000000000000000E+000  0.000000000000000E+000        
   24.1860000000000       0.000000000000000E+000  0.000000000000000E+000        
  0.000000000000000E+000  0.000000000000000E+000  0.000000000000000E+000        
   1.00000000000000       0.000000000000000E+000  0.000000000000000E+000        
   71.4940000000000       0.000000000000000E+000  0.000000000000000E+000        
  0.000000000000000E+000  0.000000000000000E+000  0.000000000000000E+000        
  0.000000000000000E+000   1.00000000000000       0.000000000000000E+000        
  3.218000000000000E-002  0.000000000000000E+000  0.000000000000000E+000        
  0.000000000000000E+000  0.000000000000000E+000  0.000000000000000E+000        
  0.000000000000000E+000  0.000000000000000E+000   1.00000000000000             
    6    6                                                                      
   1.84800000000000        1.00000000000000       0.000000000000000E+000        
  0.000000000000000E+000  0.000000000000000E+000  0.000000000000000E+000        
  0.000000000000000E+000                                                        
  0.649000000000000       0.000000000000000E+000   1.00000000000000             
  0.000000000000000E+000  0.000000000000000E+000  0.000000000000000E+000        
  0.000000000000000E+000                                                        
  0.228000000000000       0.000000000000000E+000  0.000000000000000E+000        
   1.00000000000000       0.000000000000000E+000  0.000000000000000E+000        
  0.000000000000000E+000                                                        
   8.65600000000000       0.000000000000000E+000  0.000000000000000E+000        
  0.000000000000000E+000   1.00000000000000       0.000000000000000E+000        
  0.000000000000000E+000                                                        
   33.2130000000000       0.000000000000000E+000  0.000000000000000E+000        
  0.000000000000000E+000  0.000000000000000E+000   1.00000000000000             
  0.000000000000000E+000                                                        
  7.660000000000000E-002  0.000000000000000E+000  0.000000000000000E+000        
  0.000000000000000E+000  0.000000000000000E+000  0.000000000000000E+000        
   1.00000000000000                                                             
    4    4                                                                      
   1.41900000000000        1.00000000000000       0.000000000000000E+000        
  0.000000000000000E+000  0.000000000000000E+000                                
  0.485000000000000       0.000000000000000E+000   1.00000000000000             
  0.000000000000000E+000  0.000000000000000E+000                                
   24.6940000000000       0.000000000000000E+000  0.000000000000000E+000        
   1.00000000000000       0.000000000000000E+000                                
  0.187000000000000       0.000000000000000E+000  0.000000000000000E+000        
  0.000000000000000E+000   1.00000000000000                                     
    2    2                                                                      
   1.01100000000000        1.00000000000000       0.000000000000000E+000        
  0.424000000000000       0.000000000000000E+000   1.00000000000000             
          8.00000000    1    5    1    1    1    1    1                         
O #2   0.000000000000000   0.000000000000000  -1.472701838395614                
   16    9                                                                      
   61420.0000000000       9.000000000000001E-005 -2.000000000000000E-005        
  0.000000000000000E+000  0.000000000000000E+000  0.000000000000000E+000        
  0.000000000000000E+000  0.000000000000000E+000  0.000000000000000E+000        
  0.000000000000000E+000                                                        
   9199.00000000000       6.980000000000001E-004 -1.590000000000000E-004        
  0.000000000000000E+000  0.000000000000000E+000  0.000000000000000E+000        
  0.000000000000000E+000  0.000000000000000E+000  0.000000000000000E+000        
  0.000000000000000E+000                                                        
   2091.00000000000       3.664000000000000E-003 -8.290000000000000E-004        
  0.000000000000000E+000  0.000000000000000E+000  0.000000000000000E+000        
  0.000000000000000E+000  0.000000000000000E+000  0.000000000000000E+000        
  0.000000000000000E+000                                                        
   590.900000000000       1.521800000000000E-002 -3.508000000000000E-003        
  0.000000000000000E+000  0.000000000000000E+000  0.000000000000000E+000        
  0.000000000000000E+000  0.000000000000000E+000  0.000000000000000E+000        
  0.000000000000000E+000                                                        
   192.300000000000       5.242300000000000E-002 -1.215600000000000E-002        
  0.000000000000000E+000  0.000000000000000E+000  0.000000000000000E+000        
  0.000000000000000E+000  0.000000000000000E+000  0.000000000000000E+000        
  0.000000000000000E+000                                                        
   69.3200000000000       0.145921000000000      -3.626100000000000E-002        
  0.000000000000000E+000  0.000000000000000E+000  0.000000000000000E+000        
  0.000000000000000E+000  0.000000000000000E+000  0.000000000000000E+000        
  0.000000000000000E+000                                                        
   26.9700000000000       0.305258000000000      -8.299200000000000E-002        
  0.000000000000000E+000  0.000000000000000E+000  0.000000000000000E+000        
  0.000000000000000E+000  0.000000000000000E+000  0.000000000000000E+000        
  0.000000000000000E+000                                                        
   11.1000000000000       0.398508000000000      -0.152090000000000             
  0.000000000000000E+000  0.000000000000000E+000  0.000000000000000E+000        
  0.000000000000000E+000  0.000000000000000E+000  0.000000000000000E+000        
  0.000000000000000E+000                                                        
   4.68200000000000       0.216980000000000      -0.115331000000000             
  0.000000000000000E+000  0.000000000000000E+000  0.000000000000000E+000        
  0.000000000000000E+000  0.000000000000000E+000  0.000000000000000E+000        
  0.000000000000000E+000                                                        
   1.42800000000000       1.759400000000000E-002  0.288979000000000             
   1.00000000000000       0.000000000000000E+000  0.000000000000000E+000        
  0.000000000000000E+000  0.000000000000000E+000  0.000000000000000E+000        
  0.000000000000000E+000                                                        
  0.554700000000000      -2.502000000000000E-003  0.586128000000000             
  0.000000000000000E+000   1.00000000000000       0.000000000000000E+000        
  0.000000000000000E+000  0.000000000000000E+000  0.000000000000000E+000        
  0.000000000000000E+000                                                        
  0.206700000000000       9.540000000000000E-004  0.277624000000000             
  0.000000000000000E+000  0.000000000000000E+000   1.00000000000000             
  0.000000000000000E+000  0.000000000000000E+000  0.000000000000000E+000        
  0.000000000000000E+000                                                        
   12.9740000000000       0.000000000000000E+000  0.000000000000000E+000        
  0.000000000000000E+000  0.000000000000000E+000  0.000000000000000E+000        
   1.00000000000000       0.000000000000000E+000  0.000000000000000E+000        
  0.000000000000000E+000                                                        
   34.9000000000000       0.000000000000000E+000  0.000000000000000E+000        
  0.000000000000000E+000  0.000000000000000E+000  0.000000000000000E+000        
  0.000000000000000E+000   1.00000000000000       0.000000000000000E+000        
  0.000000000000000E+000                                                        
   93.8810000000000       0.000000000000000E+000  0.000000000000000E+000        
  0.000000000000000E+000  0.000000000000000E+000  0.000000000000000E+000        
  0.000000000000000E+000  0.000000000000000E+000   1.00000000000000             
  0.000000000000000E+000                                                        
  6.959000000000000E-002  0.000000000000000E+000  0.000000000000000E+000        
  0.000000000000000E+000  0.000000000000000E+000  0.000000000000000E+000        
  0.000000000000000E+000  0.000000000000000E+000  0.000000000000000E+000        
   1.00000000000000                                                             
   10    8                                                                      
   63.4200000000000       6.044000000000000E-003  0.000000000000000E+000        
  0.000000000000000E+000  0.000000000000000E+000  0.000000000000000E+000        
  0.000000000000000E+000  0.000000000000000E+000  0.000000000000000E+000        
   14.6600000000000       4.179900000000000E-002  0.000000000000000E+000        
  0.000000000000000E+000  0.000000000000000E+000  0.000000000000000E+000        
  0.000000000000000E+000  0.000000000000000E+000  0.000000000000000E+000        
   4.45900000000000       0.161143000000000       0.000000000000000E+000        
  0.000000000000000E+000  0.000000000000000E+000  0.000000000000000E+000        
  0.000000000000000E+000  0.000000000000000E+000  0.000000000000000E+000        
   1.53100000000000       0.356731000000000        1.00000000000000             
  0.000000000000000E+000  0.000000000000000E+000  0.000000000000000E+000        
  0.000000000000000E+000  0.000000000000000E+000  0.000000000000000E+000        
  0.530200000000000       0.448309000000000       0.000000000000000E+000        
   1.00000000000000       0.000000000000000E+000  0.000000000000000E+000        
  0.000000000000000E+000  0.000000000000000E+000  0.000000000000000E+000        
  0.175000000000000       0.244940000000000       0.000000000000000E+000        
  0.000000000000000E+000   1.00000000000000       0.000000000000000E+000        
  0.000000000000000E+000  0.000000000000000E+000  0.000000000000000E+000        
   14.4750000000000       0.000000000000000E+000  0.000000000000000E+000        
  0.000000000000000E+000  0.000000000000000E+000   1.00000000000000             
  0.000000000000000E+000  0.000000000000000E+000  0.000000000000000E+000        
   42.7300000000000       0.000000000000000E+000  0.000000000000000E+000        
  0.000000000000000E+000  0.000000000000000E+000  0.000000000000000E+000        
   1.00000000000000       0.000000000000000E+000  0.000000000000000E+000        
   126.140000000000       0.000000000000000E+000  0.000000000000000E+000        
  0.000000000000000E+000  0.000000000000000E+000  0.000000000000000E+000        
  0.000000000000000E+000   1.00000000000000       0.000000000000000E+000        
  5.348000000000000E-002  0.000000000000000E+000  0.000000000000000E+000        
  0.000000000000000E+000  0.000000000000000E+000  0.000000000000000E+000        
  0.000000000000000E+000  0.000000000000000E+000   1.00000000000000             
    6    6                                                                      
   3.77500000000000        1.00000000000000       0.000000000000000E+000        
  0.000000000000000E+000  0.000000000000000E+000  0.000000000000000E+000        
  0.000000000000000E+000                                                        
   1.30000000000000       0.000000000000000E+000   1.00000000000000             
  0.000000000000000E+000  0.000000000000000E+000  0.000000000000000E+000        
  0.000000000000000E+000                                                        
  0.444000000000000       0.000000000000000E+000  0.000000000000000E+000        
   1.00000000000000       0.000000000000000E+000  0.000000000000000E+000        
  0.000000000000000E+000                                                        
   14.9270000000000       0.000000000000000E+000  0.000000000000000E+000        
  0.000000000000000E+000   1.00000000000000       0.000000000000000E+000        
  0.000000000000000E+000                                                        
   57.5440000000000       0.000000000000000E+000  0.000000000000000E+000        
  0.000000000000000E+000  0.000000000000000E+000   1.00000000000000             
  0.000000000000000E+000                                                        
  0.154000000000000       0.000000000000000E+000  0.000000000000000E+000        
  0.000000000000000E+000  0.000000000000000E+000  0.000000000000000E+000        
   1.00000000000000                                                             
    4    4                                                                      
   2.66600000000000        1.00000000000000       0.000000000000000E+000        
  0.000000000000000E+000  0.000000000000000E+000                                
  0.859000000000000       0.000000000000000E+000   1.00000000000000             
  0.000000000000000E+000  0.000000000000000E+000                                
   26.4830000000000       0.000000000000000E+000  0.000000000000000E+000        
   1.00000000000000       0.000000000000000E+000                                
  0.324000000000000       0.000000000000000E+000  0.000000000000000E+000        
  0.000000000000000E+000   1.00000000000000                                     
    2    2                                                                      
   1.84600000000000        1.00000000000000       0.000000000000000E+000        
  0.714000000000000       0.000000000000000E+000   1.00000000000000             
FINISH                                                                          
 
********************************************************************************
 ONE- AND TWO-ELECTRON INTEGRALS OVER SYMMETRY-ADAPTED AOS ARE CALCULATED.

  SPHERICAL HARMONICS ARE USED.
  
  INTEGRALS LESS THAN  0.10E-13 ARE NEGLECTED.

  NUCLEAR REPULSION ENERGY :   14.6153675238 A.U.
  @MOLECU-I, ONE ELECTRON INTEGRALS (CPU/WALL):        0.10/       0.11 SECONDS.
  @TWOEL-I,    4377026 INTEGRALS OF SYMMETRY TYPE  I I I I
  @TWOEL-I,   18889992 INTEGRALS OF SYMMETRY TYPE  I J I J
  @TWOEL-I,    9948186 INTEGRALS OF SYMMETRY TYPE  I I J J
  @TWOEL-I,   13942594 INTEGRALS OF SYMMETRY TYPE  I J K L
  @TWOEL-I, TOTAL NUMBER OF 2-E INTEGRALS   47157798.
  @MOLECU-I, TWO ELECTRON INTEGRALS (CPU/WALL):      236.07/      31.73 SECONDS.
 @CHECKOUT-I, Total execution time (CPU/WALL):      236.19/      31.88 seconds.

Running with 14 threads/proc

--executable xvmol finished with status     0 in       31.92 seconds (walltime).
 --invoking executable--
/nfs/workspaces/public/cfour_mpi/bin/xvmol2ja
 @GETMEM-I,  Allocated    3814 MB of main memory.
 @CHECKOUT-I, Total execution time (CPU/WALL):        0.22/       0.09 seconds.
--executable xvmol2ja finished with status     0 in        0.14 seconds (walltime).
 --invoking executable--
/nfs/workspaces/public/cfour_mpi/bin/xvprop
 @GETMEM-I,  Allocated    3814 MB of main memory.
   Property integrals will be calculated.
    --------------------------------------------------------------
                                   Property evaluated at 
    Property type                X             Y             Z
    --------------------------------------------------------------
    Dipole moment               ----          ----          ----  
    Quadrupole moment           ----          ----          ----  
    Octopole moment             ----          ----          ----  
    Relativisitic corr.         ----          ----          ----  
    Second moment            0.0000000     0.0000000     0.0000000
    Electron density         0.0000000     0.0000000     1.8115125
    Electron density         0.0000000     0.0000000    -1.4727018
    Field gradient           0.0000000     0.0000000     1.8115125
    Field gradient           0.0000000     0.0000000    -1.4727018
    Potential                0.0000000     0.0000000     1.8115125
    Potential                0.0000000     0.0000000    -1.4727018
    --------------------------------------------------------------
 @CHECKOUT-I, Total execution time (CPU/WALL):        1.43/       1.48 seconds.
--executable xvprop finished with status     0 in        1.51 seconds (walltime).
 --invoking executable--
/nfs/workspaces/public/cfour_mpi/bin/xvscf
  There are  218 functions in the AO basis.

  There are 4 irreducible representations.

       Irrep        # of functions
         1                 86
         2                 52
         3                 52
         4                 28


  Parameters for SCF calculation: 
        SCF reference function:  RHF  
  Maximum number of iterations:  150
     Full symmetry point group: CXv 
     Computational point group: C2v 
        Initial density matrix: MOREAD                 
     SCF convergence tolerance: 10**(-10)
  DIIS convergence acceleration:  ON
          Latest start for DIIS:   8
                     DIIS order:   6

  Memory information:    2523578 words required.
  Fock matrices are constructed from AO integral file.
 @GETMEM-I,  Allocated      19 MB of main memory.
  Initialization and symmetry analysis required      0.002 seconds.

  Adding electric field perturbation to one-electron Hamiltonian.
  Field direction     : Z
  Field strength      :  0.0002000 a.u.

  @INITGES-I, Occupancies from core Hamiltonian:

          Alpha population by irrep:   5    1    1    0
           Beta population by irrep:   5    1    1    0


 total no. of electrons in initial guess :  0.000000000000000E+000
  --------------------------------------------------------------------
  Iteration         Total Energy            Largest Density Difference
  --------------------------------------------------------------------
       0            14.615550031716229              0.0000000000D+00
   current occupation vector 
     5  1  1  0
     5  1  1  0
       1           -93.730815676749160              0.1756388831D+02
   current occupation vector 
     5  1  1  0
     5  1  1  0
       2           -97.652639738136543              0.1756388154D+02
   current occupation vector 
     5  1  1  0
     5  1  1  0
       3           -99.840884069517784              0.6970707667D+01
   current occupation vector 
     5  1  1  0
     5  1  1  0
       4           -94.323565512438449              0.6968965338D+01
   current occupation vector 
     5  1  1  0
     5  1  1  0
       5           -99.854806541904708              0.7065320877D+01
   current occupation vector 
     5  1  1  0
     5  1  1  0
       6           -94.223869756186645              0.7065373761D+01
   current occupation vector 
     5  1  1  0
     5  1  1  0
       7           -99.852071632911773              0.7069588674D+01
   current occupation vector 
     5  1  1  0
     5  1  1  0
       8           -94.221517827308901              0.7069591433D+01
   current occupation vector 
     5  1  1  0
     5  1  1  0
       9          -106.974125547286761              0.6087957732D+01
   current occupation vector 
     5  1  1  0
     5  1  1  0
      10          -110.537568513922594              0.1322538480D+01
   current occupation vector 
     5  1  1  0
     5  1  1  0
      11          -112.220585669601562              0.9924667625D+00
   current occupation vector 
     5  1  1  0
     5  1  1  0
      12          -112.372475962505931              0.6648378613D+00
   current occupation vector 
     5  1  1  0
     5  1  1  0
      13          -112.437927613622719              0.1514152722D+00
   current occupation vector 
     5  1  1  0
     5  1  1  0
      14          -112.455476267185944              0.1239275889D+00
   current occupation vector 
     5  1  1  0
     5  1  1  0
      15          -112.456917531653460              0.4728351181D-01
   current occupation vector 
     5  1  1  0
     5  1  1  0
      16          -112.458504542872447              0.7786680218D-01
   current occupation vector 
     5  1  1  0
     5  1  1  0
      17          -112.459521236695352              0.7833470413D-01
   current occupation vector 
     5  1  1  0
     5  1  1  0
      18          -112.459742978745638              0.4793124269D-01
   current occupation vector 
     5  1  1  0
     5  1  1  0
      19          -112.459744777734940              0.2446571303D-02
   current occupation vector 
     5  1  1  0
     5  1  1  0
      20          -112.459744887613226              0.1440524619D-02
   current occupation vector 
     5  1  1  0
     5  1  1  0
      21          -112.459744893003844              0.3647558087D-03
   current occupation vector 
     5  1  1  0
     5  1  1  0
      22          -112.459744894019977              0.1187493362D-03
   current occupation vector 
     5  1  1  0
     5  1  1  0
      23          -112.459744894021924              0.5868528176D-05
   current occupation vector 
     5  1  1  0
     5  1  1  0
      24          -112.459744894022009              0.5944424623D-06
   current occupation vector 
     5  1  1  0
     5  1  1  0
      25          -112.459744894022265              0.8608273472D-07
   current occupation vector 
     5  1  1  0
     5  1  1  0
      26          -112.459744894021995              0.4849158186D-07
   current occupation vector 
     5  1  1  0
     5  1  1  0
      27          -112.459744894022023              0.4532138242D-07
   current occupation vector 
     5  1  1  0
     5  1  1  0
      28          -112.459744894022023              0.1476207112D-07
   current occupation vector 
     5  1  1  0
     5  1  1  0
      29          -112.459744894021298              0.3430149498D-09
   current occupation vector 
     5  1  1  0
     5  1  1  0
      30          -112.459744894022535              0.5862308416D-09
   current occupation vector 
     5  1  1  0
     5  1  1  0

  SCF has converged.

 Density matrix saved to file den.dat
 total electron number:   13.9999999999998     
     E(SCF)=      -112.459744894021910              0.7823919290D-10

  Eigenvector printing suppressed.

 @PUTMOS-I, Writing converged MOs to NEWMOS. 
 @PUTMOS-I, Symmetry   1 Full Blocks 21 Partial Blocksize   2
 @PUTMOS-I, Symmetry   2 Full Blocks 13 Partial Blocksize   0
 @PUTMOS-I, Symmetry   3 Full Blocks 13 Partial Blocksize   0
 @PUTMOS-I, Symmetry   4 Full Blocks  7 Partial Blocksize   0
 @PUTFOCK-I, Writing converged Fock matrix to NEWFOCK. 
 @PUTFOCK-I, Symmetry   1 Full Blocks 21 Partial Blocksize   2
 @PUTFOCK-I, Symmetry   2 Full Blocks 13 Partial Blocksize   0
 @PUTFOCK-I, Symmetry   3 Full Blocks 13 Partial Blocksize   0
 @PUTFOCK-I, Symmetry   4 Full Blocks  7 Partial Blocksize   0


 
  ORBITAL EIGENVALUES (ALPHA)  (1H = 27.2113834 eV)

       MO #        E(hartree)               E(eV)           FULLSYM    COMPSYM
       ----   --------------------   --------------------   -------   ---------
    1     1         -20.6283689939        -561.3264576088     SG+        A1 (1)
    2     2         -11.5361828271        -313.9154938800     SG+        A1 (1)
    3     3          -1.2341174565         -33.5820432698     SG+        A1 (1)
    4     4          -0.8132659141         -22.1300905949     SG+        A1 (1)
    5     5          -0.4969234430         -13.5219743277     SG+        A1 (1)
    6    87          -0.4795043824         -13.0479775912      PI        B1 (2)
    7   139          -0.4795043824         -13.0479775912      PI        B2 (3)
  +++++++++++++++++++++++++++++++++++++++++++++++++++++++++++++++++++++++++++++
    8   140          -0.0249270227          -0.6782987708      PI        B2 (3)
    9    88          -0.0249270227          -0.6782987708      PI        B1 (2)
   10     6           0.0577843365           1.5723917346     SG+        A1 (1)
   11     7           0.0685958251           1.8665872968     SG+        A1 (1)
   12    89           0.0811452842           2.2080754386      PI        B1 (2)
   13   141           0.0811452842           2.2080754386      PI        B2 (3)
   14     8           0.1524347739           4.1479610759     SG+        A1 (1)
   15     9           0.1653002287           4.4980478999     SG+        A1 (1)
   16   142           0.1832010247           4.9851533217      PI        B2 (3)
   17    90           0.1832010247           4.9851533217      PI        B1 (2)
   18   191           0.2197256718           5.9790394995      DE        A2 (4)
   19    10           0.2197256718           5.9790394995      DE        A1 (1)
   20    91           0.2798015519           7.6137873033      PI        B1 (2)
   21   143           0.2798015519           7.6137873033      PI        B2 (3)
   22    11           0.2882160037           7.8427561796     SG+        A1 (1)
   23    12           0.3050164674           8.2999200390     SG+        A1 (1)
   24    13           0.4091703933          11.1340924471     SG+        A1 (1)
   25    92           0.4100380578          11.1577027984      PI        B1 (2)
   26   144           0.4100380578          11.1577027984      PI        B2 (3)
   27    14           0.5159245871          14.0390217459     SG+        A1 (1)
   28   192           0.5506117489          14.9829074040      DE        A2 (4)
   29    15           0.5506117489          14.9829074040      DE        A1 (1)
   30    93           0.6238393106          16.9755306618      PI        B1 (2)
   31   145           0.6238393106          16.9755306618      PI        B2 (3)
   32    16           0.6971500327          18.9704168271     SG+        A1 (1)
   33    94           0.7249331456          19.7264337645      PH        B1 (2)
   34   146           0.7249331456          19.7264337645      PH        B2 (3)
   35   193           0.7311219529          19.8948397720      DE        A2 (4)
   36    17           0.7311219529          19.8948397720      DE        A1 (1)
   37    95           0.7673920033          20.8817980186      PI        B1 (2)
   38   147           0.7673920033          20.8817980186      PI        B2 (3)
   39    18           0.8063614051          21.9422093537     SG+        A1 (1)
   40   194           0.8469382716          23.0463620249      DE        A2 (4)
   41    19           0.8469382716          23.0463620249      DE        A1 (1)
   42    96           0.8624498905          23.4684546341      PI        B1 (2)
   43   148           0.8624498905          23.4684546341      PI        B2 (3)
   44    20           0.9074088265          24.6918494775     SG+        A1 (1)
   45    97           1.0569971432          28.7623545151      PI        B1 (2)
   46   149           1.0569971432          28.7623545151      PI        B2 (3)
   47    21           1.1515451136          31.3351355878     SG+        A1 (1)
   48    22           1.3208471882          35.9420792505     SG+        A1 (1)
   49   150           1.4182662195          38.5929858612      PH        B2 (3)
   50    98           1.4182662195          38.5929858612      PH        B1 (2)
   51    99           1.4520496733          39.5122803767      PI        B1 (2)
   52   151           1.4520496733          39.5122803767      PI        B2 (3)
   53    23           1.5761082275          42.8880852594     SG+        A1 (1)
   54   195           1.5864677428          43.1699820005      DE        A2 (4)
   55    24           1.5864677428          43.1699820005      DE        A1 (1)
   56   100           1.6418890614          44.6780727487      PI        B1 (2)
   57   152           1.6418890614          44.6780727487      PI        B2 (3)
   58   196           1.6571623791          45.0936808548      DE        A2 (4)
   59    25           1.6571623791          45.0936808548      DE        A1 (1)
   60    26           1.8614884739          50.6536765580     SG+        A1 (1)
   61    27           1.9222504624          52.3070943219     SG+        A1 (1)
   62   101           2.0146564958          54.8215903255      PI        B1 (2)
   63   153           2.0146564958          54.8215903255      PI        B2 (3)
   64   197           2.0553104652          55.9278410734      PI        A2 (4)
   65    28           2.0553104652          55.9278410734      PI        A1 (1)
   66   198           2.1129280081          57.4956941249      DE        A2 (4)
   67    29           2.1129280081          57.4956941249      DE        A1 (1)
   68   102           2.1640375202          58.8864546545      PH        B1 (2)
   69   154           2.1640375202          58.8864546545      PH        B2 (3)
   70   155           2.1951876958          59.7340940252      PH        B2 (3)
   71   103           2.1951876958          59.7340940252      PH        B1 (2)
   72   104           2.1988025656          59.8324596337      PI        B1 (2)
   73   156           2.1988025656          59.8324596337      PI        B2 (3)
   74    30           2.2204932472          60.4226930856     SG+        A1 (1)
   75    31           2.2659722677          61.6602401514      DE        A1 (1)
   76   199           2.2659722677          61.6602401514      DE        A2 (4)
   77    32           2.3535247430          64.0426641229     SG+        A1 (1)
   78   105           2.4622753435          67.0019184091      PI        B1 (2)
   79   157           2.4622753435          67.0019184091      PI        B2 (3)
   80   200           2.5444022450          69.2367050118      DE        A2 (4)
   81    33           2.5444022450          69.2367050119      DE        A1 (1)
   82   106           2.6450864161          71.9764605942      PI        B1 (2)
   83   158           2.6450864161          71.9764605943      PI        B2 (3)
   84    34           2.6484406141          72.0677329631     SG+        A1 (1)
   85    35           2.7947601299          76.0492894066     SG+        A1 (1)
   86   107           3.2446345938          88.2909959236      PI        B1 (2)
   87   159           3.2446345938          88.2909959236      PI        B2 (3)
   88    36           3.7229947352         101.3078371361      PI        A1 (1)
   89   201           3.7229947352         101.3078371361      PI        A2 (4)
   90    37           3.7785024292         102.8182782793     SG+        A1 (1)
   91   108           3.8557116998         104.9192493436      PH        B1 (2)
   92   160           3.8557116998         104.9192493436      PH        B2 (3)
   93    38           4.0560264737         110.3700914555     SG+        A1 (1)
   94   202           4.1267030348         112.2932984576      DE        A2 (4)
   95    39           4.1267030348         112.2932984576      DE        A1 (1)
   96   109           4.1372678837         112.5807826112      PI        B1 (2)
   97   161           4.1372678837         112.5807826112      PI        B2 (3)
   98   162           4.1532078737         113.0145317916      PH        B2 (3)
   99   110           4.1532078737         113.0145317916      PH        B1 (2)
  100    40           4.3031871739         117.0956760311     SG+        A1 (1)
  101   203           4.3127621752         117.3562250616      DE        A2 (4)
  102    41           4.3127621752         117.3562250616      DE        A1 (1)
  103   111           4.4631161500         121.4475647152      PI        B1 (2)
  104   163           4.4631161500         121.4475647152      PI        B2 (3)
  105   204           4.5597173850         124.0762179594      DE        A2 (4)
  106    42           4.5597173850         124.0762179595      DE        A1 (1)
  107    43           4.8675544043         132.4528891145     SG+        A1 (1)
  108   164           5.0000377400         136.0579439580      PI        B2 (3)
  109   112           5.0000377400         136.0579439580      PI        B1 (2)
  110    44           5.0725200996         138.0302892349     SG+        A1 (1)
  111   113           5.3542598699         145.6968181422      PI        B1 (2)
  112   165           5.3542598699         145.6968181422      PI        B2 (3)
  113    45           5.8056027015         157.9784809777      PI        A1 (1)
  114   205           5.8056027015         157.9784809777      PI        A2 (4)
  115   166           5.8769124256         159.9189172210      PH        B2 (3)
  116   114           5.8769124256         159.9189172210      PH        B1 (2)
  117    46           5.9261026950         161.2574525009     SG+        A1 (1)
  118   206           6.0265748051         163.9914376101      DE        A2 (4)
  119    47           6.0265748051         163.9914376101      DE        A1 (1)
  120   167           6.0963474707         165.8900483636      PI        B2 (3)
  121   115           6.0963474707         165.8900483636      PI        B1 (2)
  122    48           6.1282391739         166.7578657272     SG+        A1 (1)
  123   207           6.2373139814         169.7259421346      DE        A2 (4)
  124    49           6.2373139814         169.7259421346      DE        A1 (1)
  125   116           6.3297537527         172.2413561919      PH        B1 (2)
  126   168           6.3297537527         172.2413561919      PH        B2 (3)
  127   208           6.4574750069         175.7168282099      DE        A2 (4)
  128    50           6.4574750069         175.7168282100      DE        A1 (1)
  129   117           6.6735756406         181.5972254041      PI        B1 (2)
  130   169           6.6735756406         181.5972254041      PI        B2 (3)
  131   118           6.9494941797         189.1053505594      PI        B1 (2)
  132   170           6.9494941797         189.1053505594      PI        B2 (3)
  133    51           7.0397813123         191.5621883423     SG+        A1 (1)
  134    52           7.4014194076         201.4028612031     SG+        A1 (1)
  135    53           9.2736844521         252.3497831560     SG+        A1 (1)
  136   171           9.5824966077         260.7529891217      PI        B2 (3)
  137   119           9.5824966077         260.7529891218      PI        B1 (2)
  138    54          10.6418748453         289.5801365111     SG+        A1 (1)
  139    55          10.6845975389         290.7426801050      PI        A1 (1)
  140   209          10.6845975389         290.7426801050      PI        A2 (4)
  141   120          10.7241335943         291.8185108676      PH        B1 (2)
  142   172          10.7241335943         291.8185108676      PH        B2 (3)
  143   210          10.9124350780         296.9424547351      DE        A2 (4)
  144    56          10.9124350780         296.9424547351      DE        A1 (1)
  145   121          11.0015090291         299.3662801689      PI        B1 (2)
  146   173          11.0015090291         299.3662801689      PI        B2 (3)
  147    57          11.0911003742         301.8041846102     SG+        A1 (1)
  148   122          11.9190511228         324.3338698656      PH        B1 (2)
  149   174          11.9190511228         324.3338698656      PH        B2 (3)
  150   211          11.9729740121         325.8011862817      DE        A2 (4)
  151    58          11.9729740121         325.8011862818      DE        A1 (1)
  152   123          12.1665035024         331.0673914399      PI        B1 (2)
  153   175          12.1665035024         331.0673914399      PI        B2 (3)
  154    59          12.4518791340         338.8328571651     SG+        A1 (1)
  155    60          12.7245774194         346.2533547635      DE        A1 (1)
  156   212          12.7245774194         346.2533547635      DE        A2 (4)
  157   124          13.0858799284         356.0848958593      PI        B1 (2)
  158   176          13.0858799284         356.0848958593      PI        B2 (3)
  159    61          13.3068705563         362.0983565615     SG+        A1 (1)
  160    62          17.1588342447         466.9156173291     SG+        A1 (1)
  161   177          18.6531907030         507.5791238537      PI        B2 (3)
  162   125          18.6531907030         507.5791238538      PI        B1 (2)
  163    63          19.3490279186         526.5138171116     SG+        A1 (1)
  164    64          26.2298445223         713.7503558187      DE        A1 (1)
  165   213          26.2298445223         713.7503558187      DE        A2 (4)
  166   178          26.4297282905         719.1894696702      PI        B2 (3)
  167   126          26.4297282905         719.1894696702      PI        B1 (2)
  168    65          26.8322889046         730.1437008824     SG+        A1 (1)
  169   179          33.3236608667         906.7829121351      PI        B2 (3)
  170   127          33.3236608667         906.7829121357      PI        B1 (2)
  171    66          34.1101439750         928.1842055321     SG+        A1 (1)
  172    67          35.4898631082         965.7282718496     SG+        A1 (1)
  173    68          47.0852148173        1281.2538328646      DE        A1 (1)
  174   214          47.0852148173        1281.2538328647      DE        A2 (4)
  175   128          47.2579885540        1285.9552452564      PI        B1 (2)
  176   180          47.2579885540        1285.9552452565      PI        B2 (3)
  177    69          47.3899555532        1289.5462498661     SG+        A1 (1)
  178    70          63.6154961316        1731.0656554175     SG+        A1 (1)
  179   181          66.2508321501        1802.7767942049      PI        B2 (3)
  180   129          66.2508321501        1802.7767942050      PI        B1 (2)
  181    71          66.7730551370        1816.9872041216     SG+        A1 (1)
  182   130          98.4903720998        2680.0592764165      PH        B1 (2)
  183   182          98.4903720998        2680.0592764166      PH        B2 (3)
  184   215          98.5060320405        2680.4854050675      DE        A2 (4)
  185    72          98.5060320405        2680.4854050675      DE        A1 (1)
  186   131          98.5203625219        2680.8753572912      PI        B1 (2)
  187   183          98.5203625219        2680.8753572912      PI        B2 (3)
  188    73          98.5268410950        2681.0516482261     SG+        A1 (1)
  189   216         103.3251652734        2811.6206871233      DE        A2 (4)
  190    74         103.3251652735        2811.6206871243      DE        A1 (1)
  191   132         103.3314865334        2811.7926973514      PI        B1 (2)
  192   184         103.3314865334        2811.7926973514      PI        B2 (3)
  193   133         103.3377310855        2811.9626202542      PH        B1 (2)
  194   185         103.3377310855        2811.9626202542      PH        B2 (3)
  195    75         103.3432996028        2812.1141473121     SG+        A1 (1)
  196   217         114.9395422500        3127.6639519860      DE        A2 (4)
  197    76         114.9395422500        3127.6639519860      DE        A1 (1)
  198   186         115.0375455923        3130.3307585072      PI        B2 (3)
  199   134         115.0375455923        3130.3307585072      PI        B1 (2)
  200    77         115.2058237497        3134.9098399663     SG+        A1 (1)
  201   187         116.6482789799        3174.1610422714      PI        B2 (3)
  202   135         116.6482789799        3174.1610422719      PI        B1 (2)
  203    78         117.3160335029        3192.3315666143     SG+        A1 (1)
  204    79         121.7520891646        3313.0427780090     SG+        A1 (1)
  205    80         198.5703864901        5403.3749186674      DE        A1 (1)
  206   218         198.5703864901        5403.3749186674      DE        A2 (4)
  207   136         198.6643396121        5405.9315130920      PI        B1 (2)
  208   188         198.6643396121        5405.9315130922      PI        B2 (3)
  209    81         198.7347275998        5407.8468676135     SG+        A1 (1)
  210    82         216.1522195082        5881.8009177986     SG+        A1 (1)
  211   189         224.7418801607        6115.5374670908      PI        B2 (3)
  212   137         224.7418801607        6115.5374670910      PI        B1 (2)
  213    83         225.1538048325        6126.7465072668     SG+        A1 (1)
  214   190         395.2037746389       10754.0414328273      PI        B2 (3)
  215   138         395.2037746389       10754.0414328274      PI        B1 (2)
  216    84         395.7138204145       10767.9204839770     SG+        A1 (1)
  217    85         508.5110104142       13837.2880675029     SG+        A1 (1)
  218    86         894.9630436212       24353.1825088061     SG+        A1 (1)


  VSCF finished.

 @CHECKOUT-I, Total execution time (CPU/WALL):       55.62/      12.29 seconds.
--executable xvscf finished with status     0 in       12.33 seconds (walltime).
 --invoking executable--
/nfs/workspaces/public/cfour_mpi/bin/xvtran
 @GETMEM-I,  Allocated    3814 MB of main memory.
  Full RHF integral transformation
  Transformation of IIII integrals :
  1 pass through the AO integral file was required.
     4377026 AO integrals were read.
     8523920 MO integrals were written to HF2.
  Transformation of IIJJ integrals :
  1 pass through the AO integral file was required.
     9948186 AO integrals were read.
    14281593 MO integrals were written to HF2.
  Transformation of IJIJ integrals :
  1 pass through the AO integral file was required.
    18889992 AO integrals were read.
    26496308 MO integrals were written to HF2.
  Transformation of IJKL integrals :
  1 pass through the AO integral file was required.
    13942594 AO integrals were read.
    17950976 MO integrals were written to HF2.
  Summary of active molecular orbitals: 
------------------------------------------------------------------------
 
  Index      Eigenvalue    Symmetry    Index      Eigenvalue    Symmetry
------------------------------------------------------------------------
     1       -20.6283690        1       110         4.1372679        2
     2       -11.5361828        1       111         4.1532079        2
     3        -1.2341175        1       112         4.4631161        2
     4        -0.8132659        1       113         5.0000377        2
     5        -0.4969234        1       114         5.3542599        2
     6        -0.4795044        2       115         5.8769124        2
     7        -0.4795044        3       116         6.0963475        2
     8         0.0577843        1       117         6.3297538        2
     9         0.0685958        1       118         6.6735756        2
    10         0.1524348        1       119         6.9494942        2
    11         0.1653002        1       120         9.5824966        2
    12         0.2197257        1       121        10.7241336        2
    13         0.2882160        1       122        11.0015090        2
    14         0.3050165        1       123        11.9190511        2
    15         0.4091704        1       124        12.1665035        2
    16         0.5159246        1       125        13.0858799        2
    17         0.5506117        1       126        18.6531907        2
    18         0.6971500        1       127        26.4297283        2
    19         0.7311220        1       128        33.3236609        2
    20         0.8063614        1       129        47.2579886        2
    21         0.8469383        1       130        66.2508322        2
    22         0.9074088        1       131        98.4903721        2
    23         1.1515451        1       132        98.5203625        2
    24         1.3208472        1       133       103.3314865        2
    25         1.5761082        1       134       103.3377311        2
    26         1.5864677        1       135       115.0375456        2
    27         1.6571624        1       136       116.6482790        2
    28         1.8614885        1       137       198.6643396        2
    29         1.9222505        1       138       224.7418802        2
    30         2.0553105        1       139       395.2037746        2
    31         2.1129280        1       140        -0.0249270        3
    32         2.2204932        1       141         0.0811453        3
    33         2.2659723        1       142         0.1832010        3
    34         2.3535247        1       143         0.2798016        3
    35         2.5444022        1       144         0.4100381        3
    36         2.6484406        1       145         0.6238393        3
    37         2.7947601        1       146         0.7249331        3
    38         3.7229947        1       147         0.7673920        3
    39         3.7785024        1       148         0.8624499        3
    40         4.0560265        1       149         1.0569971        3
    41         4.1267030        1       150         1.4182662        3
    42         4.3031872        1       151         1.4520497        3
    43         4.3127622        1       152         1.6418891        3
    44         4.5597174        1       153         2.0146565        3
    45         4.8675544        1       154         2.1640375        3
    46         5.0725201        1       155         2.1951877        3
    47         5.8056027        1       156         2.1988026        3
    48         5.9261027        1       157         2.4622753        3
    49         6.0265748        1       158         2.6450864        3
    50         6.1282392        1       159         3.2446346        3
    51         6.2373140        1       160         3.8557117        3
    52         6.4574750        1       161         4.1372679        3
    53         7.0397813        1       162         4.1532079        3
    54         7.4014194        1       163         4.4631161        3
    55         9.2736845        1       164         5.0000377        3
    56        10.6418748        1       165         5.3542599        3
    57        10.6845975        1       166         5.8769124        3
    58        10.9124351        1       167         6.0963475        3
    59        11.0911004        1       168         6.3297538        3
    60        11.9729740        1       169         6.6735756        3
    61        12.4518791        1       170         6.9494942        3
    62        12.7245774        1       171         9.5824966        3
    63        13.3068706        1       172        10.7241336        3
    64        17.1588342        1       173        11.0015090        3
    65        19.3490279        1       174        11.9190511        3
    66        26.2298445        1       175        12.1665035        3
    67        26.8322889        1       176        13.0858799        3
    68        34.1101440        1       177        18.6531907        3
    69        35.4898631        1       178        26.4297283        3
    70        47.0852148        1       179        33.3236609        3
    71        47.3899556        1       180        47.2579886        3
    72        63.6154961        1       181        66.2508322        3
    73        66.7730551        1       182        98.4903721        3
    74        98.5060320        1       183        98.5203625        3
    75        98.5268411        1       184       103.3314865        3
    76       103.3251653        1       185       103.3377311        3
    77       103.3432996        1       186       115.0375456        3
    78       114.9395423        1       187       116.6482790        3
    79       115.2058237        1       188       198.6643396        3
    80       117.3160335        1       189       224.7418802        3
    81       121.7520892        1       190       395.2037746        3
    82       198.5703865        1       191         0.2197257        4
    83       198.7347276        1       192         0.5506117        4
    84       216.1522195        1       193         0.7311220        4
    85       225.1538048        1       194         0.8469383        4
    86       395.7138204        1       195         1.5864677        4
    87       508.5110104        1       196         1.6571624        4
    88       894.9630436        1       197         2.0553105        4
    89        -0.0249270        2       198         2.1129280        4
    90         0.0811453        2       199         2.2659723        4
    91         0.1832010        2       200         2.5444022        4
    92         0.2798016        2       201         3.7229947        4
    93         0.4100381        2       202         4.1267030        4
    94         0.6238393        2       203         4.3127622        4
    95         0.7249331        2       204         4.5597174        4
    96         0.7673920        2       205         5.8056027        4
    97         0.8624499        2       206         6.0265748        4
    98         1.0569971        2       207         6.2373140        4
    99         1.4182662        2       208         6.4574750        4
   100         1.4520497        2       209        10.6845975        4
   101         1.6418891        2       210        10.9124351        4
   102         2.0146565        2       211        11.9729740        4
   103         2.1640375        2       212        12.7245774        4
   104         2.1951877        2       213        26.2298445        4
   105         2.1988026        2       214        47.0852148        4
   106         2.4622753        2       215        98.5060320        4
   107         2.6450864        2       216       103.3251653        4
   108         3.2446346        2       217       114.9395423        4
   109         3.8557117        2       218       198.5703865        4
------------------------------------------------------------------------
  -20.6283689938686       -11.5361828270737       -1.23411745651331     
 -0.813265914106844      -0.496923442993670      -0.479504382388692     
 -0.479504382388670       5.778433648552729E-002  6.859582511239046E-002
  0.152434773891997       0.165300228721983       0.219725671849430     
  0.288216003734511       0.305016467447945       0.409170393266426     
  0.515924587132287       0.550611748905944       0.697150032697687     
  0.731121952880355       0.806361405120231       0.846938271609249     
  0.907408826463903        1.15154511357188        1.32084718818509     
   1.57610822753554        1.58646774277917        1.65716237913982     
   1.86148847390144        1.92225046235289        2.05531046515724     
   2.11292800809626        2.22049324716230        2.26597226774708     
   2.35352474299041        2.54440224497558        2.64844061412628     
   2.79476012993303        3.72299473521572        3.77850242921872     
   4.05602647366860        4.12670303478999        4.30318717390359     
   4.31276217517127        4.55971738502111        4.86755440425308     
   5.07252009961746        5.80560270146744        5.92610269498160     
[...]
 Convergence information after    20 iterations: 
 Largest element of residual vector : -0.19743311E-06.
 Largest element of DIIS residual   : -0.10306028E-06.
 Convergence information after    21 iterations: 
 Largest element of residual vector :  0.11537549E-06.
 Largest element of DIIS residual   :  0.52161773E-07.
 Perturbed amplitude equations converged in    21 iterations.
  Dominant contributions to perturbed wavefunction:
    7    0   46    0   0.2890272814 AA  
    7    0   22    0   0.2528162226 AA  
    7    7  140   22  -0.2226710031 ABAB
    7    7   22  140  -0.2226710031 ABAB
    7    0   36    0   0.2223548231 AA  
    7    0   28    0   0.2078941165 AA  
    7    7  140   46  -0.2068053702 ABAB
    7    7   46  140  -0.2068053702 ABAB
    7    0   32    0   0.2018744327 AA  
    7    7  140   32  -0.1875532578 ABAB
    7    7   32  140  -0.1875532578 ABAB
    7    0   25    0   0.1843215933 AA  
    7    0   54    0  -0.1823911904 AA  
    7    0   16    0  -0.1791135226 AA  
    7    0   56    0   0.1735817754 AA  
    7    0   39    0   0.1683600529 AA  
    7    0   24    0   0.1657374843 AA  
    7    7  140   36  -0.1538981370 ABAB
    7    7   36  140  -0.1538981370 ABAB
    7    7  140   28  -0.1493473421 ABAB
  norm of converged amps    1.56948853039944     
 Starting iterative solution of the perturbed Lambda equations.
 The DIIS procedure is used to accelerate convergence.
 Convergence criterion is 10**(-7).
 Maximum number of iterations is 100.
 Convergence information after     1 iterations: 
 Largest element of residual vector :  0.76749165E-01.
 Largest element of DIIS residual   :  0.76749165E-01.
 Convergence information after     2 iterations: 
 Largest element of residual vector :  0.19526919E-01.
 Largest element of DIIS residual   :  0.14808232E-01.
 Convergence information after     3 iterations: 
 Largest element of residual vector :  0.65695042E-02.
 Largest element of DIIS residual   :  0.56507205E-02.
 Convergence information after     4 iterations: 
 Largest element of residual vector :  0.30975247E-02.
 Largest element of DIIS residual   :  0.29548915E-02.
 Convergence information after     5 iterations: 
 Largest element of residual vector :  0.30773006E-02.
 Largest element of DIIS residual   :  0.27165311E-02.
 Convergence information after     6 iterations: 
 Largest element of residual vector :  0.18519012E-02.
 Largest element of DIIS residual   :  0.92478266E-03.
 Convergence information after     7 iterations: 
 Largest element of residual vector :  0.10119188E-02.
 Largest element of DIIS residual   :  0.49703518E-03.
 Convergence information after     8 iterations: 
 Largest element of residual vector :  0.38297293E-03.
 Largest element of DIIS residual   :  0.19037448E-03.
 Convergence information after     9 iterations: 
 Largest element of residual vector :  0.16312839E-03.
 Largest element of DIIS residual   :  0.96764559E-04.
 Convergence information after    10 iterations: 
 Largest element of residual vector :  0.11195807E-03.
 Largest element of DIIS residual   : -0.77880443E-04.
 Convergence information after    11 iterations: 
 Largest element of residual vector : -0.43447590E-04.
 Largest element of DIIS residual   : -0.18634090E-04.
 Convergence information after    12 iterations: 
 Largest element of residual vector :  0.24606526E-04.
 Largest element of DIIS residual   :  0.12683077E-04.
 Convergence information after    13 iterations: 
 Largest element of residual vector :  0.68427254E-05.
 Largest element of DIIS residual   :  0.53955796E-05.
 Convergence information after    14 iterations: 
 Largest element of residual vector :  0.67295809E-05.
 Largest element of DIIS residual   :  0.33837327E-05.
 Convergence information after    15 iterations: 
 Largest element of residual vector :  0.37313949E-05.
 Largest element of DIIS residual   :  0.18541001E-05.
 Convergence information after    16 iterations: 
 Largest element of residual vector :  0.15206820E-05.
 Largest element of DIIS residual   :  0.42772572E-06.
 Convergence information after    17 iterations: 
 Largest element of residual vector :  0.81907681E-06.
 Largest element of DIIS residual   :  0.39188458E-06.
 Convergence information after    18 iterations: 
 Largest element of residual vector :  0.18190656E-06.
 Largest element of DIIS residual   : -0.14621876E-06.
 Convergence information after    19 iterations: 
 Largest element of residual vector :  0.16380515E-06.
 Largest element of DIIS residual   :  0.74344317E-07.
 Perturbed Lambda equations converged in    19 iterations.
  Dominant contributions to perturbed wavefunction:
    7    7  140   22  -0.1558899427 ABAB
    7    7   22  140  -0.1558899427 ABAB
    7    7  140   46  -0.1398368697 ABAB
    7    7   46  140  -0.1398368697 ABAB
    7    7  140   32  -0.1321627866 ABAB
    7    7   32  140  -0.1321627866 ABAB
    7    7  140   36  -0.1039196718 ABAB
    7    7   36  140  -0.1039196718 ABAB
    7    7  140   28  -0.1012248474 ABAB
    7    7   28  140  -0.1012248474 ABAB
    7    7  140   56  -0.1010223866 ABAB
    7    7   56  140  -0.1010223866 ABAB
    7    7  140   39  -0.0990391771 ABAB
    7    7   39  140  -0.0990391771 ABAB
    7    6   22   89  -0.0979716268 ABAB
    6    7   89   22  -0.0979716268 ABAB
    7    7  140   45  -0.0975058044 ABAB
    7    7   45  140  -0.0975058044 ABAB
    7    7  140   16   0.0970246475 ABAB
    7    7   16  140   0.0970246475 ABAB
        The DBOC first-order density matrix is being calculated 
             (Symmetry block 3, perturbation   2)
 term   2.57387584449039     
 final tnorm  0.684502093961451     
  norm contr. I: |<0|L dT/dx|0>|^2   0.000000000000000E+000
  norm contr. II: <0|[nabla(1+L)e-T][nabla e^T]|0>   2.57387584449039     
  total norm contribution   2.57387584449039     
 oo  1.264765507547030E-002
 vv  -19.2270652753335     
 vo -3.100310737366754E-003
  Correlated perturbed 1-el contribution to DBOC  -19.2175179309954       cm**-1
  SUM_I |dc_I/dx|^2 contribution to DBOC   9.68989512004375       cm**-1
 
 
  The total diagonal Born-Oppenheimer correction (DBOC) is:      0.0040064263 a.u.
  The total diagonal Born-Oppenheimer correction (DBOC) is:        879.308945 cm-1
 
 Total CC energy including DBOC  -113.014658905824     
 First-order density matrix is being calculated  (Symmetry block 3, perturbation   2)
 Calculation of the contributions of <pq||rs> to dI(i,j)/dx required   3.4 seconds.
 Calculation of the contributions of <pq||rs> to dI(a,b)/dx required  16.1 seconds.
 Calculation of the contributions of <pq||rs> to dI(i,a)/dx required   9.9 seconds.
 First-order Z-vector equations are solved for 1 perturbation.
 Convergence reached after  20 iterations.
        U*G(pq,rs) contribution is being calculated
             (Symmetry block 3, perturbation   2)

 CCSD contribution to force constants 

        0.0000000000        0.0000000000        0.0000000000
        0.0000000000        0.0000000000        0.0000000000
        0.0000000000        0.0000000000        0.0000000000
        0.0000000000        0.0000000000        0.0000000000
        0.0000000000        0.0000000000        0.0000000000
        0.0000000000        0.0000000000        0.0000000000
        0.0000000000        0.0000000000        0.0000000000
        0.0000000000        0.0000000000        0.0000000000
        0.0000000000        0.0000000000        0.0000000000
        0.0000000000        0.0000000000        0.0000000000
        0.0000000000        0.0000000000        0.0000000000
        0.0000000000       -9.8312072532        9.8312072532

 CCSD contribution to dipole derivatives 

        0.0000000000        0.0000000000        0.0000000000
        0.0000000000        0.0000000000        0.0000000000
        0.0000000000        0.0000000000        0.0000000000
        0.0000000000        0.0000000000       -0.0559126597
        0.0000000000        0.0000000000        0.0000000000
        0.0000000000        0.0000000000        0.0000000000
 @CHECKOUT-I, Total execution time (CPU/WALL):     1385.46/     527.55 seconds.
--executable xsdcc finished with status     0 in      527.89 seconds (walltime).
 --invoking executable--
/nfs/workspaces/public/cfour_mpi/bin/xanti
 @GETMEM-I,  Allocated    3814 MB of main memory.
 CCSD MO derivative gammas will be sorted to Mulliken order.
 @CHECKOUT-I, Total execution time (CPU/WALL):       14.53/      33.92 seconds.
--executable xanti finished with status     0 in       34.21 seconds (walltime).
 --invoking executable--
/nfs/workspaces/public/cfour_mpi/bin/xbcktrn
 @GETMEM-I,  Allocated    3814 MB of main memory.
 CCSD MO derivative gammas will be transformed to the AO basis.
 @CHECKOUT-I, Total execution time (CPU/WALL):       28.32/       4.21 seconds.
--executable xbcktrn finished with status     0 in        4.27 seconds (walltime).
 --invoking executable--
/nfs/workspaces/public/cfour_mpi/bin/xvdint
 @GETMEM-I,  Allocated    3814 MB of main memory.
 One- and two-electron integral derivatives are calculated
 for RHF-CC/MBPT hessians and dipole derivatives.
 Spherical gaussians are used.
  magnet F F
                    8722  records have been written to the Sort file.
  Total length of Sort file :             178609116  words.
 Evaluation of 2el integral derivatives

                      Two-electron integral gradient
                      ------------------------------

                         C #1 z     0.0000000000
                         O #2 z     0.0000000000


 C #1       0.0000000000            0.0707274927            0.0000000000
 O #2       0.0000000000           -0.0707274927            0.0000000000


 Evaluation of 2e integral derivatives required  359.43 seconds.
  contribution to Hessian
        0.0000000000        0.0000000000        0.0000000000
        0.0000000000        0.0707274927       -0.0707274927
 @CHECKOUT-I, Total execution time (CPU/WALL):      359.42/      76.61 seconds.
--executable xvdint finished with status     0 in       76.85 seconds (walltime).
 --invoking executable--
/nfs/workspaces/public/cfour_mpi/bin/xanti
 @GETMEM-I,  Allocated    3814 MB of main memory.
 CCSD MO gammas will be sorted to Mulliken order.
 @CHECKOUT-I, Total execution time (CPU/WALL):       18.09/      51.73 seconds.
--executable xanti finished with status     0 in       51.87 seconds (walltime).
 --invoking executable--
/nfs/workspaces/public/cfour_mpi/bin/xbcktrn
 @GETMEM-I,  Allocated    3814 MB of main memory.
 CCSD MO gammas will be transformed to the AO basis.
 @CHECKOUT-I, Total execution time (CPU/WALL):       42.48/       8.33 seconds.
--executable xbcktrn finished with status     0 in        8.37 seconds (walltime).
 --invoking executable--
/nfs/workspaces/public/cfour_mpi/bin/xvdint
 @GETMEM-I,  Allocated    3814 MB of main memory.
 One- and two-electron integral derivatives are calculated
 for RHF-CC/MBPT hessians and dipole derivatives.
 Spherical gaussians are used.
  magnet F F

                     Kinetic energy integral gradient
                     --------------------------------

                         C #1 z    -0.3946820289
                         O #2 z     0.3946820289


 C #1       0.0000000000            0.0000000000           -0.3946820289
 O #2       0.0000000000            0.0000000000            0.3946820289



                   Nuclear attraction integral gradient
                   ------------------------------------

                         C #1 z    11.7987773927
                         O #2 z   -11.7987773927


 C #1       0.0000000000            0.0000000000           11.7987773927
 O #2       0.0000000000            0.0000000000          -11.7987773927



                      Reorthonormalization gradient
                      -----------------------------

                         C #1 z     0.0000000000
                         O #2 z     0.0000000000


 C #1       0.0000000000            0.0000000000            0.0000000000
 O #2       0.0000000000            0.0000000000            0.0000000000



                     Kinetic energy integral Hessian
                     -------------------------------


           Symmetry 1

           C #1 z      O #2 z

 C #1 z    0.419262
 O #2 z   -0.419262    0.419262


           Symmetry 2

           C #1 x      O #2 x

 C #1 x   -0.262995
 O #2 x    0.262995   -0.262995


           Symmetry 3

           C #1 y      O #2 y

 C #1 y   -0.262995
 O #2 y    0.262995   -0.262995




           C #1 x      C #1 y      C #1 z      O #2 x      O #2 y      O #2 z

 C #1 x   -0.262995
 C #1 y    0.000000   -0.262995
 C #1 z    0.000000    0.000000    0.419262

 O #2 x    0.262995    0.000000    0.000000   -0.262995
 O #2 y    0.000000    0.262995    0.000000    0.000000   -0.262995
 O #2 z    0.000000    0.000000   -0.419262    0.000000    0.000000    0.419262




                   Nuclear attraction integral Hessian
                   -----------------------------------


           Symmetry 1

           C #1 z      O #2 z

 C #1 z   -6.979870
 O #2 z    6.979870   -6.979870


           Symmetry 2

           C #1 x      O #2 x

 C #1 x    5.563915
 O #2 x   -5.563915    5.563915


           Symmetry 3

           C #1 y      O #2 y

 C #1 y    5.563915
 O #2 y   -5.563915    5.563915




           C #1 x      C #1 y      C #1 z      O #2 x      O #2 y      O #2 z

 C #1 x    5.563915
 C #1 y    0.000000    5.563915
 C #1 z    0.000000    0.000000   -6.979870

 O #2 x   -5.563915    0.000000    0.000000    5.563915
 O #2 y    0.000000   -5.563915    0.000000    0.000000    5.563915
 O #2 z    0.000000    0.000000    6.979870    0.000000    0.000000   -6.979870




                Highest order reorthonormalization Hessian
                ------------------------------------------


           Symmetry 1

           C #1 z      O #2 z

 C #1 z    0.000000
 O #2 z    0.000000    0.000000


           Symmetry 2

           C #1 x      O #2 x

 C #1 x    0.000000
 O #2 x    0.000000    0.000000


           Symmetry 3

           C #1 y      O #2 y

 C #1 y    0.000000
 O #2 y    0.000000    0.000000




           C #1 x      C #1 y      C #1 z      O #2 x      O #2 y      O #2 z




                Electronic contributions to dipole moment
                -----------------------------------------

                               au             Debye

                    z      1.50100812      3.81518275

  Conversion factor used: 1 a.u. =   2.54174691 Debye 



   Electronic contributions to static part of dipole moment derivatives
   --------------------------------------------------------------------


                     Total dipole moment derivatives
                     -------------------------------


           Symmetry 1
                              Ez

               C #1 z    -5.70082477
               O #2 z    -8.29917523

           Symmetry 2
                              Ex

               C #1 x    -5.68983262
               O #2 x    -8.31016738

           Symmetry 3
                              Ey

               C #1 y    -5.68983262
               O #2 y    -8.31016738



                       Ex          Ey          Ez

      C #1    x   -5.689833    0.000000    0.000000
      C #1    y    0.000000   -5.689833    0.000000
      C #1    z    0.000000    0.000000   -5.700825

      O #2    x   -8.310167    0.000000    0.000000
      O #2    y    0.000000   -8.310167    0.000000
      O #2    z    0.000000    0.000000   -8.299175

 Evaluation of 1e integral derivatives required    1.84 seconds.
                    8815  records have been written to the Sort file.
  Total length of Sort file :             180513570  words.
 Evaluation of 2el integral derivatives

                      Two-electron integral gradient
                      ------------------------------

                         C #1 z    -6.4451910649
                         O #2 z     6.4451910649


 C #1       0.0000000000            0.0000000000           -6.4451910649
 O #2       0.0000000000            0.0000000000            6.4451910649


 Evaluation of 2e integral derivatives required  717.12 seconds.

                            Molecular gradient
                            ------------------

                         C #1 z     0.5087174685
                         O #2 z    -0.5087174685


 C #1       0.0000000000            0.0000000000            0.5087174685
 O #2       0.0000000000            0.0000000000           -0.5087174685


  Molecular gradient norm 0.719E+00

                            Molecular hessian
                            -----------------


           Symmetry 1

           C #1 z      O #2 z

 C #1 z    8.072840
 O #2 z   -8.072840    8.072840


           Symmetry 2

           C #1 x      O #2 x

 C #1 x    9.987135
 O #2 x   -9.987135    9.987135


           Symmetry 3

           C #1 y      O #2 y

 C #1 y    9.987135
 O #2 y   -9.987135    9.987135




           C #1 x      C #1 y      C #1 z      O #2 x      O #2 y      O #2 z

 C #1 x    9.987135
 C #1 y    0.000000    9.987135
 C #1 z    0.000000    0.000000    8.072840

 O #2 x   -9.987135    0.000000    0.000000    9.987135
 O #2 y    0.000000   -9.987135    0.000000    0.000000    9.987135
 O #2 z    0.000000    0.000000   -8.072840    0.000000    0.000000    8.072840




                           Total dipole moment
                           -------------------

                               au             Debye

                    z      0.58846858      1.49573820

  Conversion factor used: 1 a.u. =   2.54174691 Debye 



                     Total dipole moment derivatives
                     -------------------------------


           Symmetry 1
                              Ez

               C #1 z     0.44226392
               O #2 z    -0.44226392

           Symmetry 2
                              Ex

               C #1 x     0.19200015
               O #2 x    -0.19200015

           Symmetry 3
                              Ey

               C #1 y     0.19200015
               O #2 y    -0.19200015



                       Ex          Ey          Ez

      C #1    x    0.192000    0.000000    0.000000
      C #1    y    0.000000    0.192000    0.000000
      C #1    z    0.000000    0.000000    0.442264

      O #2    x   -0.192000    0.000000    0.000000
      O #2    y    0.000000   -0.192000    0.000000
      O #2    z    0.000000    0.000000   -0.442264

 @CHECKOUT-I, Total execution time (CPU/WALL):      718.95/     129.36 seconds.
--executable xvdint finished with status     0 in      129.56 seconds (walltime).
 --invoking executable--
/nfs/workspaces/public/cfour_mpi/bin/xjoda
  @GTFLGS-I, Hessian will be transformed to curvilinear coordinates.
  @GTFLGS-I, Hessian will be transformed to curvilinear coordinates.
  igrd and ihes are                      0                     1
  gradient from JOBARC 
   0.000000000000000   0.000000000000000   0.508717468514060
   0.000000000000000   0.000000000000000  -0.508717468514060
 
  @PROJFCM-I, Projecting force constant matrix onto totally symmetric subspace.
  Largest difference between matrix elements of symmetrized
  and unsymmetrized FCM :     0.3161915174E-12.
  read isotopes from ZMAT file 
 
  Summary of diagonal Born-Oppenheimer correction at the correlated level
  The total diagonal Born-Oppenheimer correction (DBOC) is:      0.0040064263 a.u.
  The total diagonal Born-Oppenheimer correction (DBOC) is:        879.308945 cm-1
  The total diagonal Born-Oppenheimer correction (DBOC) is:            10.519 kJ/mole
  hellooooooo 
  readis is  F
 
 @CHECKOUT-I, Total execution time (CPU/WALL):        0.01/       0.12 seconds.
--executable xjoda finished with status     0 in        0.21 seconds (walltime).
  The final electronic energy is      -113.014658905824263 a.u. 
  This computation required                         4374.79 seconds (walltime).
