 --invoking executable--
/nfs/workspaces/public/cfour_mpi/bin/xjoda


   *************************************************************************
         <<<     CCCCCC     CCCCCC   |||     CCCCCC     CCCCCC   >>>
       <<<      CCC        CCC       |||    CCC        CCC         >>>
      <<<      CCC        CCC        |||   CCC        CCC            >>>
    <<<        CCC        CCC        |||   CCC        CCC              >>>
      <<<      CCC        CCC        |||   CCC        CCC            >>>
       <<<      CCC        CCC       |||    CCC        CCC         >>>
         <<<     CCCCCC     CCCCCC   |||     CCCCCC     CCCCCC   >>>
   *************************************************************************

     ****************************************************************
     * CFOUR Coupled-Cluster techniques for Computational Chemistry *
     ****************************************************************
 

   Department of Chemistry                Institut fuer Physikalische Chemie
   University of Florida                  Universitaet Mainz
   Gainesville, FL 32611, USA             D-55099 Mainz, Germany

   Department of Chemistry                Fakultaet fuer Chemie und Biowiss.
   Johns Hopkins University               Karlsruher Institut fuer Technologie
   Baltimore, MD 21218, USA               D-76131 Karlsruhe, Germany

   Department of Chemistry                Department of Physical Chemistry
   Southern Methodist University          Eotvos Lorand University
   Dallas, TX 75275, USA                  H-1053 Budapest, Hungary

 
                       Version 2.1
 
                     vincent.theory.phys.ucl.ac.uk                     
                     Fri 28 Feb 10:40:53 GMT 2025                      
                     integer*8 version is running
 
********************************************************************************
*                          Input from ZMAT file                                *
********************************************************************************
Carbon Monoxide DBOC calculation                                                
C                                                                               
O 1 r                                                                           
                                                                                
r=1.6137931034482758                                                            
                                                                                
                                                                                
*CFOUR(CALC=CCSD,BASIS=AUG-PCVQZ,SCF_CONV=10                                    
CC_CONV=14,DBOC=ON,MEMORY=500000000                                             
ZFIELD=200)                                                                     
                                                                                
%isotopes                                                                       
13                                                                              
16                                                                              
********************************************************************************
  @GTFLGS-I, Hessian will be transformed to curvilinear coordinates.
    -------------------------------------------------------------------
                    CFOUR Control Parameters 
    -------------------------------------------------------------------
        External           Internal           Value            Units
          Name               Name
    -------------------------------------------------------------------
       ABCDTYPE             IABCDT         STANDARD    [  0]    ***   
       ANHARMONIC           IANHAR         OFF         [  0]    ***   
       ANH_ALGORIT          IANALG         STANDARD    [  0]    ***   
       ANH_DERIVAT          IANDER         SECOND      [  1]    ***   
       ANH_MODE             ANHMOD         VIBRATION   [  0]    ***   
       ANH_STEPSIZ          ICUBST             50000          x 10-6  
       ANH_SYMMETR          IANHSM         ABELIAN     [  0]    ***   
       AO_LADDERS           IAOLAD         SINGLEPASS  [  1]    ***   
       AV_SCF               IAVSCF         OFF         [  0]    ***   
       BASIS                IBASIS         AUG-PCVQZ   [ 52]    ***   
       BOTHVECTORS          BOTHVC         OFF         [  0]    ***   
       BOX_POTENT           IPIAB          OFF         [  0]    ***   
       BREIT                IBREIT         OFF         [  0]    ***   
       BRUCK_CONV           IBRTOL          10D-  4             ***   
       BRUECKNER            IBRKNR         OFF         [  0]    ***   
       BUFFERSIZE           IBUFFS              4096            ***   
       CACHE_RECS           ICHREC             10               ***   
       CALCLEVEL            ICLLVL         CCSD        [ 10]    ***   
       CCORBOPT             ICCORB         OFF         [  0]  x 0.01  
       CC_CONV              ICCCNV          10D- 14             ***   
       CC_EXPORDER          ICCEOR              5               ***   
       CC_EXTRAPOL          ICCEXT         DIIS        [  1]    ***   
       CC_GUESS             ICCGES         MP2         [  0]    ***   
       CC_MAXCYC            ICCCYC            100              cycles 
       CC_PROGRAM           ICCPRO         VCC         [  0]    ***   
       CHARGE               ICHRGE              0               ***   
       CHOLESKY             ICHOLE         OFF         [  0]    ***   
       CIS_CONV             ICISTL              5               ***   
       COMM_SIZE            IPSIZE            ***               ***   
       CONSTANT             ICONST         OLD         [  1]    ***   
       CONTINUUM            ICONTU         NONE        [  0]    ***   
       CONTRACTION          ICNTYP         GENERAL     [  1]    ***   
       COORDINATES          ICOORD         INTERNAL    [  0]    ***   
       CPHF_CONVER          ICPHFT          10D- 16             ***   
       CPHF_MAXCYC          ICPHFC             64              cycles 
       CUBIC                ICUBIC         OFF         [  0]    ***   
       CURVILINEAR          ICURVY         ON          [  1]    ***   
       DBOC                 IDBOC          ON          [  1]    ***   
       DCT                  IDCT           OFF         [  0]    ***   
       DERIV_LEV            IDRLVL         SECOND      [  2]    ***   
       DEVMEM_SIZE          IDVMEM          50000000           MByte  
       DIAG_MRCC            IEOMST          10D-  0             ***   
       DIFF_TYPE            IDIFTY         RELAXED     [  0]    ***   
       DIRECT               IDIRCT         OFF         [  0]    ***   
       DROPMO               IDRPMO      NONE         
       ECP                  IECP           OFF         [  0]    ***   
       EIGENVECTOR          IVEC                1               ***   
       EL_ANHARM            IELANH         OFF         [  0]    ***   
       EOMFOLLOW            IEOMSR         ENERGY      [  0]    ***   
       EOMIP                IEOMIP         OFF         [  0]    ***   
       EOMLEVEL             HBARFM         SAME        [  0]    ***   
       EOM_MRCC             IMRCCE         NEW         [  1]    ***   
       EOM_NONIT            EOMNON         OFF         [  0]    ***   
       EOM_NSING            IEOMSI          10D-  0             ***   
       EOM_NSTATES          IMRCCD         DAVIDSON    [  0]    ***   
       EOM_NTRIP            IEOMTR          10D-  0             ***   
       EOM_ORDER            IEXORD         ENERGY      [  0]    ***   
       EOM_PROPSTA          IEOMST              0               ***   
       ESTATE_CONV          IEXTOL          10D-  5             ***   
       ESTATE_DIAG          IEXDIG         ITERATIVE   [  0]    ***   
       ESTATE_LOCK          IESLOC         ON          [  1]    ***   
       ESTATE_MAXC          IEXMXC             40               ***   
       ESTATE_PROP          IEXPRP         OFF         [  0]    ***   
       EVAL_HESS            IRECAL              0            # of cyc.
       EXCITATION           IEXCIT              0               ***   
       EXCITE               IEXCIT         NONE        [  0]    ***   
       EXTERN_POT           IEXPOT         OFF         [  0]    ***   
       FCGRADNEW            IFCGNW         OFF         [  0]    ***   
       FC_FIELD             IFINFC              0             x 10-6  
       FD_CALTYPE           IFDCAL         GRADONLY    [  0]    ***   
       FD_PROJECT           IFDPRJ         OFF         [  1]    ***   
       FD_STEPSIZE          IDISFD              0            10-4 bohr
       FD_USEGROUP          IFDGRP         FULL        [  0]    ***   
       FILE_RECSIZ          IFLREC              4096           words  
       FINITE_PERT          IFIPER              0             x 10-6  
       FIXGEOM              IFIXGM         OFF         [  0]    ***   
       FOCK                 IFOCK          AO          [  1]    ***   
       FREQ_ALGORI          IVIALG         STANDARD    [  0]    ***   
       FROZEN_CORE          IFROCO         OFF         [  0]    ***   
       GAMMA_ABCD           IGABCD         STORE       [  0]    ***   
       GAMMA_ABCI           IGABCI         STORE       [  0]    ***   
       GENBAS_1             IGNBS1              0               ***   
       GENBAS_2             IGNBS2              0               ***   
       GENBAS_3             IGNBS3              0               ***   
       GENBAS_4             IGNBS4              0               ***   
       GEO_CONV             ICONTL              5              H/bohr 
       GEO_MAXCYC           IOPTCY             50               ***   
       GEO_MAXSTEP          IMXSTP            300            millibohr
       GEO_METHOD           INR            SINGLE_POINT[  5]    ***   
       GIAO                 IGIAO          OFF         [  1]    ***   
       GIMIC                IGIMIC         OFF         [  0]    ***   
       GRID                 IGRID          OFF         [  0]    ***   
       GRID_ALGO            IGALGO         SERIAL      [  0]    ***   
       GUESS                IGUESS         MOREAD      [  0]    ***   
       HBAR                 IHBAR          OFF         [  0]    ***   
       HESS_TYPE            IHESTP         SCF         [  0]    ***   
       HF2_FILE             IHF2Fl         USE         [  1]    ***   
       HFSTABILITY          ISTABL         OFF         [  0]    ***   
       INCORE               INCORE         OFF         [  0]    ***   
       INPUT_MRCC           IMRCC          ON          [  1]    ***   
       INTEGRALS            INTTYP         VMOL        [  1]    ***   
       JODA_PRINT           IJPRNT              0               ***   
       KEYWORD_OUT          IDMPKW         NO          [  0]    ***   
       LINDEP_TOL           ILINDP              8               ***   
       LINEQ_CONV           IZTACN          10D-  7           cycles  
       LINEQ_EXPOR          ILMAXD              5               ***   
       LINEQ_MAXCY          ILMAXC            100               ***   
       LINEQ_TYPE           ILTYPE         DIIS        [  1]    ***   
       LOCK_ORBOCC          ILOCOC         OFF         [  0]    ***   
       MEMORY_SIZE          IMEMSZ         500000000           words  
       MEM_UNIT             IMEMU          INTEGERWORDS[  0]    ***   
       MRCC                 IMRCCC         OFF         [  0]    ***   
       MULTIPLICTY          IMULTP              1               ***   
       NACOUPLING           IVCOUP         OFF         [  0]    ***   
       NEGEVAL              IDIE           ABORT       [  0]    ***   
       NEWNORM              INEWNO         OFF         [  0]    ***   
       NON-HF               INONHF         OFF         [  0]    ***   
       NTOP_TAMP            ITOPT2             15               ***   
       NUC_MODEL            INUCMO         POINT       [  0]    ***   
       OCCUPATION           IOCCU   ESTIMATED BY SCF 
       OPEN-SHELL           IOPEN          SPIN-ORBITAL[  0]    ***   
       OPTVIB               IOPTVB         OFF         [  0]    ***   
       ORBITALS             IORBTP         STANDARD    [  0]    ***   
       PARALLEL             IPARAL         ON          [  1]    ***   
       PARA_INT             IPINTS         ON          [  1]    ***   
       PARA_PRINT           IPPRIN              0               ***   
       PERT_ORB             IPTORB         STANDARD    [  0]    ***   
       POINTS               IGRDFD              0               ***   
       PRINT                IPRNT               0               ***   
       PROPS                IPROPS         OFF         [  0]    ***   
       PROP_INTEGR          IINTYP         INTERNAL    [  0]    ***   
       PSI                  IPSI           OFF         [  0]    ***   
       QC_ALG               IQCALG         FLM         [  0]    ***   
       QC_LINALG            IQCLIN         TRIDIAG     [  2]    ***   
       QC_MAXCYC            IQCMAX          10D-100           cycles  
       QC_MAXSCFCY          IQCMSC          10D- 15           cycles  
       QC_RTRUST            IQCRTR          10D-  0           x 10-3  
       QC_SKIPSCF           IQCSKI         OFF         [  0]    ***   
       QC_START             IQCSTA          10D-  1             ***   
       QRHFGUESS            IQGUES         OFF         [  0]    ***   
       QUARTIC              IQUART         OFF         [  0]    ***   
       RAMAN_INT            IRAMIN         OFF         [  0]    ***   
       RAMAN_ORB            IRAMRE         UNRELAXED   [  0]    ***   
       RDO                  IRDOFM         ON          [  1]    ***   
       REDUCE_REPR          REDREP         Ir          [  0]    ***   
       REFERENCE            IREFNC         RHF         [  0]    ***   
       RELATIVIST           IRELAT         OFF         [  0]    ***   
       RELAX_DENS           IRDENS         ON          [  1]    ***   
       RESET_FLAGS          IRESET         OFF         [  0]    ***   
       RESTART_CC           ICCRES         OFF         [  0]    ***   
       ROT_EVEC             ROTVEC              0               ***   
       SAVE_INTS            ISVINT         OFF         [  0]    ***   
       SCALE_ON             ISTCRT              0               ***   
       SCF_CONV             ISCFCV          10D- 10             ***   
       SCF_DAMPING          IDAMP               0             x 10-3  
       SCF_EXPORDE          IRPPOR              6               ***   
       SCF_EXPSTAR          IRPPLS              8               ***   
       SCF_EXTRAPO          IRPP           ON          [  1]    ***   
       SCF_MAXCYC           ISCFCY            150              cycles 
       SCF_NOSTOP           ISCFST         OFF         [  0]    ***   
       SCF_PRINT            ISCFPR              0               ***   
       SCF_PROG             ISCFPR         SCF         [  0]    ***   
       SD_FIELD             IFINSD              0             x 10-6  
       SOPERT               IPERSO         OFF         [  0]    ***   
       SPHERICAL            IDFGHI         ON          [  1]    ***   
       SPINORBIT            ISOCAL         OFF         [  0]    ***   
       SPINROTATIO          ISRCON         OFF         [  0]    ***   
       SPIN_FLIP            ISPFLP         OFF         [  0]    ***   
       SPIN_ORBIT           ISPORB         OFF         [  0]    ***   
       SPIN_SCAL            ISCSMP         OFF         [  0]    ***   
       STEEPSCALE           ISTPSC              1000          x 10-3  
       SUBGROUP             ISUBGP         DEFAULT     [  0]    ***   
       SUBGRPAXIS           ISBXYZ         X           [  0]    ***   
       SYMMETRY             ISYM           ON          [  0]    ***   
       SYM_CHECK            ISYMCK         OVERRIDE    [  1]    ***   
       T3_EXTRAPOL          IT3EXT         OFF         [  0]    ***   
       T4_EXTRAPOL          IT4EXP         OFF         [  0]    ***   
       TAMP_SUM             IEVERY              5               ***   
       TESTSUITE            ITESTS         OFF         [  0]    ***   
       THERMOCH             ITHERM         OFF         [  0]    ***   
       TOL_CHOLESK          ITOLCH          10D-  4             ***   
       TRANGRAD             IRESRM         OFF         [  0]    ***   
       TRANS_INV            ITRAIN         IGNORE      [  1]    ***   
       TREAT_PERT           ITREAT         SIMULTANEOUS[  0]    ***   
       TRIP_ALGORI          ITRALG         NORMAL      [  0]    ***   
       UIJ_THRESHO          IUIJTH              1               ***   
       UNITS                IUNITS         ANGSTROM    [  0]    ***   
       UNOS                 IUNOS          OFF         [  0]    ***   
       UPDATE_HESS          IHUPDT         ON          [  1]    ***   
       VIBPHASE             ISETPH         STANDARD    [  0]    ***   
       VIBRATION            IVIB           ANALYTIC    [  1]    ***   
       VIB_ALGORIT          IGEALG         STANDARD    [  0]    ***   
       VNATORB              IVNORB         OFF         [  0]    ***   
       VTRAN                IVTRAN         FULL/PARTIAL[  0]    ***   
       XFIELD               IXEFLD              0             x 10-6  
       XFORM_TOL            IXFTOL          10D- 11             ***   
       YFIELD               IYEFLD              0             x 10-6  
       ZFIELD               IZEFLD            200             x 10-6  
       ZSCALE_EXP           IZEXPS         OFF         [  0]    ***   
    -------------------------------------------------------------------
   2 entries found in Z-matrix 
   Job Title : Carbon Monoxide DBOC calculation                                                
   There are  1 unique internal coordinates.
   Of these,  0 will be optimized.
   User supplied Z-matrix: 
--------------------------------------------------------------------------------
       SYMBOL    BOND      LENGTH    ANGLE     ANGLE     DIHED     ANGLE
                  TO      (ANGST)    WRT      (DEG)      WRT      (DEG)
--------------------------------------------------------------------------------
        C    
        O          1         r    
                  *Initial values for internal coordinates* 
                      Name             Value
                        r               1.6137931034
--------------------------------------------------------------------------------
  read isotopes from ZMAT file 
   Rotational constants (in cm-1): 
          0.9024758435             0.9024758435
   Rotational constants (in MHz): 
      27055.5489310787         27055.5489310787
********************************************************************************
   The full molecular point group is CXv .
   The largest Abelian subgroup of the full molecular point group is C2v .
   The computational point group is C2v .
********************************************************************************
--------------------------------------------------------------------------------
   Analysis of internal coordinates specified by Z-matrix 
--------------------------------------------------------------------------------
   *The nuclear repulsion energy is   15.739626564102563 a.u.
   *There is   1 degree of freedom within the tot. symm. molecular subspace.
   *Z-matrix requests optimization of   0 coordinates.
   *The optimization is constrained.
   *The following   1 parameters can have non-zero 
    derivatives within the totally symmetric subspace:
             r    [ 1]
   *The following   0 parameters are to be optimized:

   *The following coordinates must be varied in an  unconstrained optimization.
             r    [ 1]
--------------------------------------------------------------------------------


 ----------------------------------------------------------------
         Coordinates used in calculation (QCOMP) 
 ----------------------------------------------------------------
 Z-matrix   Atomic            Coordinates (in bohr)
  Symbol    Number           X              Y              Z
 ----------------------------------------------------------------
     C         6        -0.00000000     0.00000000     1.68211878
     O         8         0.00000000     0.00000000    -1.36750885
 ----------------------------------------------------------------
 
   Interatomic distance matrix (Angstroms) 
 
                 C             O    
                [ 1]        [ 2]
  C    [ 1]     0.00000
  O    [ 2]     1.61379     0.00000
 rotcon2
   Rotational constants (in cm-1): 
          0.9024758435             0.0000000000
   Rotational constants (in MHz): 
      27055.5489310787             0.0000000000
  ECPDATA file not present.   Using default ECPDATA. 
  @GTFLGS-I, Hessian will be transformed to curvilinear coordinates.
  There are  218 basis functions.
 @CHECKOUT-I, Total execution time (CPU/WALL):        0.27/       0.31 seconds.
--executable xjoda finished with status     0 in        0.34 seconds (walltime).
 --invoking executable--
/nfs/workspaces/public/cfour_mpi/bin/xvmol
 SERIAL VERSION OF MOLECULE STARTED
********************************************************************************
                    INPUT FROM MOL FILE
********************************************************************************
INTGRL        1    0    1    0    0    0    0    0    0                         
         *** CFOUR Program System (Release V0.1) ***                            
Carbon Monoxide DBOC calculation                                                
    2    2 X  Y       0.10E-08              0    0                              
   9999.00      3.00                                                            
          6.00000000    1    5    1    1    1    1    1                         
C #1  -0.000000000000000   0.000000000000000   1.682118776517984                
   16    9                                                                      
   33980.0000000000       9.100000000000000E-005 -1.900000000000000E-005        
  0.000000000000000E+000  0.000000000000000E+000  0.000000000000000E+000        
  0.000000000000000E+000  0.000000000000000E+000  0.000000000000000E+000        
  0.000000000000000E+000                                                        
   5089.00000000000       7.040000000000000E-004 -1.510000000000000E-004        
  0.000000000000000E+000  0.000000000000000E+000  0.000000000000000E+000        
  0.000000000000000E+000  0.000000000000000E+000  0.000000000000000E+000        
  0.000000000000000E+000                                                        
   1157.00000000000       3.693000000000000E-003 -7.850000000000000E-004        
  0.000000000000000E+000  0.000000000000000E+000  0.000000000000000E+000        
  0.000000000000000E+000  0.000000000000000E+000  0.000000000000000E+000        
  0.000000000000000E+000                                                        
   326.600000000000       1.536000000000000E-002 -3.324000000000000E-003        
  0.000000000000000E+000  0.000000000000000E+000  0.000000000000000E+000        
  0.000000000000000E+000  0.000000000000000E+000  0.000000000000000E+000        
  0.000000000000000E+000                                                        
   106.100000000000       5.292900000000000E-002 -1.151200000000000E-002        
  0.000000000000000E+000  0.000000000000000E+000  0.000000000000000E+000        
  0.000000000000000E+000  0.000000000000000E+000  0.000000000000000E+000        
  0.000000000000000E+000                                                        
   38.1100000000000       0.147043000000000      -3.416000000000000E-002        
  0.000000000000000E+000  0.000000000000000E+000  0.000000000000000E+000        
  0.000000000000000E+000  0.000000000000000E+000  0.000000000000000E+000        
  0.000000000000000E+000                                                        
   14.7500000000000       0.305631000000000      -7.717300000000001E-002        
  0.000000000000000E+000  0.000000000000000E+000  0.000000000000000E+000        
  0.000000000000000E+000  0.000000000000000E+000  0.000000000000000E+000        
  0.000000000000000E+000                                                        
   6.03500000000000       0.399345000000000      -0.141493000000000             
  0.000000000000000E+000  0.000000000000000E+000  0.000000000000000E+000        
  0.000000000000000E+000  0.000000000000000E+000  0.000000000000000E+000        
  0.000000000000000E+000                                                        
   2.53000000000000       0.217051000000000      -0.118019000000000             
  0.000000000000000E+000  0.000000000000000E+000  0.000000000000000E+000        
  0.000000000000000E+000  0.000000000000000E+000  0.000000000000000E+000        
  0.000000000000000E+000                                                        
  0.735500000000000       1.589400000000000E-002  0.273806000000000             
   1.00000000000000       0.000000000000000E+000  0.000000000000000E+000        
  0.000000000000000E+000  0.000000000000000E+000  0.000000000000000E+000        
  0.000000000000000E+000                                                        
  0.290500000000000      -3.084000000000000E-003  0.586510000000000             
  0.000000000000000E+000   1.00000000000000       0.000000000000000E+000        
  0.000000000000000E+000  0.000000000000000E+000  0.000000000000000E+000        
  0.000000000000000E+000                                                        
  0.111100000000000       9.779999999999999E-004  0.285430000000000             
  0.000000000000000E+000  0.000000000000000E+000   1.00000000000000             
  0.000000000000000E+000  0.000000000000000E+000  0.000000000000000E+000        
  0.000000000000000E+000                                                        
   7.21600000000000       0.000000000000000E+000  0.000000000000000E+000        
  0.000000000000000E+000  0.000000000000000E+000  0.000000000000000E+000        
   1.00000000000000       0.000000000000000E+000  0.000000000000000E+000        
  0.000000000000000E+000                                                        
   19.5700000000000       0.000000000000000E+000  0.000000000000000E+000        
  0.000000000000000E+000  0.000000000000000E+000  0.000000000000000E+000        
  0.000000000000000E+000   1.00000000000000       0.000000000000000E+000        
  0.000000000000000E+000                                                        
   53.0730000000000       0.000000000000000E+000  0.000000000000000E+000        
  0.000000000000000E+000  0.000000000000000E+000  0.000000000000000E+000        
  0.000000000000000E+000  0.000000000000000E+000   1.00000000000000             
  0.000000000000000E+000                                                        
  4.145000000000000E-002  0.000000000000000E+000  0.000000000000000E+000        
  0.000000000000000E+000  0.000000000000000E+000  0.000000000000000E+000        
  0.000000000000000E+000  0.000000000000000E+000  0.000000000000000E+000        
   1.00000000000000                                                             
   10    8                                                                      
   34.5100000000000       5.378000000000000E-003  0.000000000000000E+000        
  0.000000000000000E+000  0.000000000000000E+000  0.000000000000000E+000        
  0.000000000000000E+000  0.000000000000000E+000  0.000000000000000E+000        
   7.91500000000000       3.613200000000000E-002  0.000000000000000E+000        
  0.000000000000000E+000  0.000000000000000E+000  0.000000000000000E+000        
  0.000000000000000E+000  0.000000000000000E+000  0.000000000000000E+000        
   2.36800000000000       0.142493000000000       0.000000000000000E+000        
  0.000000000000000E+000  0.000000000000000E+000  0.000000000000000E+000        
  0.000000000000000E+000  0.000000000000000E+000  0.000000000000000E+000        
  0.813200000000000       0.342150000000000        1.00000000000000             
  0.000000000000000E+000  0.000000000000000E+000  0.000000000000000E+000        
  0.000000000000000E+000  0.000000000000000E+000  0.000000000000000E+000        
  0.289000000000000       0.463864000000000       0.000000000000000E+000        
   1.00000000000000       0.000000000000000E+000  0.000000000000000E+000        
  0.000000000000000E+000  0.000000000000000E+000  0.000000000000000E+000        
  0.100700000000000       0.250028000000000       0.000000000000000E+000        
  0.000000000000000E+000   1.00000000000000       0.000000000000000E+000        
  0.000000000000000E+000  0.000000000000000E+000  0.000000000000000E+000        
   8.18200000000000       0.000000000000000E+000  0.000000000000000E+000        
  0.000000000000000E+000  0.000000000000000E+000   1.00000000000000             
  0.000000000000000E+000  0.000000000000000E+000  0.000000000000000E+000        
   24.1860000000000       0.000000000000000E+000  0.000000000000000E+000        
  0.000000000000000E+000  0.000000000000000E+000  0.000000000000000E+000        
   1.00000000000000       0.000000000000000E+000  0.000000000000000E+000        
   71.4940000000000       0.000000000000000E+000  0.000000000000000E+000        
  0.000000000000000E+000  0.000000000000000E+000  0.000000000000000E+000        
  0.000000000000000E+000   1.00000000000000       0.000000000000000E+000        
  3.218000000000000E-002  0.000000000000000E+000  0.000000000000000E+000        
  0.000000000000000E+000  0.000000000000000E+000  0.000000000000000E+000        
  0.000000000000000E+000  0.000000000000000E+000   1.00000000000000             
    6    6                                                                      
   1.84800000000000        1.00000000000000       0.000000000000000E+000        
  0.000000000000000E+000  0.000000000000000E+000  0.000000000000000E+000        
  0.000000000000000E+000                                                        
  0.649000000000000       0.000000000000000E+000   1.00000000000000             
  0.000000000000000E+000  0.000000000000000E+000  0.000000000000000E+000        
  0.000000000000000E+000                                                        
  0.228000000000000       0.000000000000000E+000  0.000000000000000E+000        
   1.00000000000000       0.000000000000000E+000  0.000000000000000E+000        
  0.000000000000000E+000                                                        
   8.65600000000000       0.000000000000000E+000  0.000000000000000E+000        
  0.000000000000000E+000   1.00000000000000       0.000000000000000E+000        
  0.000000000000000E+000                                                        
   33.2130000000000       0.000000000000000E+000  0.000000000000000E+000        
  0.000000000000000E+000  0.000000000000000E+000   1.00000000000000             
  0.000000000000000E+000                                                        
  7.660000000000000E-002  0.000000000000000E+000  0.000000000000000E+000        
  0.000000000000000E+000  0.000000000000000E+000  0.000000000000000E+000        
   1.00000000000000                                                             
    4    4                                                                      
   1.41900000000000        1.00000000000000       0.000000000000000E+000        
  0.000000000000000E+000  0.000000000000000E+000                                
  0.485000000000000       0.000000000000000E+000   1.00000000000000             
  0.000000000000000E+000  0.000000000000000E+000                                
   24.6940000000000       0.000000000000000E+000  0.000000000000000E+000        
   1.00000000000000       0.000000000000000E+000                                
  0.187000000000000       0.000000000000000E+000  0.000000000000000E+000        
  0.000000000000000E+000   1.00000000000000                                     
    2    2                                                                      
   1.01100000000000        1.00000000000000       0.000000000000000E+000        
  0.424000000000000       0.000000000000000E+000   1.00000000000000             
          8.00000000    1    5    1    1    1    1    1                         
O #2   0.000000000000000   0.000000000000000  -1.367508849938785                
   16    9                                                                      
   61420.0000000000       9.000000000000001E-005 -2.000000000000000E-005        
  0.000000000000000E+000  0.000000000000000E+000  0.000000000000000E+000        
  0.000000000000000E+000  0.000000000000000E+000  0.000000000000000E+000        
  0.000000000000000E+000                                                        
   9199.00000000000       6.980000000000001E-004 -1.590000000000000E-004        
  0.000000000000000E+000  0.000000000000000E+000  0.000000000000000E+000        
  0.000000000000000E+000  0.000000000000000E+000  0.000000000000000E+000        
  0.000000000000000E+000                                                        
   2091.00000000000       3.664000000000000E-003 -8.290000000000000E-004        
  0.000000000000000E+000  0.000000000000000E+000  0.000000000000000E+000        
  0.000000000000000E+000  0.000000000000000E+000  0.000000000000000E+000        
  0.000000000000000E+000                                                        
   590.900000000000       1.521800000000000E-002 -3.508000000000000E-003        
  0.000000000000000E+000  0.000000000000000E+000  0.000000000000000E+000        
  0.000000000000000E+000  0.000000000000000E+000  0.000000000000000E+000        
  0.000000000000000E+000                                                        
   192.300000000000       5.242300000000000E-002 -1.215600000000000E-002        
  0.000000000000000E+000  0.000000000000000E+000  0.000000000000000E+000        
  0.000000000000000E+000  0.000000000000000E+000  0.000000000000000E+000        
  0.000000000000000E+000                                                        
   69.3200000000000       0.145921000000000      -3.626100000000000E-002        
  0.000000000000000E+000  0.000000000000000E+000  0.000000000000000E+000        
  0.000000000000000E+000  0.000000000000000E+000  0.000000000000000E+000        
  0.000000000000000E+000                                                        
   26.9700000000000       0.305258000000000      -8.299200000000000E-002        
  0.000000000000000E+000  0.000000000000000E+000  0.000000000000000E+000        
  0.000000000000000E+000  0.000000000000000E+000  0.000000000000000E+000        
  0.000000000000000E+000                                                        
   11.1000000000000       0.398508000000000      -0.152090000000000             
  0.000000000000000E+000  0.000000000000000E+000  0.000000000000000E+000        
  0.000000000000000E+000  0.000000000000000E+000  0.000000000000000E+000        
  0.000000000000000E+000                                                        
   4.68200000000000       0.216980000000000      -0.115331000000000             
  0.000000000000000E+000  0.000000000000000E+000  0.000000000000000E+000        
  0.000000000000000E+000  0.000000000000000E+000  0.000000000000000E+000        
  0.000000000000000E+000                                                        
   1.42800000000000       1.759400000000000E-002  0.288979000000000             
   1.00000000000000       0.000000000000000E+000  0.000000000000000E+000        
  0.000000000000000E+000  0.000000000000000E+000  0.000000000000000E+000        
  0.000000000000000E+000                                                        
  0.554700000000000      -2.502000000000000E-003  0.586128000000000             
  0.000000000000000E+000   1.00000000000000       0.000000000000000E+000        
  0.000000000000000E+000  0.000000000000000E+000  0.000000000000000E+000        
  0.000000000000000E+000                                                        
  0.206700000000000       9.540000000000000E-004  0.277624000000000             
  0.000000000000000E+000  0.000000000000000E+000   1.00000000000000             
  0.000000000000000E+000  0.000000000000000E+000  0.000000000000000E+000        
  0.000000000000000E+000                                                        
   12.9740000000000       0.000000000000000E+000  0.000000000000000E+000        
  0.000000000000000E+000  0.000000000000000E+000  0.000000000000000E+000        
   1.00000000000000       0.000000000000000E+000  0.000000000000000E+000        
  0.000000000000000E+000                                                        
   34.9000000000000       0.000000000000000E+000  0.000000000000000E+000        
  0.000000000000000E+000  0.000000000000000E+000  0.000000000000000E+000        
  0.000000000000000E+000   1.00000000000000       0.000000000000000E+000        
  0.000000000000000E+000                                                        
   93.8810000000000       0.000000000000000E+000  0.000000000000000E+000        
  0.000000000000000E+000  0.000000000000000E+000  0.000000000000000E+000        
  0.000000000000000E+000  0.000000000000000E+000   1.00000000000000             
  0.000000000000000E+000                                                        
  6.959000000000000E-002  0.000000000000000E+000  0.000000000000000E+000        
  0.000000000000000E+000  0.000000000000000E+000  0.000000000000000E+000        
  0.000000000000000E+000  0.000000000000000E+000  0.000000000000000E+000        
   1.00000000000000                                                             
   10    8                                                                      
   63.4200000000000       6.044000000000000E-003  0.000000000000000E+000        
  0.000000000000000E+000  0.000000000000000E+000  0.000000000000000E+000        
  0.000000000000000E+000  0.000000000000000E+000  0.000000000000000E+000        
   14.6600000000000       4.179900000000000E-002  0.000000000000000E+000        
  0.000000000000000E+000  0.000000000000000E+000  0.000000000000000E+000        
  0.000000000000000E+000  0.000000000000000E+000  0.000000000000000E+000        
   4.45900000000000       0.161143000000000       0.000000000000000E+000        
  0.000000000000000E+000  0.000000000000000E+000  0.000000000000000E+000        
  0.000000000000000E+000  0.000000000000000E+000  0.000000000000000E+000        
   1.53100000000000       0.356731000000000        1.00000000000000             
  0.000000000000000E+000  0.000000000000000E+000  0.000000000000000E+000        
  0.000000000000000E+000  0.000000000000000E+000  0.000000000000000E+000        
  0.530200000000000       0.448309000000000       0.000000000000000E+000        
   1.00000000000000       0.000000000000000E+000  0.000000000000000E+000        
  0.000000000000000E+000  0.000000000000000E+000  0.000000000000000E+000        
  0.175000000000000       0.244940000000000       0.000000000000000E+000        
  0.000000000000000E+000   1.00000000000000       0.000000000000000E+000        
  0.000000000000000E+000  0.000000000000000E+000  0.000000000000000E+000        
   14.4750000000000       0.000000000000000E+000  0.000000000000000E+000        
  0.000000000000000E+000  0.000000000000000E+000   1.00000000000000             
  0.000000000000000E+000  0.000000000000000E+000  0.000000000000000E+000        
   42.7300000000000       0.000000000000000E+000  0.000000000000000E+000        
  0.000000000000000E+000  0.000000000000000E+000  0.000000000000000E+000        
   1.00000000000000       0.000000000000000E+000  0.000000000000000E+000        
   126.140000000000       0.000000000000000E+000  0.000000000000000E+000        
  0.000000000000000E+000  0.000000000000000E+000  0.000000000000000E+000        
  0.000000000000000E+000   1.00000000000000       0.000000000000000E+000        
  5.348000000000000E-002  0.000000000000000E+000  0.000000000000000E+000        
  0.000000000000000E+000  0.000000000000000E+000  0.000000000000000E+000        
  0.000000000000000E+000  0.000000000000000E+000   1.00000000000000             
    6    6                                                                      
   3.77500000000000        1.00000000000000       0.000000000000000E+000        
  0.000000000000000E+000  0.000000000000000E+000  0.000000000000000E+000        
  0.000000000000000E+000                                                        
   1.30000000000000       0.000000000000000E+000   1.00000000000000             
  0.000000000000000E+000  0.000000000000000E+000  0.000000000000000E+000        
  0.000000000000000E+000                                                        
  0.444000000000000       0.000000000000000E+000  0.000000000000000E+000        
   1.00000000000000       0.000000000000000E+000  0.000000000000000E+000        
  0.000000000000000E+000                                                        
   14.9270000000000       0.000000000000000E+000  0.000000000000000E+000        
  0.000000000000000E+000   1.00000000000000       0.000000000000000E+000        
  0.000000000000000E+000                                                        
   57.5440000000000       0.000000000000000E+000  0.000000000000000E+000        
  0.000000000000000E+000  0.000000000000000E+000   1.00000000000000             
  0.000000000000000E+000                                                        
  0.154000000000000       0.000000000000000E+000  0.000000000000000E+000        
  0.000000000000000E+000  0.000000000000000E+000  0.000000000000000E+000        
   1.00000000000000                                                             
    4    4                                                                      
   2.66600000000000        1.00000000000000       0.000000000000000E+000        
  0.000000000000000E+000  0.000000000000000E+000                                
  0.859000000000000       0.000000000000000E+000   1.00000000000000             
  0.000000000000000E+000  0.000000000000000E+000                                
   26.4830000000000       0.000000000000000E+000  0.000000000000000E+000        
   1.00000000000000       0.000000000000000E+000                                
  0.324000000000000       0.000000000000000E+000  0.000000000000000E+000        
  0.000000000000000E+000   1.00000000000000                                     
    2    2                                                                      
   1.84600000000000        1.00000000000000       0.000000000000000E+000        
  0.714000000000000       0.000000000000000E+000   1.00000000000000             
FINISH                                                                          
 
********************************************************************************
 ONE- AND TWO-ELECTRON INTEGRALS OVER SYMMETRY-ADAPTED AOS ARE CALCULATED.

  SPHERICAL HARMONICS ARE USED.
  
  INTEGRALS LESS THAN  0.10E-13 ARE NEGLECTED.

  NUCLEAR REPULSION ENERGY :   15.7396265641 A.U.
  @MOLECU-I, ONE ELECTRON INTEGRALS (CPU/WALL):        0.07/       0.07 SECONDS.
  @TWOEL-I,    4426189 INTEGRALS OF SYMMETRY TYPE  I I I I
  @TWOEL-I,   19100688 INTEGRALS OF SYMMETRY TYPE  I J I J
  @TWOEL-I,   10057028 INTEGRALS OF SYMMETRY TYPE  I I J J
  @TWOEL-I,   14115234 INTEGRALS OF SYMMETRY TYPE  I J K L
  @TWOEL-I, TOTAL NUMBER OF 2-E INTEGRALS   47699139.
  @MOLECU-I, TWO ELECTRON INTEGRALS (CPU/WALL):      241.35/      32.31 SECONDS.
 @CHECKOUT-I, Total execution time (CPU/WALL):      241.44/      32.40 seconds.

Running with 14 threads/proc

--executable xvmol finished with status     0 in       32.45 seconds (walltime).
 --invoking executable--
/nfs/workspaces/public/cfour_mpi/bin/xvmol2ja
 @GETMEM-I,  Allocated    3814 MB of main memory.
 @CHECKOUT-I, Total execution time (CPU/WALL):        0.16/       0.06 seconds.
--executable xvmol2ja finished with status     0 in        0.11 seconds (walltime).
 --invoking executable--
/nfs/workspaces/public/cfour_mpi/bin/xvprop
 @GETMEM-I,  Allocated    3814 MB of main memory.
   Property integrals will be calculated.
    --------------------------------------------------------------
                                   Property evaluated at 
    Property type                X             Y             Z
    --------------------------------------------------------------
    Dipole moment               ----          ----          ----  
    Quadrupole moment           ----          ----          ----  
    Octopole moment             ----          ----          ----  
    Relativisitic corr.         ----          ----          ----  
    Second moment            0.0000000     0.0000000     0.0000000
    Electron density         0.0000000     0.0000000     1.6821188
    Electron density         0.0000000     0.0000000    -1.3675088
    Field gradient           0.0000000     0.0000000     1.6821188
    Field gradient           0.0000000     0.0000000    -1.3675088
    Potential                0.0000000     0.0000000     1.6821188
    Potential                0.0000000     0.0000000    -1.3675088
    --------------------------------------------------------------
 @CHECKOUT-I, Total execution time (CPU/WALL):        1.35/       1.40 seconds.
--executable xvprop finished with status     0 in        1.42 seconds (walltime).
 --invoking executable--
/nfs/workspaces/public/cfour_mpi/bin/xvscf
  There are  218 functions in the AO basis.

  There are 4 irreducible representations.

       Irrep        # of functions
         1                 86
         2                 52
         3                 52
         4                 28


  Parameters for SCF calculation: 
        SCF reference function:  RHF  
  Maximum number of iterations:  150
     Full symmetry point group: CXv 
     Computational point group: C2v 
        Initial density matrix: MOREAD                 
     SCF convergence tolerance: 10**(-10)
  DIIS convergence acceleration:  ON
          Latest start for DIIS:   8
                     DIIS order:   6

  Memory information:    2523578 words required.
  Fock matrices are constructed from AO integral file.
 @GETMEM-I,  Allocated      19 MB of main memory.
  Initialization and symmetry analysis required      0.001 seconds.

  Adding electric field perturbation to one-electron Hamiltonian.
  Field direction     : Z
  Field strength      :  0.0002000 a.u.

  @INITGES-I, Occupancies from core Hamiltonian:

          Alpha population by irrep:   5    1    1    0
           Beta population by irrep:   5    1    1    0


 total no. of electrons in initial guess :  0.000000000000000E+000
  --------------------------------------------------------------------
  Iteration         Total Energy            Largest Density Difference
  --------------------------------------------------------------------
       0            15.739796035730210              0.0000000000D+00
   current occupation vector 
     5  1  1  0
     5  1  1  0
       1           -93.612909321004452              0.1755158362D+02
   current occupation vector 
     5  1  1  0
     5  1  1  0
       2           -97.962156405105503              0.1755156870D+02
   current occupation vector 
     5  1  1  0
     5  1  1  0
       3          -100.322485559120238              0.6733934389D+01
   current occupation vector 
     5  1  1  0
     5  1  1  0
       4           -95.169387386916171              0.6729934257D+01
   current occupation vector 
     5  1  1  0
     5  1  1  0
       5          -100.234778634310999              0.6980724363D+01
   current occupation vector 
     5  1  1  0
     5  1  1  0
       6           -94.979588059763216              0.6981119013D+01
   current occupation vector 
     5  1  1  0
     5  1  1  0
       7          -100.226242585354655              0.6994244678D+01
   current occupation vector 
     5  1  1  0
     5  1  1  0
       8           -94.973710096477774              0.6994269323D+01
   current occupation vector 
     5  1  1  0
     5  1  1  0
       9          -107.422297396300650              0.5881456673D+01
   current occupation vector 
     5  1  1  0
     5  1  1  0
      10          -110.588452922605327              0.1329738194D+01
   current occupation vector 
     5  1  1  0
     5  1  1  0
      11          -112.379336599631202              0.1039135206D+01
   current occupation vector 
     5  1  1  0
     5  1  1  0
      12          -112.503285115485127              0.4935585054D+00
   current occupation vector 
     5  1  1  0
     5  1  1  0
      13          -112.520333706223326              0.1269454449D+00
   current occupation vector 
     5  1  1  0
     5  1  1  0
      14          -112.525495729953818              0.8311694094D-01
   current occupation vector 
     5  1  1  0
     5  1  1  0
      15          -112.525875903747576              0.2411652078D-01
   current occupation vector 
     5  1  1  0
     5  1  1  0
      16          -112.526204930133545              0.3416287960D-01
   current occupation vector 
     5  1  1  0
     5  1  1  0
      17          -112.526331520881186              0.2430294010D-01
   current occupation vector 
     5  1  1  0
     5  1  1  0
      18          -112.526357499492448              0.1436298721D-01
   current occupation vector 
     5  1  1  0
     5  1  1  0
      19          -112.526357728792775              0.1240689080D-02
   current occupation vector 
     5  1  1  0
     5  1  1  0
      20          -112.526357730508280              0.7827004086D-04
   current occupation vector 
     5  1  1  0
     5  1  1  0
      21          -112.526357730613555              0.1493102311D-04
   current occupation vector 
     5  1  1  0
     5  1  1  0
      22          -112.526357730615402              0.2160749067D-05
   current occupation vector 
     5  1  1  0
     5  1  1  0
      23          -112.526357730614833              0.3423233642D-06
   current occupation vector 
     5  1  1  0
     5  1  1  0
      24          -112.526357730615402              0.1734639590D-06
   current occupation vector 
     5  1  1  0
     5  1  1  0
      25          -112.526357730615402              0.4808092813D-08
   current occupation vector 
     5  1  1  0
     5  1  1  0
      26          -112.526357730615459              0.4435754875D-08
   current occupation vector 
     5  1  1  0
     5  1  1  0
      27          -112.526357730614919              0.5280375026D-08
   current occupation vector 
     5  1  1  0
     5  1  1  0
      28          -112.526357730615970              0.1953130102D-08
   current occupation vector 
     5  1  1  0
     5  1  1  0
      29          -112.526357730615260              0.1085684875D-09
   current occupation vector 
     5  1  1  0
     5  1  1  0

  SCF has converged.

 Density matrix saved to file den.dat
 total electron number:   14.0000000000000     
     E(SCF)=      -112.526357730615487              0.8673151086D-10

  Eigenvector printing suppressed.

 @PUTMOS-I, Writing converged MOs to NEWMOS. 
 @PUTMOS-I, Symmetry   1 Full Blocks 21 Partial Blocksize   2
 @PUTMOS-I, Symmetry   2 Full Blocks 13 Partial Blocksize   0
 @PUTMOS-I, Symmetry   3 Full Blocks 13 Partial Blocksize   0
 @PUTMOS-I, Symmetry   4 Full Blocks  7 Partial Blocksize   0
 @PUTFOCK-I, Writing converged Fock matrix to NEWFOCK. 
 @PUTFOCK-I, Symmetry   1 Full Blocks 21 Partial Blocksize   2
 @PUTFOCK-I, Symmetry   2 Full Blocks 13 Partial Blocksize   0
 @PUTFOCK-I, Symmetry   3 Full Blocks 13 Partial Blocksize   0
 @PUTFOCK-I, Symmetry   4 Full Blocks  7 Partial Blocksize   0


 
  ORBITAL EIGENVALUES (ALPHA)  (1H = 27.2113834 eV)

       MO #        E(hartree)               E(eV)           FULLSYM    COMPSYM
       ----   --------------------   --------------------   -------   ---------
    1     1         -20.6435674063        -561.7400274375     SG+        A1 (1)
    2     2         -11.5248121843        -313.6060829610     SG+        A1 (1)
    3     3          -1.2722177078         -34.6188038162     SG+        A1 (1)
    4     4          -0.8060708575         -21.9343031511     SG+        A1 (1)
    5     5          -0.5273771312         -14.3506613142     SG+        A1 (1)
    6   139          -0.4950400396         -13.4707243164      PI        B2 (3)
    7    87          -0.4950400396         -13.4707243164      PI        B1 (2)
  +++++++++++++++++++++++++++++++++++++++++++++++++++++++++++++++++++++++++++++
    8   140          -0.0089117397          -0.2425007659      PI        B2 (3)
    9    88          -0.0089117397          -0.2425007659      PI        B1 (2)
   10     6           0.0605043306           1.6464065386     SG+        A1 (1)
   11     7           0.0685067624           1.8641637779     SG+        A1 (1)
   12   141           0.0820734629           2.2333324671      PI        B2 (3)
   13    89           0.0820734629           2.2333324671      PI        B1 (2)
   14     8           0.1565588610           4.2601831927     SG+        A1 (1)
   15    90           0.1797948551           4.8924667367      PI        B1 (2)
   16   142           0.1797948551           4.8924667367      PI        B2 (3)
   17     9           0.1943412668           5.2882947210     SG+        A1 (1)
   18    10           0.2219669163           6.0400268628      DE        A1 (1)
   19   191           0.2219669163           6.0400268628      DE        A2 (4)
   20   143           0.2848841726           7.7520924447      PI        B2 (3)
   21    91           0.2848841726           7.7520924447      PI        B1 (2)
   22    11           0.3009815431           8.1901241662     SG+        A1 (1)
   23    12           0.3087036129           8.4002523674     SG+        A1 (1)
   24   144           0.4058019149          11.0424314902      PI        B2 (3)
   25    92           0.4058019149          11.0424314902      PI        B1 (2)
   26    13           0.4184032220          11.3853304904     SG+        A1 (1)
   27    14           0.5136385596          13.9768157747     SG+        A1 (1)
   28    15           0.5500422975          14.9674118441      DE        A1 (1)
   29   192           0.5500422975          14.9674118441      DE        A2 (4)
   30    93           0.6228002504          16.9472563964      PI        B1 (2)
   31   145           0.6228002504          16.9472563964      PI        B2 (3)
   32    16           0.7034589129          19.1420901854     SG+        A1 (1)
   33    94           0.7308745868          19.8881085997      PH        B1 (2)
   34   146           0.7308745868          19.8881085997      PH        B2 (3)
   35    17           0.7377084850          20.0740684224      DE        A1 (1)
   36   193           0.7377084850          20.0740684224      DE        A2 (4)
   37   147           0.7751792762          21.0937004873      PI        B2 (3)
   38    95           0.7751792762          21.0937004873      PI        B1 (2)
   39    18           0.8178110678          22.2537705142     SG+        A1 (1)
   40    19           0.8577574664          23.3407672817      DE        A1 (1)
   41   194           0.8577574664          23.3407672817      DE        A2 (4)
   42    96           0.8815636805          23.9885673015      PI        B1 (2)
   43   148           0.8815636805          23.9885673015      PI        B2 (3)
   44    20           0.8876884182          24.1552298866     SG+        A1 (1)
   45    97           1.0423799536          28.3646005647      PI        B1 (2)
   46   149           1.0423799536          28.3646005647      PI        B2 (3)
   47    21           1.1357794547          30.9061301992     SG+        A1 (1)
   48    22           1.3558051678          36.8933342375     SG+        A1 (1)
   49   150           1.4203199175          38.6488698245      PH        B2 (3)
   50    98           1.4203199175          38.6488698245      PH        B1 (2)
   51    99           1.4823901373          40.3378863752      PI        B1 (2)
   52   151           1.4823901373          40.3378863752      PI        B2 (3)
   53   195           1.5860547984          43.1587452123      DE        A2 (4)
   54    23           1.5860547984          43.1587452123      DE        A1 (1)
   55    24           1.5872863986          43.1922587584     SG+        A1 (1)
   56   100           1.6387603807          44.5929370186      PI        B1 (2)
   57   152           1.6387603807          44.5929370187      PI        B2 (3)
   58   196           1.6735139172          45.5386288261      DE        A2 (4)
   59    25           1.6735139172          45.5386288261      DE        A1 (1)
   60    26           1.9201423972          52.2497309539     SG+        A1 (1)
   61    27           1.9405036886          52.8037898606     SG+        A1 (1)
   62   101           2.0642441717          56.1709395869      PI        B1 (2)
   63   153           2.0642441717          56.1709395869      PI        B2 (3)
   64   197           2.0660800120          56.2208953414      PI        A2 (4)
   65    28           2.0660800120          56.2208953414      PI        A1 (1)
   66    29           2.1236778904          57.7882132944      DE        A1 (1)
   67   198           2.1236778904          57.7882132944      DE        A2 (4)
   68   154           2.1971415773          59.7872618432      PH        B2 (3)
   69   102           2.1971415773          59.7872618432      PH        B1 (2)
   70   103           2.2077134979          60.0749384277      PH        B1 (2)
   71   155           2.2077134979          60.0749384277      PH        B2 (3)
   72    30           2.2181866891          60.3599284505     SG+        A1 (1)
   73   104           2.2193093685          60.3904781091      PI        B1 (2)
   74   156           2.2193093685          60.3904781091      PI        B2 (3)
   75   199           2.2809449605          62.0676678342      DE        A2 (4)
   76    31           2.2809449605          62.0676678342      DE        A1 (1)
   77    32           2.3886831075          64.9993718596     SG+        A1 (1)
   78   105           2.5027122379          68.1022622456      PI        B1 (2)
   79   157           2.5027122379          68.1022622456      PI        B2 (3)
   80   106           2.5995056006          70.7361435480      PI        B1 (2)
   81   158           2.5995056006          70.7361435480      PI        B2 (3)
   82   200           2.6240086041          71.4029041712      DE        A2 (4)
   83    33           2.6240086041          71.4029041712      DE        A1 (1)
   84    34           2.6432146110          71.9255261877     SG+        A1 (1)
   85    35           2.8945697680          78.7652477347     SG+        A1 (1)
   86   107           3.3656016106          91.5826757978      PI        B1 (2)
   87   159           3.3656016106          91.5826757978      PI        B2 (3)
   88   201           3.7108896910         100.9784421378      PI        A2 (4)
   89    36           3.7108896910         100.9784421378      PI        A1 (1)
   90    37           3.8843574821         105.6987407083     SG+        A1 (1)
   91   160           3.9041664643         106.2377705179      PH        B2 (3)
   92   108           3.9041664643         106.2377705179      PH        B1 (2)
   93    38           4.1032991666         111.6564468276     SG+        A1 (1)
   94   109           4.1410835996         112.6846135197      PH        B1 (2)
   95   161           4.1410835996         112.6846135197      PH        B2 (3)
   96   162           4.1543561854         113.0457789403      PI        B2 (3)
   97   110           4.1543561854         113.0457789403      PI        B1 (2)
   98   202           4.1732255982         113.5592417667      DE        A2 (4)
   99    39           4.1732255982         113.5592417667      DE        A1 (1)
  100   203           4.2974481042         116.9395080040      DE        A2 (4)
  101    40           4.2974481042         116.9395080041      DE        A1 (1)
  102    41           4.3842591520         119.3017567093     SG+        A1 (1)
  103   111           4.5175478577         122.9287267846      PI        B1 (2)
  104   163           4.5175478577         122.9287267846      PI        B2 (3)
  105   204           4.6529276609         126.6125985133      DE        A2 (4)
  106    42           4.6529276609         126.6125985134      DE        A1 (1)
  107    43           4.8044574872         130.7359347135     SG+        A1 (1)
  108   112           5.1293045489         139.5754726557      PI        B1 (2)
  109   164           5.1293045489         139.5754726558      PI        B2 (3)
  110    44           5.1783549841         140.9102028532     SG+        A1 (1)
  111   165           5.3481492532         145.5305398096      PI        B2 (3)
  112   113           5.3481492532         145.5305398097      PI        B1 (2)
  113   205           5.8231470985         158.4558882909      PI        A2 (4)
  114    45           5.8231470985         158.4558882909      PI        A1 (1)
  115   166           5.8941643560         160.3883661131      PH        B2 (3)
  116   114           5.8941643560         160.3883661131      PH        B1 (2)
  117    46           6.0207762011         163.8336495726     SG+        A1 (1)
  118   206           6.0850193829         165.5817954242      DE        A2 (4)
  119    47           6.0850193829         165.5817954242      DE        A1 (1)
  120   115           6.1202862918         166.5414568040      PI        B1 (2)
  121   167           6.1202862918         166.5414568040      PI        B2 (3)
  122    48           6.1743383657         168.0122885116     SG+        A1 (1)
  123    49           6.2924859998         171.2272490808      DE        A1 (1)
  124   207           6.2924859998         171.2272490808      DE        A2 (4)
  125   168           6.3488632889         172.7613531083      PH        B2 (3)
  126   116           6.3488632889         172.7613531083      PH        B1 (2)
  127    50           6.4822035305         176.3897255464      DE        A1 (1)
  128   208           6.4822035305         176.3897255464      DE        A2 (4)
  129   169           6.7642239409         184.0638910589      PI        B2 (3)
  130   117           6.7642239409         184.0638910589      PI        B1 (2)
  131    51           7.0823645099         192.7209360566     SG+        A1 (1)
  132   118           7.1894435520         195.6347049250      PI        B1 (2)
  133   170           7.1894435520         195.6347049250      PI        B2 (3)
  134    52           7.7224175518         210.1376647774     SG+        A1 (1)
  135    53           9.5073628374         258.7084952920     SG+        A1 (1)
  136   171           9.6969792614         263.8682205051      PI        B2 (3)
  137   119           9.6969792615         263.8682205052      PI        B1 (2)
  138    54          10.6600474054         290.0746370097      PI        A1 (1)
  139   209          10.6600474054         290.0746370097      PI        A2 (4)
  140    55          10.6795567192         290.6055124270     SG+        A1 (1)
  141   172          10.7338028751         292.0816253748      PH        B2 (3)
  142   120          10.7338028751         292.0816253748      PH        B1 (2)
  143   210          10.9545901346         298.0895521414      DE        A2 (4)
  144    56          10.9545901346         298.0895521414      DE        A1 (1)
  145   173          10.9783185683         298.7352356505      PI        B2 (3)
  146   121          10.9783185683         298.7352356505      PI        B1 (2)
  147    57          11.1526573949         303.4792363017     SG+        A1 (1)
  148   174          11.8966314933         323.7238007339      PH        B2 (3)
  149   122          11.8966314933         323.7238007339      PH        B1 (2)
  150   211          11.9859331473         326.1538222775      DE        A2 (4)
  151    58          11.9859331473         326.1538222777      DE        A1 (1)
  152   175          12.3116596725         335.0172916377      PI        B1 (3)
  153   123          12.3116596725         335.0172916377      PI        B2 (2)
  154    59          12.5575996931         341.7096598330     SG+        A1 (1)
  155    60          12.7261170970         346.2952515210      DE        A1 (1)
  156   212          12.7261170970         346.2952515211      DE        A2 (4)
  157   176          13.1073782183         356.6698940680      PI        B2 (3)
  158   124          13.1073782183         356.6698940680      PI        B1 (2)
  159    61          13.4575260928         366.1979021275     SG+        A1 (1)
  160    62          17.3134528408         471.1230032276     SG+        A1 (1)
  161   125          18.7047285985         508.9815412874      PI        B1 (2)
  162   177          18.7047285985         508.9815412874      PI        B2 (3)
  163    63          19.5922430511         533.1320373286     SG+        A1 (1)
  164    64          26.2507195865         714.3183951937      DE        A1 (1)
  165   213          26.2507195865         714.3183951937      DE        A2 (4)
  166   126          26.5298493232         721.9139014788      PI        B1 (2)
  167   178          26.5298493232         721.9139014788      PI        B2 (3)
  168    65          26.9869174260         734.3513568620     SG+        A1 (1)
  169   179          33.4037763221         908.9629645094      PI        B2 (3)
  170   127          33.4037763222         908.9629645103      PI        B1 (2)
  171    66          34.2969431508         933.2672695234     SG+        A1 (1)
  172    67          35.5516108741         967.4085139837     SG+        A1 (1)
  173   214          47.0746334054        1280.9658980097      DE        A2 (4)
  174    68          47.0746334054        1280.9658980097      DE        A1 (1)
  175   128          47.2635803969        1286.1074070379      PI        B1 (2)
  176   180          47.2635803969        1286.1074070379      PI        B2 (3)
  177    69          47.4672987805        1291.6508660779     SG+        A1 (1)
  178    70          63.7373625770        1734.3818099871     SG+        A1 (1)
  179   129          66.2918476025        1803.8928814048      PI        B1 (2)
  180   181          66.2918476025        1803.8928814049      PI        B2 (3)
  181    71          66.9473584594        1821.7302386552     SG+        A1 (1)
  182   182          98.5039851584        2680.4297065745      PH        B2 (3)
  183   130          98.5039851584        2680.4297065745      PH        B1 (2)
  184   215          98.5178564246        2680.8071629165      DE        A2 (4)
  185    72          98.5178564246        2680.8071629165      DE        A1 (1)
  186   183          98.5308748672        2681.1614127491      PI        B2 (3)
  187   131          98.5308748672        2681.1614127491      PI        B1 (2)
  188    73          98.5401541883        2681.4139159126     SG+        A1 (1)
  189   216         103.3128876016        2811.2865946888      DE        A2 (4)
  190    74         103.3128876016        2811.2865946890      DE        A1 (1)
  191   184         103.3150155882        2811.3445001477      PH        B2 (3)
  192   132         103.3150155882        2811.3445001477      PH        B1 (2)
  193   185         103.3357408157        2811.9084622577      PI        B2 (3)
  194   133         103.3357408157        2811.9084622577      PI        B1 (2)
  195    75         103.3447894846        2812.1546890564     SG+        A1 (1)
  196   217         114.9547891033        3128.0788399566      DE        A2 (4)
  197    76         114.9547891033        3128.0788399566      DE        A1 (1)
  198   134         115.0906782374        3131.7765712843      PI        B1 (2)
  199   186         115.0906782374        3131.7765712843      PI        B2 (3)
  200    77         115.2981718400        3137.4227592565     SG+        A1 (1)
  201   187         116.7115692272        3175.8832574557      PI        B2 (3)
  202   135         116.7115692272        3175.8832574567      PI        B1 (2)
  203    78         117.4380595514        3195.6520642051     SG+        A1 (1)
  204    79         121.8323658942        3315.2272188764     SG+        A1 (1)
  205   218         198.5572034294        5403.0161893506      DE        A2 (4)
  206    80         198.5572034295        5403.0161893506      DE        A1 (1)
  207   188         198.6602476139        5405.8201641605      PI        B2 (3)
  208   136         198.6602476139        5405.8201641606      PI        B1 (2)
  209    81         198.7650009297        5408.6706468007     SG+        A1 (1)
  210    82         216.2622805902        5884.7958320991     SG+        A1 (1)
  211   137         224.7753498820        6116.4482245089      PI        B1 (2)
  212   189         224.7753498820        6116.4482245090      PI        B2 (3)
  213    83         225.2927643767        6130.5277887010     SG+        A1 (1)
  214   190         395.2465935858       10755.2065956070      PI        B2 (3)
  215   138         395.2465935858       10755.2065956078      PI        B1 (2)
  216    84         395.8108424058       10770.5605865812     SG+        A1 (1)
  217    85         508.5725989008       13838.9639754243     SG+        A1 (1)
  218    86         895.0754328520       24356.2407752580     SG+        A1 (1)


  VSCF finished.

 @CHECKOUT-I, Total execution time (CPU/WALL):       55.76/      12.13 seconds.
--executable xvscf finished with status     0 in       12.17 seconds (walltime).
 --invoking executable--
/nfs/workspaces/public/cfour_mpi/bin/xvtran
 @GETMEM-I,  Allocated    3814 MB of main memory.
  Full RHF integral transformation
  Transformation of IIII integrals :
  1 pass through the AO integral file was required.
     4426189 AO integrals were read.
     8623949 MO integrals were written to HF2.
  Transformation of IIJJ integrals :
  1 pass through the AO integral file was required.
    10057028 AO integrals were read.
    14376717 MO integrals were written to HF2.
  Transformation of IJIJ integrals :
  1 pass through the AO integral file was required.
    19100688 AO integrals were read.
    26723706 MO integrals were written to HF2.
  Transformation of IJKL integrals :
  1 pass through the AO integral file was required.
    14115234 AO integrals were read.
    18078579 MO integrals were written to HF2.
  Summary of active molecular orbitals: 
------------------------------------------------------------------------
 
  Index      Eigenvalue    Symmetry    Index      Eigenvalue    Symmetry
------------------------------------------------------------------------
     1       -20.6435674        1       110         4.1410836        2
     2       -11.5248122        1       111         4.1543562        2
     3        -1.2722177        1       112         4.5175479        2
     4        -0.8060709        1       113         5.1293045        2
     5        -0.5273771        1       114         5.3481493        2
     6        -0.4950400        2       115         5.8941644        2
     7        -0.4950400        3       116         6.1202863        2
     8         0.0605043        1       117         6.3488633        2
     9         0.0685068        1       118         6.7642239        2
    10         0.1565589        1       119         7.1894436        2
    11         0.1943413        1       120         9.6969793        2
    12         0.2219669        1       121        10.7338029        2
    13         0.3009815        1       122        10.9783186        2
    14         0.3087036        1       123        11.8966315        2
    15         0.4184032        1       124        12.3116597        2
    16         0.5136386        1       125        13.1073782        2
    17         0.5500423        1       126        18.7047286        2
    18         0.7034589        1       127        26.5298493        2
    19         0.7377085        1       128        33.4037763        2
    20         0.8178111        1       129        47.2635804        2
    21         0.8577575        1       130        66.2918476        2
    22         0.8876884        1       131        98.5039852        2
    23         1.1357795        1       132        98.5308749        2
    24         1.3558052        1       133       103.3150156        2
    25         1.5860548        1       134       103.3357408        2
    26         1.5872864        1       135       115.0906782        2
    27         1.6735139        1       136       116.7115692        2
    28         1.9201424        1       137       198.6602476        2
    29         1.9405037        1       138       224.7753499        2
    30         2.0660800        1       139       395.2465936        2
    31         2.1236779        1       140        -0.0089117        3
    32         2.2181867        1       141         0.0820735        3
    33         2.2809450        1       142         0.1797949        3
    34         2.3886831        1       143         0.2848842        3
    35         2.6240086        1       144         0.4058019        3
    36         2.6432146        1       145         0.6228003        3
    37         2.8945698        1       146         0.7308746        3
    38         3.7108897        1       147         0.7751793        3
    39         3.8843575        1       148         0.8815637        3
    40         4.1032992        1       149         1.0423800        3
    41         4.1732256        1       150         1.4203199        3
    42         4.2974481        1       151         1.4823901        3
    43         4.3842592        1       152         1.6387604        3
    44         4.6529277        1       153         2.0642442        3
    45         4.8044575        1       154         2.1971416        3
    46         5.1783550        1       155         2.2077135        3
    47         5.8231471        1       156         2.2193094        3
    48         6.0207762        1       157         2.5027122        3
    49         6.0850194        1       158         2.5995056        3
    50         6.1743384        1       159         3.3656016        3
    51         6.2924860        1       160         3.9041665        3
    52         6.4822035        1       161         4.1410836        3
    53         7.0823645        1       162         4.1543562        3
    54         7.7224176        1       163         4.5175479        3
    55         9.5073628        1       164         5.1293045        3
    56        10.6600474        1       165         5.3481493        3
    57        10.6795567        1       166         5.8941644        3
    58        10.9545901        1       167         6.1202863        3
    59        11.1526574        1       168         6.3488633        3
    60        11.9859331        1       169         6.7642239        3
    61        12.5575997        1       170         7.1894436        3
    62        12.7261171        1       171         9.6969793        3
    63        13.4575261        1       172        10.7338029        3
    64        17.3134528        1       173        10.9783186        3
    65        19.5922431        1       174        11.8966315        3
    66        26.2507196        1       175        12.3116597        3
    67        26.9869174        1       176        13.1073782        3
    68        34.2969432        1       177        18.7047286        3
    69        35.5516109        1       178        26.5298493        3
    70        47.0746334        1       179        33.4037763        3
    71        47.4672988        1       180        47.2635804        3
    72        63.7373626        1       181        66.2918476        3
    73        66.9473585        1       182        98.5039852        3
    74        98.5178564        1       183        98.5308749        3
    75        98.5401542        1       184       103.3150156        3
    76       103.3128876        1       185       103.3357408        3
    77       103.3447895        1       186       115.0906782        3
    78       114.9547891        1       187       116.7115692        3
    79       115.2981718        1       188       198.6602476        3
    80       117.4380596        1       189       224.7753499        3
    81       121.8323659        1       190       395.2465936        3
    82       198.5572034        1       191         0.2219669        4
    83       198.7650009        1       192         0.5500423        4
    84       216.2622806        1       193         0.7377085        4
    85       225.2927644        1       194         0.8577575        4
    86       395.8108424        1       195         1.5860548        4
    87       508.5725989        1       196         1.6735139        4
    88       895.0754329        1       197         2.0660800        4
    89        -0.0089117        2       198         2.1236779        4
    90         0.0820735        2       199         2.2809450        4
    91         0.1797949        2       200         2.6240086        4
    92         0.2848842        2       201         3.7108897        4
    93         0.4058019        2       202         4.1732256        4
    94         0.6228003        2       203         4.2974481        4
    95         0.7308746        2       204         4.6529277        4
    96         0.7751793        2       205         5.8231471        4
    97         0.8815637        2       206         6.0850194        4
    98         1.0423800        2       207         6.2924860        4
    99         1.4203199        2       208         6.4822035        4
   100         1.4823901        2       209        10.6600474        4
   101         1.6387604        2       210        10.9545901        4
   102         2.0642442        2       211        11.9859331        4
   103         2.1971416        2       212        12.7261171        4
   104         2.2077135        2       213        26.2507196        4
   105         2.2193094        2       214        47.0746334        4
   106         2.5027122        2       215        98.5178564        4
   107         2.5995056        2       216       103.3128876        4
   108         3.3656016        2       217       114.9547891        4
   109         3.9041665        2       218       198.5572034        4
------------------------------------------------------------------------
  -20.6435674063334       -11.5248121843369       -1.27221770783713     
 -0.806070857503069      -0.527377131226170      -0.495040039617083     
 -0.495040039617111       6.050433064640042E-002  6.850676242879117E-002
  0.156558861048557       0.194341266786213       0.221966916346604     
  0.300981543121374       0.308703612892154       0.418403222028778     
  0.513638559616552       0.550042297522246       0.703458912913842     
  0.737708484987250       0.817811067783967       0.857757466372043     
  0.887688418170437        1.13577945468213        1.35580516782987     
   1.58605479838560        1.58728639861822        1.67351391719722     
   1.92014239723902        1.94050368863814        2.06608001199150     
   2.12367789042155        2.21818668912414        2.28094496048950     
   2.38868310751209        2.62400860410529        2.64321461097498     
   2.89456976798372        3.71088969103182        3.88435748210697     
   4.10329916661250        4.17322559817589        4.29744810416629     
   4.38425915197432        4.65292766090550        4.80445748720946     
   5.17835498408378        5.82314709846286        6.02077620105792     
   6.08501938288658        6.17433836574426        6.29248599983930     
   6.48220353054149        7.08236450986922        7.72241755181782     
[...]
 Convergence information after    15 iterations: 
 Largest element of residual vector : -0.12469564E-05.
 Largest element of DIIS residual   : -0.67351400E-06.
 Convergence information after    16 iterations: 
 Largest element of residual vector : -0.67893675E-06.
 Largest element of DIIS residual   : -0.24035755E-06.
 Convergence information after    17 iterations: 
 Largest element of residual vector : -0.30999536E-06.
 Largest element of DIIS residual   : -0.14922877E-06.
 Convergence information after    18 iterations: 
 Largest element of residual vector : -0.81506653E-07.
 Largest element of DIIS residual   : -0.30478262E-07.
 Perturbed amplitude equations converged in    18 iterations.
  Dominant contributions to perturbed wavefunction:
    7    7  140   45  -0.2352196601 ABAB
    7    7   45  140  -0.2352196601 ABAB
    7    7  140   22  -0.2191947684 ABAB
    7    7   22  140  -0.2191947684 ABAB
    7    7  140   39  -0.1960277228 ABAB
    7    7   39  140  -0.1960277228 ABAB
    7    0   36    0   0.1857870419 AA  
    7    7  140   28   0.1834235048 ABAB
    7    7   28  140   0.1834235048 ABAB
    7    7  140   57  -0.1592095794 ABAB
    7    7   57  140  -0.1592095794 ABAB
    7    0   45    0   0.1576791834 AA  
    7    7  140   32  -0.1571658363 ABAB
    7    7   32  140  -0.1571658363 ABAB
    7    0   39    0   0.1517540697 AA  
    7    7  140   29  -0.1489701862 ABAB
    7    7   29  140  -0.1489701862 ABAB
    7    0   22    0   0.1483365863 AA  
    7    6   45   89  -0.1467237419 ABAB
    6    7   89   45  -0.1467237419 ABAB
  norm of converged amps    1.64343388929093     
 Starting iterative solution of the perturbed Lambda equations.
 The DIIS procedure is used to accelerate convergence.
 Convergence criterion is 10**(-7).
 Maximum number of iterations is 100.
 Convergence information after     1 iterations: 
 Largest element of residual vector :  0.78356026E-01.
 Largest element of DIIS residual   :  0.78356026E-01.
 Convergence information after     2 iterations: 
 Largest element of residual vector :  0.17059488E-01.
 Largest element of DIIS residual   :  0.13047219E-01.
 Convergence information after     3 iterations: 
 Largest element of residual vector :  0.69349464E-02.
 Largest element of DIIS residual   : -0.62486385E-02.
 Convergence information after     4 iterations: 
 Largest element of residual vector : -0.36970562E-02.
 Largest element of DIIS residual   : -0.33773058E-02.
 Convergence information after     5 iterations: 
 Largest element of residual vector : -0.32829724E-02.
 Largest element of DIIS residual   : -0.26895524E-02.
 Convergence information after     6 iterations: 
 Largest element of residual vector : -0.17603919E-02.
 Largest element of DIIS residual   : -0.78441585E-03.
 Convergence information after     7 iterations: 
 Largest element of residual vector : -0.83168785E-03.
 Largest element of DIIS residual   : -0.41348933E-03.
 Convergence information after     8 iterations: 
 Largest element of residual vector : -0.30068854E-03.
 Largest element of DIIS residual   : -0.18987630E-03.
 Convergence information after     9 iterations: 
 Largest element of residual vector : -0.13150801E-03.
 Largest element of DIIS residual   : -0.74727438E-04.
 Convergence information after    10 iterations: 
 Largest element of residual vector : -0.66008121E-04.
 Largest element of DIIS residual   : -0.32233418E-04.
 Convergence information after    11 iterations: 
 Largest element of residual vector : -0.15846048E-04.
 Largest element of DIIS residual   : -0.64919689E-05.
 Convergence information after    12 iterations: 
 Largest element of residual vector : -0.59257855E-05.
 Largest element of DIIS residual   : -0.36829106E-05.
 Convergence information after    13 iterations: 
 Largest element of residual vector : -0.18396431E-05.
 Largest element of DIIS residual   : -0.16305007E-05.
 Convergence information after    14 iterations: 
 Largest element of residual vector : -0.15529981E-05.
 Largest element of DIIS residual   : -0.98289189E-06.
 Convergence information after    15 iterations: 
 Largest element of residual vector : -0.80567471E-06.
 Largest element of DIIS residual   : -0.43142530E-06.
 Convergence information after    16 iterations: 
 Largest element of residual vector : -0.41883441E-06.
 Largest element of DIIS residual   : -0.14895617E-06.
 Convergence information after    17 iterations: 
 Largest element of residual vector : -0.19401201E-06.
 Largest element of DIIS residual   : -0.92263894E-07.
 Perturbed Lambda equations converged in    17 iterations.
  Dominant contributions to perturbed wavefunction:
    7    7  140   45  -0.1904241907 ABAB
    7    7   45  140  -0.1904241907 ABAB
    7    7  140   22  -0.1766698343 ABAB
    7    7   22  140  -0.1766698343 ABAB
    7    7  140   39  -0.1567410945 ABAB
    7    7   39  140  -0.1567410945 ABAB
    7    7  140   28   0.1505462049 ABAB
    7    7   28  140   0.1505462049 ABAB
    7    7  140   57  -0.1277792194 ABAB
    7    7   57  140  -0.1277792194 ABAB
    7    7  140   32  -0.1273613054 ABAB
    7    7   32  140  -0.1273613054 ABAB
    7    6   45   89  -0.1177819992 ABAB
    6    7   89   45  -0.1177819992 ABAB
    7    7  140   29  -0.1168959964 ABAB
    7    7   29  140  -0.1168959964 ABAB
    7    7  140   54   0.1103008444 ABAB
    7    7   54  140   0.1103008444 ABAB
    7    6   22   89  -0.1084545107 ABAB
    6    7   89   22  -0.1084545107 ABAB
        The DBOC first-order density matrix is being calculated 
             (Symmetry block 3, perturbation   2)
 term   2.82179907488081     
 final tnorm  0.783955885359858     
  norm contr. I: |<0|L dT/dx|0>|^2   0.000000000000000E+000
  norm contr. II: <0|[nabla(1+L)e-T][nabla e^T]|0>   2.82179907488081     
  total norm contribution   2.82179907488081     
 oo  9.676446215110945E-003
 vv  -21.1066851705619     
 vo  5.940923650633301E-002
  Correlated perturbed 1-el contribution to DBOC  -21.0375994878405       cm**-1
  SUM_I |dc_I/dx|^2 contribution to DBOC   10.6232540873957       cm**-1
 
 
  The total diagonal Born-Oppenheimer correction (DBOC) is:      0.0040096482 a.u.
  The total diagonal Born-Oppenheimer correction (DBOC) is:        880.016066 cm-1
 
 Total CC energy including DBOC  -113.071309153982     
 First-order density matrix is being calculated  (Symmetry block 3, perturbation   2)
 Calculation of the contributions of <pq||rs> to dI(i,j)/dx required   3.5 seconds.
 Calculation of the contributions of <pq||rs> to dI(a,b)/dx required  15.8 seconds.
 Calculation of the contributions of <pq||rs> to dI(i,a)/dx required   9.7 seconds.
 First-order Z-vector equations are solved for 1 perturbation.
 Convergence reached after  19 iterations.
        U*G(pq,rs) contribution is being calculated
             (Symmetry block 3, perturbation   2)

 CCSD contribution to force constants 

        0.0000000000        0.0000000000        0.0000000000
        0.0000000000        0.0000000000        0.0000000000
        0.0000000000        0.0000000000        0.0000000000
        0.0000000000        0.0000000000        0.0000000000
        0.0000000000        0.0000000000        0.0000000000
        0.0000000000        0.0000000000        0.0000000000
        0.0000000000        0.0000000000        0.0000000000
        0.0000000000        0.0000000000        0.0000000000
        0.0000000000        0.0000000000        0.0000000000
        0.0000000000        0.0000000000        0.0000000000
        0.0000000000        0.0000000000        0.0000000000
        0.0000000000       -5.1623094253        5.1623094253

 CCSD contribution to dipole derivatives 

        0.0000000000        0.0000000000        0.0000000000
        0.0000000000        0.0000000000        0.0000000000
        0.0000000000        0.0000000000        0.0000000000
        0.0000000000        0.0000000000       -0.0574181653
        0.0000000000        0.0000000000        0.0000000000
        0.0000000000        0.0000000000        0.0000000000
 @CHECKOUT-I, Total execution time (CPU/WALL):     1330.81/     511.29 seconds.
--executable xsdcc finished with status     0 in      511.54 seconds (walltime).
 --invoking executable--
/nfs/workspaces/public/cfour_mpi/bin/xanti
 @GETMEM-I,  Allocated    3814 MB of main memory.
 CCSD MO derivative gammas will be sorted to Mulliken order.
 @CHECKOUT-I, Total execution time (CPU/WALL):       20.00/      38.07 seconds.
--executable xanti finished with status     0 in       38.25 seconds (walltime).
 --invoking executable--
/nfs/workspaces/public/cfour_mpi/bin/xbcktrn
 @GETMEM-I,  Allocated    3814 MB of main memory.
 CCSD MO derivative gammas will be transformed to the AO basis.
 @CHECKOUT-I, Total execution time (CPU/WALL):       35.40/      15.92 seconds.
--executable xbcktrn finished with status     0 in       15.99 seconds (walltime).
 --invoking executable--
/nfs/workspaces/public/cfour_mpi/bin/xvdint
 @GETMEM-I,  Allocated    3814 MB of main memory.
 One- and two-electron integral derivatives are calculated
 for RHF-CC/MBPT hessians and dipole derivatives.
 Spherical gaussians are used.
  magnet F F
                    8722  records have been written to the Sort file.
  Total length of Sort file :             178609116  words.
 Evaluation of 2el integral derivatives

                      Two-electron integral gradient
                      ------------------------------

                         C #1 z     0.0000000000
                         O #2 z     0.0000000000


 C #1       0.0000000000            0.0757985338            0.0000000000
 O #2       0.0000000000           -0.0757985338            0.0000000000


 Evaluation of 2e integral derivatives required  351.90 seconds.
  contribution to Hessian
        0.0000000000        0.0000000000        0.0000000000
        0.0000000000        0.0757985338       -0.0757985338
 @CHECKOUT-I, Total execution time (CPU/WALL):      351.89/      73.46 seconds.
--executable xvdint finished with status     0 in       73.66 seconds (walltime).
 --invoking executable--
/nfs/workspaces/public/cfour_mpi/bin/xanti
 @GETMEM-I,  Allocated    3814 MB of main memory.
 CCSD MO gammas will be sorted to Mulliken order.
 @CHECKOUT-I, Total execution time (CPU/WALL):       16.92/      56.87 seconds.
--executable xanti finished with status     0 in       57.05 seconds (walltime).
 --invoking executable--
/nfs/workspaces/public/cfour_mpi/bin/xbcktrn
 @GETMEM-I,  Allocated    3814 MB of main memory.
 CCSD MO gammas will be transformed to the AO basis.
 @CHECKOUT-I, Total execution time (CPU/WALL):       50.98/       9.97 seconds.
--executable xbcktrn finished with status     0 in       10.06 seconds (walltime).
 --invoking executable--
/nfs/workspaces/public/cfour_mpi/bin/xvdint
 @GETMEM-I,  Allocated    3814 MB of main memory.
 One- and two-electron integral derivatives are calculated
 for RHF-CC/MBPT hessians and dipole derivatives.
 Spherical gaussians are used.
  magnet F F

                     Kinetic energy integral gradient
                     --------------------------------

                         C #1 z    -0.5127592860
                         O #2 z     0.5127592860


 C #1       0.0000000000            0.0000000000           -0.5127592860
 O #2       0.0000000000            0.0000000000            0.5127592860



                   Nuclear attraction integral gradient
                   ------------------------------------

                         C #1 z    13.4525593197
                         O #2 z   -13.4525593197


 C #1       0.0000000000            0.0000000000           13.4525593197
 O #2       0.0000000000            0.0000000000          -13.4525593197



                      Reorthonormalization gradient
                      -----------------------------

                         C #1 z     0.0000000000
                         O #2 z     0.0000000000


 C #1       0.0000000000            0.0000000000            0.0000000000
 O #2       0.0000000000            0.0000000000            0.0000000000



                     Kinetic energy integral Hessian
                     -------------------------------


           Symmetry 1

           C #1 z      O #2 z

 C #1 z    0.539911
 O #2 z   -0.539911    0.539911


           Symmetry 2

           C #1 x      O #2 x

 C #1 x   -0.384476
 O #2 x    0.384476   -0.384476


           Symmetry 3

           C #1 y      O #2 y

 C #1 y   -0.384476
 O #2 y    0.384476   -0.384476




           C #1 x      C #1 y      C #1 z      O #2 x      O #2 y      O #2 z

 C #1 x   -0.384476
 C #1 y    0.000000   -0.384476
 C #1 z    0.000000    0.000000    0.539911

 O #2 x    0.384476    0.000000    0.000000   -0.384476
 O #2 y    0.000000    0.384476    0.000000    0.000000   -0.384476
 O #2 z    0.000000    0.000000   -0.539911    0.000000    0.000000    0.539911




                   Nuclear attraction integral Hessian
                   -----------------------------------


           Symmetry 1

           C #1 z      O #2 z

 C #1 z   -8.147961
 O #2 z    8.147961   -8.147961


           Symmetry 2

           C #1 x      O #2 x

 C #1 x    7.078929
 O #2 x   -7.078929    7.078929


           Symmetry 3

           C #1 y      O #2 y

 C #1 y    7.078929
 O #2 y   -7.078929    7.078929




           C #1 x      C #1 y      C #1 z      O #2 x      O #2 y      O #2 z

 C #1 x    7.078929
 C #1 y    0.000000    7.078929
 C #1 z    0.000000    0.000000   -8.147961

 O #2 x   -7.078929    0.000000    0.000000    7.078929
 O #2 y    0.000000   -7.078929    0.000000    0.000000    7.078929
 O #2 z    0.000000    0.000000    8.147961    0.000000    0.000000   -8.147961




                Highest order reorthonormalization Hessian
                ------------------------------------------


           Symmetry 1

           C #1 z      O #2 z

 C #1 z    0.000000
 O #2 z    0.000000    0.000000


           Symmetry 2

           C #1 x      O #2 x

 C #1 x    0.000000
 O #2 x    0.000000    0.000000


           Symmetry 3

           C #1 y      O #2 y

 C #1 y    0.000000
 O #2 y    0.000000    0.000000




           C #1 x      C #1 y      C #1 z      O #2 x      O #2 y      O #2 z




                Electronic contributions to dipole moment
                -----------------------------------------

                               au             Debye

                    z      1.34764546      3.42537369

  Conversion factor used: 1 a.u. =   2.54174691 Debye 



   Electronic contributions to static part of dipole moment derivatives
   --------------------------------------------------------------------


                     Total dipole moment derivatives
                     -------------------------------


           Symmetry 1
                              Ez

               C #1 z    -5.68060448
               O #2 z    -8.31939552

           Symmetry 2
                              Ex

               C #1 x    -5.67405052
               O #2 x    -8.32594948

           Symmetry 3
                              Ey

               C #1 y    -5.67405052
               O #2 y    -8.32594948



                       Ex          Ey          Ez

      C #1    x   -5.674051    0.000000    0.000000
      C #1    y    0.000000   -5.674051    0.000000
      C #1    z    0.000000    0.000000   -5.680604

      O #2    x   -8.325949    0.000000    0.000000
      O #2    y    0.000000   -8.325949    0.000000
      O #2    z    0.000000    0.000000   -8.319396

 Evaluation of 1e integral derivatives required    1.72 seconds.
                    8815  records have been written to the Sort file.
  Total length of Sort file :             180513570  words.
 Evaluation of 2el integral derivatives

                      Two-electron integral gradient
                      ------------------------------

                         C #1 z    -7.2019227775
                         O #2 z     7.2019227775


 C #1       0.0000000000            0.0000000000           -7.2019227775
 O #2       0.0000000000            0.0000000000            7.2019227775


 Evaluation of 2e integral derivatives required  710.42 seconds.

                            Molecular gradient
                            ------------------

                         C #1 z     0.5767138316
                         O #2 z    -0.5767138316


 C #1       0.0000000000            0.0000000000            0.5767138316
 O #2       0.0000000000            0.0000000000           -0.5767138316


  Molecular gradient norm 0.816E+00

                            Molecular hessian
                            -----------------


           Symmetry 1

           C #1 z      O #2 z

 C #1 z   14.648526
 O #2 z  -14.648526   14.648526


           Symmetry 2

           C #1 x      O #2 x

 C #1 x    5.334892
 O #2 x   -5.334892    5.334892


           Symmetry 3

           C #1 y      O #2 y

 C #1 y    5.334892
 O #2 y   -5.334892    5.334892




           C #1 x      C #1 y      C #1 z      O #2 x      O #2 y      O #2 z

 C #1 x    5.334892
 C #1 y    0.000000    5.334892
 C #1 z    0.000000    0.000000   14.648526

 O #2 x   -5.334892    0.000000    0.000000    5.334892
 O #2 y    0.000000   -5.334892    0.000000    0.000000    5.334892
 O #2 z    0.000000    0.000000  -14.648526    0.000000    0.000000   14.648526




                           Total dipole moment
                           -------------------

                               au             Debye

                    z      0.50028732      1.27160376

  Conversion factor used: 1 a.u. =   2.54174691 Debye 



                     Total dipole moment derivatives
                     -------------------------------


           Symmetry 1
                              Ez

               C #1 z     0.57394861
               O #2 z    -0.57394861

           Symmetry 2
                              Ex

               C #1 x     0.17163575
               O #2 x    -0.17163575

           Symmetry 3
                              Ey

               C #1 y     0.17163575
               O #2 y    -0.17163575



                       Ex          Ey          Ez

      C #1    x    0.171636    0.000000    0.000000
      C #1    y    0.000000    0.171636    0.000000
      C #1    z    0.000000    0.000000    0.573949

      O #2    x   -0.171636    0.000000    0.000000
      O #2    y    0.000000   -0.171636    0.000000
      O #2    z    0.000000    0.000000   -0.573949

 @CHECKOUT-I, Total execution time (CPU/WALL):      712.13/     123.98 seconds.
--executable xvdint finished with status     0 in      124.15 seconds (walltime).
 --invoking executable--
/nfs/workspaces/public/cfour_mpi/bin/xjoda
  @GTFLGS-I, Hessian will be transformed to curvilinear coordinates.
  @GTFLGS-I, Hessian will be transformed to curvilinear coordinates.
  igrd and ihes are                      0                     1
  gradient from JOBARC 
   0.000000000000000   0.000000000000000   0.576713831638782
   0.000000000000000   0.000000000000000  -0.576713831638782
 
  @PROJFCM-I, Projecting force constant matrix onto totally symmetric subspace.
  Largest difference between matrix elements of symmetrized
  and unsymmetrized FCM :    -0.1545430450E-11.
  read isotopes from ZMAT file 
 
  Summary of diagonal Born-Oppenheimer correction at the correlated level
  The total diagonal Born-Oppenheimer correction (DBOC) is:      0.0040096482 a.u.
  The total diagonal Born-Oppenheimer correction (DBOC) is:        880.016066 cm-1
  The total diagonal Born-Oppenheimer correction (DBOC) is:            10.527 kJ/mole
  hellooooooo 
  readis is  F
 
 @CHECKOUT-I, Total execution time (CPU/WALL):        0.03/       0.10 seconds.
--executable xjoda finished with status     0 in        0.15 seconds (walltime).
  The final electronic energy is      -113.071309153982170 a.u. 
  This computation required                         4711.92 seconds (walltime).
