 --invoking executable--
/nfs/workspaces/public/cfour_mpi/bin/xjoda


   *************************************************************************
         <<<     CCCCCC     CCCCCC   |||     CCCCCC     CCCCCC   >>>
       <<<      CCC        CCC       |||    CCC        CCC         >>>
      <<<      CCC        CCC        |||   CCC        CCC            >>>
    <<<        CCC        CCC        |||   CCC        CCC              >>>
      <<<      CCC        CCC        |||   CCC        CCC            >>>
       <<<      CCC        CCC       |||    CCC        CCC         >>>
         <<<     CCCCCC     CCCCCC   |||     CCCCCC     CCCCCC   >>>
   *************************************************************************

     ****************************************************************
     * CFOUR Coupled-Cluster techniques for Computational Chemistry *
     ****************************************************************
 

   Department of Chemistry                Institut fuer Physikalische Chemie
   University of Florida                  Universitaet Mainz
   Gainesville, FL 32611, USA             D-55099 Mainz, Germany

   Department of Chemistry                Fakultaet fuer Chemie und Biowiss.
   Johns Hopkins University               Karlsruher Institut fuer Technologie
   Baltimore, MD 21218, USA               D-76131 Karlsruhe, Germany

   Department of Chemistry                Department of Physical Chemistry
   Southern Methodist University          Eotvos Lorand University
   Dallas, TX 75275, USA                  H-1053 Budapest, Hungary

 
                       Version 2.1
 
                     vincent.theory.phys.ucl.ac.uk                     
                     Thu 27 Feb 11:38:53 GMT 2025                      
                     integer*8 version is running
 
********************************************************************************
*                          Input from ZMAT file                                *
********************************************************************************
Carbon Monoxide DBOC calculation                                                
C                                                                               
O 1 r                                                                           
                                                                                
r=1.3344827586206895                                                            
                                                                                
                                                                                
*CFOUR(CALC=CCSD,BASIS=AUG-PCVQZ,SCF_CONV=10                                    
CC_CONV=14,DBOC=ON,MEMORY=500000000                                             
ZFIELD=200)                                                                     
                                                                                
%isotopes                                                                       
13                                                                              
16                                                                              
********************************************************************************
  @GTFLGS-I, Hessian will be transformed to curvilinear coordinates.
    -------------------------------------------------------------------
                    CFOUR Control Parameters 
    -------------------------------------------------------------------
        External           Internal           Value            Units
          Name               Name
    -------------------------------------------------------------------
       ABCDTYPE             IABCDT         STANDARD    [  0]    ***   
       ANHARMONIC           IANHAR         OFF         [  0]    ***   
       ANH_ALGORIT          IANALG         STANDARD    [  0]    ***   
       ANH_DERIVAT          IANDER         SECOND      [  1]    ***   
       ANH_MODE             ANHMOD         VIBRATION   [  0]    ***   
       ANH_STEPSIZ          ICUBST             50000          x 10-6  
       ANH_SYMMETR          IANHSM         ABELIAN     [  0]    ***   
       AO_LADDERS           IAOLAD         SINGLEPASS  [  1]    ***   
       AV_SCF               IAVSCF         OFF         [  0]    ***   
       BASIS                IBASIS         AUG-PCVQZ   [ 52]    ***   
       BOTHVECTORS          BOTHVC         OFF         [  0]    ***   
       BOX_POTENT           IPIAB          OFF         [  0]    ***   
       BREIT                IBREIT         OFF         [  0]    ***   
       BRUCK_CONV           IBRTOL          10D-  4             ***   
       BRUECKNER            IBRKNR         OFF         [  0]    ***   
       BUFFERSIZE           IBUFFS              4096            ***   
       CACHE_RECS           ICHREC             10               ***   
       CALCLEVEL            ICLLVL         CCSD        [ 10]    ***   
       CCORBOPT             ICCORB         OFF         [  0]  x 0.01  
       CC_CONV              ICCCNV          10D- 14             ***   
       CC_EXPORDER          ICCEOR              5               ***   
       CC_EXTRAPOL          ICCEXT         DIIS        [  1]    ***   
       CC_GUESS             ICCGES         MP2         [  0]    ***   
       CC_MAXCYC            ICCCYC            100              cycles 
       CC_PROGRAM           ICCPRO         VCC         [  0]    ***   
       CHARGE               ICHRGE              0               ***   
       CHOLESKY             ICHOLE         OFF         [  0]    ***   
       CIS_CONV             ICISTL              5               ***   
       COMM_SIZE            IPSIZE            ***               ***   
       CONSTANT             ICONST         OLD         [  1]    ***   
       CONTINUUM            ICONTU         NONE        [  0]    ***   
       CONTRACTION          ICNTYP         GENERAL     [  1]    ***   
       COORDINATES          ICOORD         INTERNAL    [  0]    ***   
       CPHF_CONVER          ICPHFT          10D- 16             ***   
       CPHF_MAXCYC          ICPHFC             64              cycles 
       CUBIC                ICUBIC         OFF         [  0]    ***   
       CURVILINEAR          ICURVY         ON          [  1]    ***   
       DBOC                 IDBOC          ON          [  1]    ***   
       DCT                  IDCT           OFF         [  0]    ***   
       DERIV_LEV            IDRLVL         SECOND      [  2]    ***   
       DEVMEM_SIZE          IDVMEM          50000000           MByte  
       DIAG_MRCC            IEOMST          10D-  0             ***   
       DIFF_TYPE            IDIFTY         RELAXED     [  0]    ***   
       DIRECT               IDIRCT         OFF         [  0]    ***   
       DROPMO               IDRPMO      NONE         
       ECP                  IECP           OFF         [  0]    ***   
       EIGENVECTOR          IVEC                1               ***   
       EL_ANHARM            IELANH         OFF         [  0]    ***   
       EOMFOLLOW            IEOMSR         ENERGY      [  0]    ***   
       EOMIP                IEOMIP         OFF         [  0]    ***   
       EOMLEVEL             HBARFM         SAME        [  0]    ***   
       EOM_MRCC             IMRCCE         NEW         [  1]    ***   
       EOM_NONIT            EOMNON         OFF         [  0]    ***   
       EOM_NSING            IEOMSI          10D-  0             ***   
       EOM_NSTATES          IMRCCD         DAVIDSON    [  0]    ***   
       EOM_NTRIP            IEOMTR          10D-  0             ***   
       EOM_ORDER            IEXORD         ENERGY      [  0]    ***   
       EOM_PROPSTA          IEOMST              0               ***   
       ESTATE_CONV          IEXTOL          10D-  5             ***   
       ESTATE_DIAG          IEXDIG         ITERATIVE   [  0]    ***   
       ESTATE_LOCK          IESLOC         ON          [  1]    ***   
       ESTATE_MAXC          IEXMXC             40               ***   
       ESTATE_PROP          IEXPRP         OFF         [  0]    ***   
       EVAL_HESS            IRECAL              0            # of cyc.
       EXCITATION           IEXCIT              0               ***   
       EXCITE               IEXCIT         NONE        [  0]    ***   
       EXTERN_POT           IEXPOT         OFF         [  0]    ***   
       FCGRADNEW            IFCGNW         OFF         [  0]    ***   
       FC_FIELD             IFINFC              0             x 10-6  
       FD_CALTYPE           IFDCAL         GRADONLY    [  0]    ***   
       FD_PROJECT           IFDPRJ         OFF         [  1]    ***   
       FD_STEPSIZE          IDISFD              0            10-4 bohr
       FD_USEGROUP          IFDGRP         FULL        [  0]    ***   
       FILE_RECSIZ          IFLREC              4096           words  
       FINITE_PERT          IFIPER              0             x 10-6  
       FIXGEOM              IFIXGM         OFF         [  0]    ***   
       FOCK                 IFOCK          AO          [  1]    ***   
       FREQ_ALGORI          IVIALG         STANDARD    [  0]    ***   
       FROZEN_CORE          IFROCO         OFF         [  0]    ***   
       GAMMA_ABCD           IGABCD         STORE       [  0]    ***   
       GAMMA_ABCI           IGABCI         STORE       [  0]    ***   
       GENBAS_1             IGNBS1              0               ***   
       GENBAS_2             IGNBS2              0               ***   
       GENBAS_3             IGNBS3              0               ***   
       GENBAS_4             IGNBS4              0               ***   
       GEO_CONV             ICONTL              5              H/bohr 
       GEO_MAXCYC           IOPTCY             50               ***   
       GEO_MAXSTEP          IMXSTP            300            millibohr
       GEO_METHOD           INR            SINGLE_POINT[  5]    ***   
       GIAO                 IGIAO          OFF         [  1]    ***   
       GIMIC                IGIMIC         OFF         [  0]    ***   
       GRID                 IGRID          OFF         [  0]    ***   
       GRID_ALGO            IGALGO         SERIAL      [  0]    ***   
       GUESS                IGUESS         MOREAD      [  0]    ***   
       HBAR                 IHBAR          OFF         [  0]    ***   
       HESS_TYPE            IHESTP         SCF         [  0]    ***   
       HF2_FILE             IHF2Fl         USE         [  1]    ***   
       HFSTABILITY          ISTABL         OFF         [  0]    ***   
       INCORE               INCORE         OFF         [  0]    ***   
       INPUT_MRCC           IMRCC          ON          [  1]    ***   
       INTEGRALS            INTTYP         VMOL        [  1]    ***   
       JODA_PRINT           IJPRNT              0               ***   
       KEYWORD_OUT          IDMPKW         NO          [  0]    ***   
       LINDEP_TOL           ILINDP              8               ***   
       LINEQ_CONV           IZTACN          10D-  7           cycles  
       LINEQ_EXPOR          ILMAXD              5               ***   
       LINEQ_MAXCY          ILMAXC            100               ***   
       LINEQ_TYPE           ILTYPE         DIIS        [  1]    ***   
       LOCK_ORBOCC          ILOCOC         OFF         [  0]    ***   
       MEMORY_SIZE          IMEMSZ         500000000           words  
       MEM_UNIT             IMEMU          INTEGERWORDS[  0]    ***   
       MRCC                 IMRCCC         OFF         [  0]    ***   
       MULTIPLICTY          IMULTP              1               ***   
       NACOUPLING           IVCOUP         OFF         [  0]    ***   
       NEGEVAL              IDIE           ABORT       [  0]    ***   
       NEWNORM              INEWNO         OFF         [  0]    ***   
       NON-HF               INONHF         OFF         [  0]    ***   
       NTOP_TAMP            ITOPT2             15               ***   
       NUC_MODEL            INUCMO         POINT       [  0]    ***   
       OCCUPATION           IOCCU   ESTIMATED BY SCF 
       OPEN-SHELL           IOPEN          SPIN-ORBITAL[  0]    ***   
       OPTVIB               IOPTVB         OFF         [  0]    ***   
       ORBITALS             IORBTP         STANDARD    [  0]    ***   
       PARALLEL             IPARAL         ON          [  1]    ***   
       PARA_INT             IPINTS         ON          [  1]    ***   
       PARA_PRINT           IPPRIN              0               ***   
       PERT_ORB             IPTORB         STANDARD    [  0]    ***   
       POINTS               IGRDFD              0               ***   
       PRINT                IPRNT               0               ***   
       PROPS                IPROPS         OFF         [  0]    ***   
       PROP_INTEGR          IINTYP         INTERNAL    [  0]    ***   
       PSI                  IPSI           OFF         [  0]    ***   
       QC_ALG               IQCALG         FLM         [  0]    ***   
       QC_LINALG            IQCLIN         TRIDIAG     [  2]    ***   
       QC_MAXCYC            IQCMAX          10D-100           cycles  
       QC_MAXSCFCY          IQCMSC          10D- 15           cycles  
       QC_RTRUST            IQCRTR          10D-  0           x 10-3  
       QC_SKIPSCF           IQCSKI         OFF         [  0]    ***   
       QC_START             IQCSTA          10D-  1             ***   
       QRHFGUESS            IQGUES         OFF         [  0]    ***   
       QUARTIC              IQUART         OFF         [  0]    ***   
       RAMAN_INT            IRAMIN         OFF         [  0]    ***   
       RAMAN_ORB            IRAMRE         UNRELAXED   [  0]    ***   
       RDO                  IRDOFM         ON          [  1]    ***   
       REDUCE_REPR          REDREP         Ir          [  0]    ***   
       REFERENCE            IREFNC         RHF         [  0]    ***   
       RELATIVIST           IRELAT         OFF         [  0]    ***   
       RELAX_DENS           IRDENS         ON          [  1]    ***   
       RESET_FLAGS          IRESET         OFF         [  0]    ***   
       RESTART_CC           ICCRES         OFF         [  0]    ***   
       ROT_EVEC             ROTVEC              0               ***   
       SAVE_INTS            ISVINT         OFF         [  0]    ***   
       SCALE_ON             ISTCRT              0               ***   
       SCF_CONV             ISCFCV          10D- 10             ***   
       SCF_DAMPING          IDAMP               0             x 10-3  
       SCF_EXPORDE          IRPPOR              6               ***   
       SCF_EXPSTAR          IRPPLS              8               ***   
       SCF_EXTRAPO          IRPP           ON          [  1]    ***   
       SCF_MAXCYC           ISCFCY            150              cycles 
       SCF_NOSTOP           ISCFST         OFF         [  0]    ***   
       SCF_PRINT            ISCFPR              0               ***   
       SCF_PROG             ISCFPR         SCF         [  0]    ***   
       SD_FIELD             IFINSD              0             x 10-6  
       SOPERT               IPERSO         OFF         [  0]    ***   
       SPHERICAL            IDFGHI         ON          [  1]    ***   
       SPINORBIT            ISOCAL         OFF         [  0]    ***   
       SPINROTATIO          ISRCON         OFF         [  0]    ***   
       SPIN_FLIP            ISPFLP         OFF         [  0]    ***   
       SPIN_ORBIT           ISPORB         OFF         [  0]    ***   
       SPIN_SCAL            ISCSMP         OFF         [  0]    ***   
       STEEPSCALE           ISTPSC              1000          x 10-3  
       SUBGROUP             ISUBGP         DEFAULT     [  0]    ***   
       SUBGRPAXIS           ISBXYZ         X           [  0]    ***   
       SYMMETRY             ISYM           ON          [  0]    ***   
       SYM_CHECK            ISYMCK         OVERRIDE    [  1]    ***   
       T3_EXTRAPOL          IT3EXT         OFF         [  0]    ***   
       T4_EXTRAPOL          IT4EXP         OFF         [  0]    ***   
       TAMP_SUM             IEVERY              5               ***   
       TESTSUITE            ITESTS         OFF         [  0]    ***   
       THERMOCH             ITHERM         OFF         [  0]    ***   
       TOL_CHOLESK          ITOLCH          10D-  4             ***   
       TRANGRAD             IRESRM         OFF         [  0]    ***   
       TRANS_INV            ITRAIN         IGNORE      [  1]    ***   
       TREAT_PERT           ITREAT         SIMULTANEOUS[  0]    ***   
       TRIP_ALGORI          ITRALG         NORMAL      [  0]    ***   
       UIJ_THRESHO          IUIJTH              1               ***   
       UNITS                IUNITS         ANGSTROM    [  0]    ***   
       UNOS                 IUNOS          OFF         [  0]    ***   
       UPDATE_HESS          IHUPDT         ON          [  1]    ***   
       VIBPHASE             ISETPH         STANDARD    [  0]    ***   
       VIBRATION            IVIB           ANALYTIC    [  1]    ***   
       VIB_ALGORIT          IGEALG         STANDARD    [  0]    ***   
       VNATORB              IVNORB         OFF         [  0]    ***   
       VTRAN                IVTRAN         FULL/PARTIAL[  0]    ***   
       XFIELD               IXEFLD              0             x 10-6  
       XFORM_TOL            IXFTOL          10D- 11             ***   
       YFIELD               IYEFLD              0             x 10-6  
       ZFIELD               IZEFLD            200             x 10-6  
       ZSCALE_EXP           IZEXPS         OFF         [  0]    ***   
    -------------------------------------------------------------------
   2 entries found in Z-matrix 
   Job Title : Carbon Monoxide DBOC calculation                                                
   There are  1 unique internal coordinates.
   Of these,  0 will be optimized.
   User supplied Z-matrix: 
--------------------------------------------------------------------------------
       SYMBOL    BOND      LENGTH    ANGLE     ANGLE     DIHED     ANGLE
                  TO      (ANGST)    WRT      (DEG)      WRT      (DEG)
--------------------------------------------------------------------------------
        C    
        O          1         r    
                  *Initial values for internal coordinates* 
                      Name             Value
                        r               1.3344827586
--------------------------------------------------------------------------------
  read isotopes from ZMAT file 
   Rotational constants (in cm-1): 
          1.3197916067             1.3197916067
   Rotational constants (in MHz): 
      39566.3625254932         39566.3625254932
********************************************************************************
   The full molecular point group is CXv .
   The largest Abelian subgroup of the full molecular point group is C2v .
   The computational point group is C2v .
********************************************************************************
--------------------------------------------------------------------------------
   Analysis of internal coordinates specified by Z-matrix 
--------------------------------------------------------------------------------
   *The nuclear repulsion energy is   19.033967007751937 a.u.
   *There is   1 degree of freedom within the tot. symm. molecular subspace.
   *Z-matrix requests optimization of   0 coordinates.
   *The optimization is constrained.
   *The following   1 parameters can have non-zero 
    derivatives within the totally symmetric subspace:
             r    [ 1]
   *The following   0 parameters are to be optimized:

   *The following coordinates must be varied in an  unconstrained optimization.
             r    [ 1]
--------------------------------------------------------------------------------


 ----------------------------------------------------------------
         Coordinates used in calculation (QCOMP) 
 ----------------------------------------------------------------
 Z-matrix   Atomic            Coordinates (in bohr)
  Symbol    Number           X              Y              Z
 ----------------------------------------------------------------
     C         6        -0.00000000     0.00000000     1.39098283
     O         8         0.00000000     0.00000000    -1.13082463
 ----------------------------------------------------------------
 
   Interatomic distance matrix (Angstroms) 
 
                 C             O    
                [ 1]        [ 2]
  C    [ 1]     0.00000
  O    [ 2]     1.33448     0.00000
 rotcon2
   Rotational constants (in cm-1): 
          1.3197916067             0.0000000000
   Rotational constants (in MHz): 
      39566.3625254932             0.0000000000
  ECPDATA file not present.   Using default ECPDATA. 
  @GTFLGS-I, Hessian will be transformed to curvilinear coordinates.
  There are  218 basis functions.
 @CHECKOUT-I, Total execution time (CPU/WALL):        0.14/       0.25 seconds.
--executable xjoda finished with status     0 in        0.27 seconds (walltime).
 --invoking executable--
/nfs/workspaces/public/cfour_mpi/bin/xvmol
 SERIAL VERSION OF MOLECULE STARTED
********************************************************************************
                    INPUT FROM MOL FILE
********************************************************************************
INTGRL        1    0    1    0    0    0    0    0    0                         
         *** CFOUR Program System (Release V0.1) ***                            
Carbon Monoxide DBOC calculation                                                
    2    2 X  Y       0.10E-08              0    0                              
   9999.00      3.00                                                            
          6.00000000    1    5    1    1    1    1    1                         
C #1  -0.000000000000000   0.000000000000000   1.390982834428333                
   16    9                                                                      
   33980.0000000000       9.100000000000000E-005 -1.900000000000000E-005        
  0.000000000000000E+000  0.000000000000000E+000  0.000000000000000E+000        
  0.000000000000000E+000  0.000000000000000E+000  0.000000000000000E+000        
  0.000000000000000E+000                                                        
   5089.00000000000       7.040000000000000E-004 -1.510000000000000E-004        
  0.000000000000000E+000  0.000000000000000E+000  0.000000000000000E+000        
  0.000000000000000E+000  0.000000000000000E+000  0.000000000000000E+000        
  0.000000000000000E+000                                                        
   1157.00000000000       3.693000000000000E-003 -7.850000000000000E-004        
  0.000000000000000E+000  0.000000000000000E+000  0.000000000000000E+000        
  0.000000000000000E+000  0.000000000000000E+000  0.000000000000000E+000        
  0.000000000000000E+000                                                        
   326.600000000000       1.536000000000000E-002 -3.324000000000000E-003        
  0.000000000000000E+000  0.000000000000000E+000  0.000000000000000E+000        
  0.000000000000000E+000  0.000000000000000E+000  0.000000000000000E+000        
  0.000000000000000E+000                                                        
   106.100000000000       5.292900000000000E-002 -1.151200000000000E-002        
  0.000000000000000E+000  0.000000000000000E+000  0.000000000000000E+000        
  0.000000000000000E+000  0.000000000000000E+000  0.000000000000000E+000        
  0.000000000000000E+000                                                        
   38.1100000000000       0.147043000000000      -3.416000000000000E-002        
  0.000000000000000E+000  0.000000000000000E+000  0.000000000000000E+000        
  0.000000000000000E+000  0.000000000000000E+000  0.000000000000000E+000        
  0.000000000000000E+000                                                        
   14.7500000000000       0.305631000000000      -7.717300000000001E-002        
  0.000000000000000E+000  0.000000000000000E+000  0.000000000000000E+000        
  0.000000000000000E+000  0.000000000000000E+000  0.000000000000000E+000        
  0.000000000000000E+000                                                        
   6.03500000000000       0.399345000000000      -0.141493000000000             
  0.000000000000000E+000  0.000000000000000E+000  0.000000000000000E+000        
  0.000000000000000E+000  0.000000000000000E+000  0.000000000000000E+000        
  0.000000000000000E+000                                                        
   2.53000000000000       0.217051000000000      -0.118019000000000             
  0.000000000000000E+000  0.000000000000000E+000  0.000000000000000E+000        
  0.000000000000000E+000  0.000000000000000E+000  0.000000000000000E+000        
  0.000000000000000E+000                                                        
  0.735500000000000       1.589400000000000E-002  0.273806000000000             
   1.00000000000000       0.000000000000000E+000  0.000000000000000E+000        
  0.000000000000000E+000  0.000000000000000E+000  0.000000000000000E+000        
  0.000000000000000E+000                                                        
  0.290500000000000      -3.084000000000000E-003  0.586510000000000             
  0.000000000000000E+000   1.00000000000000       0.000000000000000E+000        
  0.000000000000000E+000  0.000000000000000E+000  0.000000000000000E+000        
  0.000000000000000E+000                                                        
  0.111100000000000       9.779999999999999E-004  0.285430000000000             
  0.000000000000000E+000  0.000000000000000E+000   1.00000000000000             
  0.000000000000000E+000  0.000000000000000E+000  0.000000000000000E+000        
  0.000000000000000E+000                                                        
   7.21600000000000       0.000000000000000E+000  0.000000000000000E+000        
  0.000000000000000E+000  0.000000000000000E+000  0.000000000000000E+000        
   1.00000000000000       0.000000000000000E+000  0.000000000000000E+000        
  0.000000000000000E+000                                                        
   19.5700000000000       0.000000000000000E+000  0.000000000000000E+000        
  0.000000000000000E+000  0.000000000000000E+000  0.000000000000000E+000        
  0.000000000000000E+000   1.00000000000000       0.000000000000000E+000        
  0.000000000000000E+000                                                        
   53.0730000000000       0.000000000000000E+000  0.000000000000000E+000        
  0.000000000000000E+000  0.000000000000000E+000  0.000000000000000E+000        
  0.000000000000000E+000  0.000000000000000E+000   1.00000000000000             
  0.000000000000000E+000                                                        
  4.145000000000000E-002  0.000000000000000E+000  0.000000000000000E+000        
  0.000000000000000E+000  0.000000000000000E+000  0.000000000000000E+000        
  0.000000000000000E+000  0.000000000000000E+000  0.000000000000000E+000        
   1.00000000000000                                                             
   10    8                                                                      
   34.5100000000000       5.378000000000000E-003  0.000000000000000E+000        
  0.000000000000000E+000  0.000000000000000E+000  0.000000000000000E+000        
  0.000000000000000E+000  0.000000000000000E+000  0.000000000000000E+000        
   7.91500000000000       3.613200000000000E-002  0.000000000000000E+000        
  0.000000000000000E+000  0.000000000000000E+000  0.000000000000000E+000        
  0.000000000000000E+000  0.000000000000000E+000  0.000000000000000E+000        
   2.36800000000000       0.142493000000000       0.000000000000000E+000        
  0.000000000000000E+000  0.000000000000000E+000  0.000000000000000E+000        
  0.000000000000000E+000  0.000000000000000E+000  0.000000000000000E+000        
  0.813200000000000       0.342150000000000        1.00000000000000             
  0.000000000000000E+000  0.000000000000000E+000  0.000000000000000E+000        
  0.000000000000000E+000  0.000000000000000E+000  0.000000000000000E+000        
  0.289000000000000       0.463864000000000       0.000000000000000E+000        
   1.00000000000000       0.000000000000000E+000  0.000000000000000E+000        
  0.000000000000000E+000  0.000000000000000E+000  0.000000000000000E+000        
  0.100700000000000       0.250028000000000       0.000000000000000E+000        
  0.000000000000000E+000   1.00000000000000       0.000000000000000E+000        
  0.000000000000000E+000  0.000000000000000E+000  0.000000000000000E+000        
   8.18200000000000       0.000000000000000E+000  0.000000000000000E+000        
  0.000000000000000E+000  0.000000000000000E+000   1.00000000000000             
  0.000000000000000E+000  0.000000000000000E+000  0.000000000000000E+000        
   24.1860000000000       0.000000000000000E+000  0.000000000000000E+000        
  0.000000000000000E+000  0.000000000000000E+000  0.000000000000000E+000        
   1.00000000000000       0.000000000000000E+000  0.000000000000000E+000        
   71.4940000000000       0.000000000000000E+000  0.000000000000000E+000        
  0.000000000000000E+000  0.000000000000000E+000  0.000000000000000E+000        
  0.000000000000000E+000   1.00000000000000       0.000000000000000E+000        
  3.218000000000000E-002  0.000000000000000E+000  0.000000000000000E+000        
  0.000000000000000E+000  0.000000000000000E+000  0.000000000000000E+000        
  0.000000000000000E+000  0.000000000000000E+000   1.00000000000000             
    6    6                                                                      
   1.84800000000000        1.00000000000000       0.000000000000000E+000        
  0.000000000000000E+000  0.000000000000000E+000  0.000000000000000E+000        
  0.000000000000000E+000                                                        
  0.649000000000000       0.000000000000000E+000   1.00000000000000             
  0.000000000000000E+000  0.000000000000000E+000  0.000000000000000E+000        
  0.000000000000000E+000                                                        
  0.228000000000000       0.000000000000000E+000  0.000000000000000E+000        
   1.00000000000000       0.000000000000000E+000  0.000000000000000E+000        
  0.000000000000000E+000                                                        
   8.65600000000000       0.000000000000000E+000  0.000000000000000E+000        
  0.000000000000000E+000   1.00000000000000       0.000000000000000E+000        
  0.000000000000000E+000                                                        
   33.2130000000000       0.000000000000000E+000  0.000000000000000E+000        
  0.000000000000000E+000  0.000000000000000E+000   1.00000000000000             
  0.000000000000000E+000                                                        
  7.660000000000000E-002  0.000000000000000E+000  0.000000000000000E+000        
  0.000000000000000E+000  0.000000000000000E+000  0.000000000000000E+000        
   1.00000000000000                                                             
    4    4                                                                      
   1.41900000000000        1.00000000000000       0.000000000000000E+000        
  0.000000000000000E+000  0.000000000000000E+000                                
  0.485000000000000       0.000000000000000E+000   1.00000000000000             
  0.000000000000000E+000  0.000000000000000E+000                                
   24.6940000000000       0.000000000000000E+000  0.000000000000000E+000        
   1.00000000000000       0.000000000000000E+000                                
  0.187000000000000       0.000000000000000E+000  0.000000000000000E+000        
  0.000000000000000E+000   1.00000000000000                                     
    2    2                                                                      
   1.01100000000000        1.00000000000000       0.000000000000000E+000        
  0.424000000000000       0.000000000000000E+000   1.00000000000000             
          8.00000000    1    5    1    1    1    1    1                         
O #2   0.000000000000000   0.000000000000000  -1.130824625910918                
   16    9                                                                      
   61420.0000000000       9.000000000000001E-005 -2.000000000000000E-005        
  0.000000000000000E+000  0.000000000000000E+000  0.000000000000000E+000        
  0.000000000000000E+000  0.000000000000000E+000  0.000000000000000E+000        
  0.000000000000000E+000                                                        
   9199.00000000000       6.980000000000001E-004 -1.590000000000000E-004        
  0.000000000000000E+000  0.000000000000000E+000  0.000000000000000E+000        
  0.000000000000000E+000  0.000000000000000E+000  0.000000000000000E+000        
  0.000000000000000E+000                                                        
   2091.00000000000       3.664000000000000E-003 -8.290000000000000E-004        
  0.000000000000000E+000  0.000000000000000E+000  0.000000000000000E+000        
  0.000000000000000E+000  0.000000000000000E+000  0.000000000000000E+000        
  0.000000000000000E+000                                                        
   590.900000000000       1.521800000000000E-002 -3.508000000000000E-003        
  0.000000000000000E+000  0.000000000000000E+000  0.000000000000000E+000        
  0.000000000000000E+000  0.000000000000000E+000  0.000000000000000E+000        
  0.000000000000000E+000                                                        
   192.300000000000       5.242300000000000E-002 -1.215600000000000E-002        
  0.000000000000000E+000  0.000000000000000E+000  0.000000000000000E+000        
  0.000000000000000E+000  0.000000000000000E+000  0.000000000000000E+000        
  0.000000000000000E+000                                                        
   69.3200000000000       0.145921000000000      -3.626100000000000E-002        
  0.000000000000000E+000  0.000000000000000E+000  0.000000000000000E+000        
  0.000000000000000E+000  0.000000000000000E+000  0.000000000000000E+000        
  0.000000000000000E+000                                                        
   26.9700000000000       0.305258000000000      -8.299200000000000E-002        
  0.000000000000000E+000  0.000000000000000E+000  0.000000000000000E+000        
  0.000000000000000E+000  0.000000000000000E+000  0.000000000000000E+000        
  0.000000000000000E+000                                                        
   11.1000000000000       0.398508000000000      -0.152090000000000             
  0.000000000000000E+000  0.000000000000000E+000  0.000000000000000E+000        
  0.000000000000000E+000  0.000000000000000E+000  0.000000000000000E+000        
  0.000000000000000E+000                                                        
   4.68200000000000       0.216980000000000      -0.115331000000000             
  0.000000000000000E+000  0.000000000000000E+000  0.000000000000000E+000        
  0.000000000000000E+000  0.000000000000000E+000  0.000000000000000E+000        
  0.000000000000000E+000                                                        
   1.42800000000000       1.759400000000000E-002  0.288979000000000             
   1.00000000000000       0.000000000000000E+000  0.000000000000000E+000        
  0.000000000000000E+000  0.000000000000000E+000  0.000000000000000E+000        
  0.000000000000000E+000                                                        
  0.554700000000000      -2.502000000000000E-003  0.586128000000000             
  0.000000000000000E+000   1.00000000000000       0.000000000000000E+000        
  0.000000000000000E+000  0.000000000000000E+000  0.000000000000000E+000        
  0.000000000000000E+000                                                        
  0.206700000000000       9.540000000000000E-004  0.277624000000000             
  0.000000000000000E+000  0.000000000000000E+000   1.00000000000000             
  0.000000000000000E+000  0.000000000000000E+000  0.000000000000000E+000        
  0.000000000000000E+000                                                        
   12.9740000000000       0.000000000000000E+000  0.000000000000000E+000        
  0.000000000000000E+000  0.000000000000000E+000  0.000000000000000E+000        
   1.00000000000000       0.000000000000000E+000  0.000000000000000E+000        
  0.000000000000000E+000                                                        
   34.9000000000000       0.000000000000000E+000  0.000000000000000E+000        
  0.000000000000000E+000  0.000000000000000E+000  0.000000000000000E+000        
  0.000000000000000E+000   1.00000000000000       0.000000000000000E+000        
  0.000000000000000E+000                                                        
   93.8810000000000       0.000000000000000E+000  0.000000000000000E+000        
  0.000000000000000E+000  0.000000000000000E+000  0.000000000000000E+000        
  0.000000000000000E+000  0.000000000000000E+000   1.00000000000000             
  0.000000000000000E+000                                                        
  6.959000000000000E-002  0.000000000000000E+000  0.000000000000000E+000        
  0.000000000000000E+000  0.000000000000000E+000  0.000000000000000E+000        
  0.000000000000000E+000  0.000000000000000E+000  0.000000000000000E+000        
   1.00000000000000                                                             
   10    8                                                                      
   63.4200000000000       6.044000000000000E-003  0.000000000000000E+000        
  0.000000000000000E+000  0.000000000000000E+000  0.000000000000000E+000        
  0.000000000000000E+000  0.000000000000000E+000  0.000000000000000E+000        
   14.6600000000000       4.179900000000000E-002  0.000000000000000E+000        
  0.000000000000000E+000  0.000000000000000E+000  0.000000000000000E+000        
  0.000000000000000E+000  0.000000000000000E+000  0.000000000000000E+000        
   4.45900000000000       0.161143000000000       0.000000000000000E+000        
  0.000000000000000E+000  0.000000000000000E+000  0.000000000000000E+000        
  0.000000000000000E+000  0.000000000000000E+000  0.000000000000000E+000        
   1.53100000000000       0.356731000000000        1.00000000000000             
  0.000000000000000E+000  0.000000000000000E+000  0.000000000000000E+000        
  0.000000000000000E+000  0.000000000000000E+000  0.000000000000000E+000        
  0.530200000000000       0.448309000000000       0.000000000000000E+000        
   1.00000000000000       0.000000000000000E+000  0.000000000000000E+000        
  0.000000000000000E+000  0.000000000000000E+000  0.000000000000000E+000        
  0.175000000000000       0.244940000000000       0.000000000000000E+000        
  0.000000000000000E+000   1.00000000000000       0.000000000000000E+000        
  0.000000000000000E+000  0.000000000000000E+000  0.000000000000000E+000        
   14.4750000000000       0.000000000000000E+000  0.000000000000000E+000        
  0.000000000000000E+000  0.000000000000000E+000   1.00000000000000             
  0.000000000000000E+000  0.000000000000000E+000  0.000000000000000E+000        
   42.7300000000000       0.000000000000000E+000  0.000000000000000E+000        
  0.000000000000000E+000  0.000000000000000E+000  0.000000000000000E+000        
   1.00000000000000       0.000000000000000E+000  0.000000000000000E+000        
   126.140000000000       0.000000000000000E+000  0.000000000000000E+000        
  0.000000000000000E+000  0.000000000000000E+000  0.000000000000000E+000        
  0.000000000000000E+000   1.00000000000000       0.000000000000000E+000        
  5.348000000000000E-002  0.000000000000000E+000  0.000000000000000E+000        
  0.000000000000000E+000  0.000000000000000E+000  0.000000000000000E+000        
  0.000000000000000E+000  0.000000000000000E+000   1.00000000000000             
    6    6                                                                      
   3.77500000000000        1.00000000000000       0.000000000000000E+000        
  0.000000000000000E+000  0.000000000000000E+000  0.000000000000000E+000        
  0.000000000000000E+000                                                        
   1.30000000000000       0.000000000000000E+000   1.00000000000000             
  0.000000000000000E+000  0.000000000000000E+000  0.000000000000000E+000        
  0.000000000000000E+000                                                        
  0.444000000000000       0.000000000000000E+000  0.000000000000000E+000        
   1.00000000000000       0.000000000000000E+000  0.000000000000000E+000        
  0.000000000000000E+000                                                        
   14.9270000000000       0.000000000000000E+000  0.000000000000000E+000        
  0.000000000000000E+000   1.00000000000000       0.000000000000000E+000        
  0.000000000000000E+000                                                        
   57.5440000000000       0.000000000000000E+000  0.000000000000000E+000        
  0.000000000000000E+000  0.000000000000000E+000   1.00000000000000             
  0.000000000000000E+000                                                        
  0.154000000000000       0.000000000000000E+000  0.000000000000000E+000        
  0.000000000000000E+000  0.000000000000000E+000  0.000000000000000E+000        
   1.00000000000000                                                             
    4    4                                                                      
   2.66600000000000        1.00000000000000       0.000000000000000E+000        
  0.000000000000000E+000  0.000000000000000E+000                                
  0.859000000000000       0.000000000000000E+000   1.00000000000000             
  0.000000000000000E+000  0.000000000000000E+000                                
   26.4830000000000       0.000000000000000E+000  0.000000000000000E+000        
   1.00000000000000       0.000000000000000E+000                                
  0.324000000000000       0.000000000000000E+000  0.000000000000000E+000        
  0.000000000000000E+000   1.00000000000000                                     
    2    2                                                                      
   1.84600000000000        1.00000000000000       0.000000000000000E+000        
  0.714000000000000       0.000000000000000E+000   1.00000000000000             
FINISH                                                                          
 
********************************************************************************
 ONE- AND TWO-ELECTRON INTEGRALS OVER SYMMETRY-ADAPTED AOS ARE CALCULATED.

  SPHERICAL HARMONICS ARE USED.
  
  INTEGRALS LESS THAN  0.10E-13 ARE NEGLECTED.

  NUCLEAR REPULSION ENERGY :   19.0339670078 A.U.
  @MOLECU-I, ONE ELECTRON INTEGRALS (CPU/WALL):        0.09/       0.17 SECONDS.
  @TWOEL-I,    4515020 INTEGRALS OF SYMMETRY TYPE  I I I I
  @TWOEL-I,   19440802 INTEGRALS OF SYMMETRY TYPE  I J I J
  @TWOEL-I,   10239849 INTEGRALS OF SYMMETRY TYPE  I I J J
  @TWOEL-I,   14394805 INTEGRALS OF SYMMETRY TYPE  I J K L
  @TWOEL-I, TOTAL NUMBER OF 2-E INTEGRALS   48590476.
  @MOLECU-I, TWO ELECTRON INTEGRALS (CPU/WALL):      200.00/      40.07 SECONDS.
 @CHECKOUT-I, Total execution time (CPU/WALL):      200.10/      40.25 seconds.

Running with 14 threads/proc

--executable xvmol finished with status     0 in       40.30 seconds (walltime).
 --invoking executable--
/nfs/workspaces/public/cfour_mpi/bin/xvmol2ja
 @GETMEM-I,  Allocated    3814 MB of main memory.
 @CHECKOUT-I, Total execution time (CPU/WALL):        0.08/       0.05 seconds.
--executable xvmol2ja finished with status     0 in        0.09 seconds (walltime).
 --invoking executable--
/nfs/workspaces/public/cfour_mpi/bin/xvprop
 @GETMEM-I,  Allocated    3814 MB of main memory.
   Property integrals will be calculated.
    --------------------------------------------------------------
                                   Property evaluated at 
    Property type                X             Y             Z
    --------------------------------------------------------------
    Dipole moment               ----          ----          ----  
    Quadrupole moment           ----          ----          ----  
    Octopole moment             ----          ----          ----  
    Relativisitic corr.         ----          ----          ----  
    Second moment            0.0000000     0.0000000     0.0000000
    Electron density         0.0000000     0.0000000     1.3909828
    Electron density         0.0000000     0.0000000    -1.1308246
    Field gradient           0.0000000     0.0000000     1.3909828
    Field gradient           0.0000000     0.0000000    -1.1308246
    Potential                0.0000000     0.0000000     1.3909828
    Potential                0.0000000     0.0000000    -1.1308246
    --------------------------------------------------------------
 @CHECKOUT-I, Total execution time (CPU/WALL):        1.64/       2.01 seconds.
--executable xvprop finished with status     0 in        2.05 seconds (walltime).
 --invoking executable--
/nfs/workspaces/public/cfour_mpi/bin/xvscf
  There are  218 functions in the AO basis.

  There are 4 irreducible representations.

       Irrep        # of functions
         1                 86
         2                 52
         3                 52
         4                 28


  Parameters for SCF calculation: 
        SCF reference function:  RHF  
  Maximum number of iterations:  150
     Full symmetry point group: CXv 
     Computational point group: C2v 
        Initial density matrix: MOREAD                 
     SCF convergence tolerance: 10**(-10)
  DIIS convergence acceleration:  ON
          Latest start for DIIS:   8
                     DIIS order:   6

  Memory information:    2523578 words required.
  Fock matrices are constructed from AO integral file.
 @GETMEM-I,  Allocated      19 MB of main memory.
  Initialization and symmetry analysis required      0.001 seconds.

  Adding electric field perturbation to one-electron Hamiltonian.
  Field direction     : Z
  Field strength      :  0.0002000 a.u.

  @INITGES-I, Occupancies from core Hamiltonian:

          Alpha population by irrep:   5    1    1    0
           Beta population by irrep:   5    1    1    0


 total no. of electrons in initial guess :  0.000000000000000E+000
  --------------------------------------------------------------------
  Iteration         Total Energy            Largest Density Difference
  --------------------------------------------------------------------
       0            19.034107147751723              0.0000000000D+00
   current occupation vector 
     5  1  1  0
     5  1  1  0
       1           -92.945573109956072              0.1780529995D+02
   current occupation vector 
     5  1  1  0
     5  1  1  0
       2           -98.357265431627553              0.1780190476D+02
   current occupation vector 
     5  1  1  0
     5  1  1  0
       3          -103.468721060640149              0.6979173188D+01
   current occupation vector 
     5  1  1  0
     5  1  1  0
       4           -99.103752470126707              0.6952885282D+01
   current occupation vector 
     5  1  1  0
     5  1  1  0
       5          -101.678005842301943              0.6231977985D+01
   current occupation vector 
     5  1  1  0
     5  1  1  0
       6           -97.754523743591434              0.6210684874D+01
   current occupation vector 
     5  1  1  0
     5  1  1  0
       7          -101.683503514974433              0.6373059137D+01
   current occupation vector 
     5  1  1  0
     5  1  1  0
       8           -97.663228847562053              0.6372240103D+01
   current occupation vector 
     5  1  1  0
     5  1  1  0
       9          -108.769114079541708              0.4812064741D+01
   current occupation vector 
     5  1  1  0
     5  1  1  0
      10          -110.827791201984937              0.1106925721D+01
   current occupation vector 
     5  1  1  0
     5  1  1  0
      11          -112.528484726896082              0.1051376726D+01
   current occupation vector 
     5  1  1  0
     5  1  1  0
      12          -112.698462092444103              0.4256418375D+00
   current occupation vector 
     5  1  1  0
     5  1  1  0
      13          -112.700258854071151              0.5571443693D-01
   current occupation vector 
     5  1  1  0
     5  1  1  0
      14          -112.700522290787504              0.1995100815D-01
   current occupation vector 
     5  1  1  0
     5  1  1  0
      15          -112.700551398620362              0.8455500251D-02
   current occupation vector 
     5  1  1  0
     5  1  1  0
      16          -112.700551926367339              0.9925449245D-03
   current occupation vector 
     5  1  1  0
     5  1  1  0
      17          -112.700551976196138              0.4541749024D-03
   current occupation vector 
     5  1  1  0
     5  1  1  0
      18          -112.700551981095501              0.1567550163D-03
   current occupation vector 
     5  1  1  0
     5  1  1  0
      19          -112.700551981216236              0.2368855940D-04
   current occupation vector 
     5  1  1  0
     5  1  1  0
      20          -112.700551981213991              0.1633675467D-05
   current occupation vector 
     5  1  1  0
     5  1  1  0
      21          -112.700551981217259              0.7902704535D-06
   current occupation vector 
     5  1  1  0
     5  1  1  0
      22          -112.700551981217771              0.1550720203D-06
   current occupation vector 
     5  1  1  0
     5  1  1  0
      23          -112.700551981216634              0.3467976151D-07
   current occupation vector 
     5  1  1  0
     5  1  1  0
      24          -112.700551981217032              0.2754281692D-08
   current occupation vector 
     5  1  1  0
     5  1  1  0
      25          -112.700551981214446              0.3804885296D-09
   current occupation vector 
     5  1  1  0
     5  1  1  0
      26          -112.700551981216663              0.1063997779D-09
   current occupation vector 
     5  1  1  0
     5  1  1  0

  SCF has converged.

 Density matrix saved to file den.dat
 total electron number:   14.0000000000003     
     E(SCF)=      -112.700551981216663              0.5149614069D-10

  Eigenvector printing suppressed.

 @PUTMOS-I, Writing converged MOs to NEWMOS. 
 @PUTMOS-I, Symmetry   1 Full Blocks 21 Partial Blocksize   2
 @PUTMOS-I, Symmetry   2 Full Blocks 13 Partial Blocksize   0
 @PUTMOS-I, Symmetry   3 Full Blocks 13 Partial Blocksize   0
 @PUTMOS-I, Symmetry   4 Full Blocks  7 Partial Blocksize   0
 @PUTFOCK-I, Writing converged Fock matrix to NEWFOCK. 
 @PUTFOCK-I, Symmetry   1 Full Blocks 21 Partial Blocksize   2
 @PUTFOCK-I, Symmetry   2 Full Blocks 13 Partial Blocksize   0
 @PUTFOCK-I, Symmetry   3 Full Blocks 13 Partial Blocksize   0
 @PUTFOCK-I, Symmetry   4 Full Blocks  7 Partial Blocksize   0


 
  ORBITAL EIGENVALUES (ALPHA)  (1H = 27.2113834 eV)

       MO #        E(hartree)               E(eV)           FULLSYM    COMPSYM
       ----   --------------------   --------------------   -------   ---------
    1     1         -20.6642606823        -562.3031201037     SG+        A1 (1)
    2     2         -11.4459642036        -311.4605203276     SG+        A1 (1)
    3     3          -1.3934354054         -37.9173050605     SG+        A1 (1)
    4     4          -0.7930234227         -21.5792643998     SG+        A1 (1)
    5     5          -0.5651310754         -15.3779983630     SG+        A1 (1)
    6    87          -0.5634769924         -15.3329884760      PI        B1 (2)
    7   139          -0.5634769924         -15.3329884760      PI        B2 (3)
  +++++++++++++++++++++++++++++++++++++++++++++++++++++++++++++++++++++++++++++
    8   140           0.0449918181           1.2242896132      PI        B2 (3)
    9    88           0.0449918181           1.2242896132      PI        B1 (2)
   10     6           0.0630418782           1.7154567170     SG+        A1 (1)
   11     7           0.0709859336           1.9316254560     SG+        A1 (1)
   12   141           0.0969690231           2.6386612647      PI        B2 (3)
   13    89           0.0969690231           2.6386612647      PI        B1 (2)
   14     8           0.1564192876           4.2563852052     SG+        A1 (1)
   15   142           0.1698365046           4.6214862410      PI        B2 (3)
   16    90           0.1698365046           4.6214862410      PI        B1 (2)
   17   191           0.2265617119           6.1650576076      DE        A2 (4)
   18     9           0.2265617119           6.1650576076      DE        A1 (1)
   19    10           0.2272605626           6.1840743002     SG+        A1 (1)
   20    11           0.2996129671           8.1528833191     SG+        A1 (1)
   21   143           0.3025401546           8.2325361416      PI        B2 (3)
   22    91           0.3025401546           8.2325361416      PI        B1 (2)
   23    12           0.3785802191          10.3016914901     SG+        A1 (1)
   24    92           0.3972147981          10.8087641620      PI        B1 (2)
   25   144           0.3972147981          10.8087641620      PI        B2 (3)
   26    13           0.5092061311          13.8562032621     SG+        A1 (1)
   27    14           0.5369991793          14.6124905532     SG+        A1 (1)
   28    15           0.5446031277          14.8194045089      DE        A1 (1)
   29   192           0.5446031277          14.8194045089      DE        A2 (4)
   30    93           0.6252920810          17.0150625519      PI        B1 (2)
   31   145           0.6252920810          17.0150625519      PI        B2 (3)
   32   146           0.7430515222          20.2194598567      PH        B2 (3)
   33    94           0.7430515222          20.2194598567      PH        B1 (2)
   34    16           0.7518157128          20.4579456080     SG+        A1 (1)
   35    17           0.7572148083          20.6048624653      DE        A1 (1)
   36   193           0.7572148083          20.6048624653      DE        A2 (4)
   37    95           0.7999013035          21.7664210509      PI        B1 (2)
   38   147           0.7999013035          21.7664210509      PI        B2 (3)
   39    18           0.8260982187          22.4792753544     SG+        A1 (1)
   40    19           0.8683152841          23.6280601073     SG+        A1 (1)
   41    20           0.8788817929          23.9155894306      DE        A1 (1)
   42   194           0.8788817929          23.9155894306      DE        A2 (4)
   43    96           0.8960333170          24.3823061276      PI        B1 (2)
   44   148           0.8960333170          24.3823061277      PI        B2 (3)
   45    97           1.0400579102          28.3014145519      PI        B1 (2)
   46   149           1.0400579102          28.3014145519      PI        B2 (3)
   47    21           1.1248671585          30.6091915245     SG+        A1 (1)
   48    22           1.4147181957          38.4964392249     SG+        A1 (1)
   49    98           1.4328567514          38.9900144206      PH        B1 (2)
   50   150           1.4328567514          38.9900144206      PH        B2 (3)
   51    23           1.5521926139          42.2373083283      DE        A1 (1)
   52   195           1.5521926139          42.2373083284      DE        A2 (4)
   53    99           1.5677075154          42.6594902593      PI        B1 (2)
   54   151           1.5677075154          42.6594902593      PI        B2 (3)
   55    24           1.6468842273          44.8139981235     SG+        A1 (1)
   56   100           1.6697260083          45.4355545838      PI        B1 (2)
   57   152           1.6697260083          45.4355545838      PI        B2 (3)
   58    25           1.7320686936          47.1319852965      DE        A1 (1)
   59   196           1.7320686936          47.1319852965      DE        A2 (4)
   60    26           1.8529246616          50.4206433791     SG+        A1 (1)
   61    27           2.0317872816          55.2877427064     SG+        A1 (1)
   62   101           2.0643736760          56.1744635786      PI        B1 (2)
   63   153           2.0643736760          56.1744635787      PI        B2 (3)
   64   197           2.0902631237          56.8789512666      PI        A2 (4)
   65    28           2.0902631237          56.8789512666      PI        A1 (1)
   66   198           2.1598629909          58.7728599375      DE        A2 (4)
   67    29           2.1598629909          58.7728599375      DE        A1 (1)
   68   154           2.2328335304          60.7584892652      PH        B2 (3)
   69   102           2.2328335304          60.7584892652      PH        B1 (2)
   70   103           2.2799980653          62.0419015048      PI        B1 (2)
   71   155           2.2799980653          62.0419015048      PI        B2 (3)
   72    30           2.2887029058          62.2787722578     SG+        A1 (1)
   73   104           2.2901651102          62.3185608625      PH        B1 (2)
   74   156           2.2901651102          62.3185608625      PH        B2 (3)
   75   199           2.3288102111          63.3701475200      DE        A2 (4)
   76    31           2.3288102111          63.3701475200      DE        A1 (1)
   77    32           2.4980327153          67.9749259611     SG+        A1 (1)
   78   105           2.5396001606          69.1060336525      PI        B1 (2)
   79   157           2.5396001606          69.1060336525      PI        B2 (3)
   80    33           2.6704000596          72.6652798535     SG+        A1 (1)
   81   106           2.6823725361          72.9910675005      PI        B1 (2)
   82   158           2.6823725361          72.9910675005      PI        B2 (3)
   83    34           2.8339884750          77.1167469451      DE        A1 (1)
   84   200           2.8339884750          77.1167469452      DE        A2 (4)
   85    35           3.3547179558          91.2865164939     SG+        A1 (1)
   86   107           3.6273050170          98.7039875267      PI        B1 (2)
   87   159           3.6273050170          98.7039875268      PI        B2 (3)
   88    36           3.7021723406         100.7412309742      PI        A1 (1)
   89   201           3.7021723406         100.7412309742      PI        A2 (4)
   90    37           3.8983908797         106.0806088697     SG+        A1 (1)
   91   108           4.0606490733         110.4958787856      PH        B1 (2)
   92   160           4.0606490733         110.4958787856      PH        B2 (3)
   93   161           4.1296309078         112.3729699333      PH        B2 (3)
   94   109           4.1296309078         112.3729699333      PH        B1 (2)
   95   110           4.1780469056         113.6904362104      PI        B1 (2)
   96   162           4.1780469056         113.6904362104      PI        B2 (3)
   97    38           4.2111143099         114.5902460283      DE        A1 (1)
   98   202           4.2111143099         114.5902460283      DE        A2 (4)
   99    39           4.2168482769         114.7462752037     SG+        A1 (1)
  100    40           4.2973253755         116.9361683859      DE        A1 (1)
  101   203           4.2973253755         116.9361683860      DE        A2 (4)
  102    41           4.3826789566         119.2587574073     SG+        A1 (1)
  103   111           4.8075958416         130.8213336778      PI        B1 (2)
  104   163           4.8075958416         130.8213336778      PI        B2 (3)
  105   204           4.9590891438         134.9436760055      DE        A2 (4)
  106    42           4.9590891438         134.9436760055      DE        A1 (1)
  107   112           4.9862694230         135.6832890038      PI        B1 (2)
  108   164           4.9862694230         135.6832890039      PI        B2 (3)
  109    43           5.0880915821         138.4540108145     SG+        A1 (1)
  110    44           5.3532995538         145.6706866143     SG+        A1 (1)
  111   113           5.5635166886         151.3909856665      PI        B1 (2)
  112   165           5.5635166886         151.3909856665      PI        B2 (3)
  113   205           5.8688675857         159.7000059988      PI        A2 (4)
  114    45           5.8688675857         159.7000059988      PI        A1 (1)
  115   114           5.9834710257         162.8185241424      PH        B1 (2)
  116   166           5.9834710257         162.8185241424      PH        B2 (3)
  117    46           6.2060341008         168.8747733115     SG+        A1 (1)
  118   206           6.2205667000         169.2702254380      DE        A2 (4)
  119    47           6.2205667000         169.2702254380      DE        A1 (1)
  120   115           6.2510483440         170.0996731409      PI        B1 (2)
  121   167           6.2510483440         170.0996731409      PI        B2 (3)
  122   116           6.4050097540         174.2891760977      PH        B1 (2)
  123   168           6.4050097540         174.2891760977      PH        B2 (3)
  124    48           6.4599354935         175.7837814522     SG+        A1 (1)
  125    49           6.5353298992         177.8353675335      DE        A1 (1)
  126   207           6.5353298992         177.8353675335      DE        A2 (4)
  127    50           6.7076609050         182.5247326042      DE        A1 (1)
  128   208           6.7076609050         182.5247326043      DE        A2 (4)
  129   117           7.0812112249         192.6895535767      PI        B1 (2)
  130   169           7.0812112249         192.6895535767      PI        B2 (3)
  131    51           7.4003202365         201.3729512372     SG+        A1 (1)
  132   118           7.8688475618         214.1222279195      PI        B1 (2)
  133   170           7.8688475618         214.1222279195      PI        B2 (3)
  134    52           8.2778221618         225.2509925628     SG+        A1 (1)
  135    53           9.9583378879         270.9801502932     SG+        A1 (1)
  136   171          10.0404276534         273.2139263761      PI        B2 (3)
  137   119          10.0404276534         273.2139263763      PI        B1 (2)
  138   209          10.6191685789         288.9622675908      PI        A2 (4)
  139    54          10.6191685789         288.9622675908      PI        A1 (1)
  140   172          10.7855828597         293.4906303881      PH        B2 (3)
  141   120          10.7855828597         293.4906303881      PH        B1 (2)
  142    55          10.8322036791         294.7592473784     SG+        A1 (1)
  143    56          11.0191352327         299.8459135530      DE        A1 (1)
  144   210          11.0191352327         299.8459135531      DE        A2 (4)
  145   173          11.1498933112         303.4040217588      PI        B2 (3)
  146   121          11.1498933112         303.4040217588      PI        B1 (2)
  147    57          11.4715299796         312.1562004594     SG+        A1 (1)
  148   174          11.8633302473         322.8176277588      PH        B2 (3)
  149   122          11.8633302473         322.8176277588      PH        B1 (2)
  150   211          12.1063765096         329.4312527888      DE        A2 (4)
  151    58          12.1063765097         329.4312527891      DE        A1 (1)
  152   175          12.6014746446         342.9035579594      PI        B2 (3)
  153   123          12.6014746446         342.9035579594      PI        B1 (2)
  154   212          12.7798274399         347.7567842533      DE        A2 (4)
  155    59          12.7798274399         347.7567842533      DE        A1 (1)
  156    60          12.9613187165         352.6954129647     SG+        A1 (1)
  157   124          13.2608745360         360.8467412178      PI        B1 (2)
  158   176          13.2608745360         360.8467412179      PI        B2 (3)
  159    61          14.2633903657         388.1265838254     SG+        A1 (1)
  160    62          17.6362507608         479.9067811913     SG+        A1 (1)
  161   125          18.9982787291         516.9694464381      PI        B1 (2)
  162   177          18.9982787291         516.9694464382      PI        B2 (3)
  163    63          20.4531235400         556.5577863744     SG+        A1 (1)
  164   213          26.3700559044         717.5657014953      DE        A2 (4)
  165    64          26.3700559044         717.5657014953      DE        A1 (1)
  166   126          26.7972293876         729.1896829237      PI        B1 (2)
  167   178          26.7972293876         729.1896829237      PI        B2 (3)
  168    65          27.3996879900         745.5834149354     SG+        A1 (1)
  169   179          33.6873751448         916.6800808047      PI        B2 (3)
  170   127          33.6873751448         916.6800808055      PI        B1 (2)
  171    66          34.4793425267         938.2306088729     SG+        A1 (1)
  172    67          36.1791434970         984.4845447801     SG+        A1 (1)
  173   214          47.0853942966        1281.2587167441      DE        A2 (4)
  174    68          47.0853942966        1281.2587167441      DE        A1 (1)
  175   128          47.3160370015        1287.5348238163      PI        B1 (2)
  176   180          47.3160370015        1287.5348238163      PI        B2 (3)
  177    69          47.9548551123        1304.9179483534     SG+        A1 (1)
  178    70          63.9697243509        1740.7046953041     SG+        A1 (1)
  179   129          66.5237925045        1810.2044230615      PI        B1 (2)
  180   181          66.5237925045        1810.2044230616      PI        B2 (3)
  181    71          67.5804522490        1838.9575964925     SG+        A1 (1)
  182   182          98.5861459883        2682.6654164172      PH        B2 (3)
  183   130          98.5861459883        2682.6654164172      PH        B1 (2)
  184   215          98.6003659158        2683.0523603151      DE        A2 (4)
  185    72          98.6003659158        2683.0523603151      DE        A1 (1)
  186   131          98.6284439225        2683.8164017195      PI        B1 (2)
  187   183          98.6284439225        2683.8164017195      PI        B2 (3)
  188    73          98.6505871224        2684.4189488231     SG+        A1 (1)
  189   184         103.2864854621        2810.5681559475      PH        B2 (3)
  190   132         103.2864854621        2810.5681559475      PH        B1 (2)
  191    74         103.3097520366        2811.2012716274      DE        A1 (1)
  192   216         103.3097520366        2811.2012716280      DE        A2 (4)
  193   133         103.3530394365        2812.3791816631      PI        B1 (2)
  194   185         103.3530394365        2812.3791816631      PI        B2 (3)
  195    75         103.3623523708        2812.6325994887     SG+        A1 (1)
  196    76         115.0562551022        3130.8398701530      DE        A1 (1)
  197   217         115.0562551022        3130.8398701531      DE        A2 (4)
  198   186         115.2621613440        3136.4428638429      PI        B2 (3)
  199   134         115.2621613440        3136.4428638429      PI        B1 (2)
  200    77         115.5712884720        3144.8546406441     SG+        A1 (1)
  201   187         116.9528406434        3182.4485864662      PI        B2 (3)
  202   135         116.9528406434        3182.4485864665      PI        B1 (2)
  203    78         117.5951529016        3199.9267915867     SG+        A1 (1)
  204    79         122.3681088391        3329.8055255524     SG+        A1 (1)
  205   218         198.5551889698        5402.9613731175      DE        A2 (4)
  206    80         198.5551889698        5402.9613731176      DE        A1 (1)
  207   188         198.6784557822        5406.3156336085      PI        B2 (3)
  208   136         198.6784557822        5406.3156336085      PI        B1 (2)
  209    81         199.0121279830        5415.3953157959     SG+        A1 (1)
  210    82         216.4910005394        5891.0196183272     SG+        A1 (1)
  211   137         224.9752227301        6121.8870412087      PI        B1 (2)
  212   189         224.9752227301        6121.8870412087      PI        B2 (3)
  213    83         225.8066414456        6144.5110946416     SG+        A1 (1)
  214   138         395.4203509340       10759.9347734270      PI        B1 (2)
  215   190         395.4203509340       10759.9347734273      PI        B2 (3)
  216    84         395.9580413930       10774.5660746588     SG+        A1 (1)
  217    85         508.9781436047       13849.9994078477     SG+        A1 (1)
  218    86         895.3248633360       24363.0281237898     SG+        A1 (1)


  VSCF finished.

 @CHECKOUT-I, Total execution time (CPU/WALL):       37.12/      15.50 seconds.
--executable xvscf finished with status     0 in       15.55 seconds (walltime).
 --invoking executable--
/nfs/workspaces/public/cfour_mpi/bin/xvtran
 @GETMEM-I,  Allocated    3814 MB of main memory.
  Full RHF integral transformation
  Transformation of IIII integrals :
  1 pass through the AO integral file was required.
     4515020 AO integrals were read.
     8752345 MO integrals were written to HF2.
  Transformation of IIJJ integrals :
  1 pass through the AO integral file was required.
    10239849 AO integrals were read.
    14538694 MO integrals were written to HF2.
  Transformation of IJIJ integrals :
  1 pass through the AO integral file was required.
    19440802 AO integrals were read.
    27239699 MO integrals were written to HF2.
  Transformation of IJKL integrals :
  1 pass through the AO integral file was required.
    14394805 AO integrals were read.
    18423944 MO integrals were written to HF2.
  Summary of active molecular orbitals: 
------------------------------------------------------------------------
 
  Index      Eigenvalue    Symmetry    Index      Eigenvalue    Symmetry
------------------------------------------------------------------------
     1       -20.6642607        1       110         4.1296309        2
     2       -11.4459642        1       111         4.1780469        2
     3        -1.3934354        1       112         4.8075958        2
     4        -0.7930234        1       113         4.9862694        2
     5        -0.5651311        1       114         5.5635167        2
     6        -0.5634770        2       115         5.9834710        2
     7        -0.5634770        3       116         6.2510483        2
     8         0.0630419        1       117         6.4050098        2
     9         0.0709859        1       118         7.0812112        2
    10         0.1564193        1       119         7.8688476        2
    11         0.2265617        1       120        10.0404277        2
    12         0.2272606        1       121        10.7855829        2
    13         0.2996130        1       122        11.1498933        2
    14         0.3785802        1       123        11.8633302        2
    15         0.5092061        1       124        12.6014746        2
    16         0.5369992        1       125        13.2608745        2
    17         0.5446031        1       126        18.9982787        2
    18         0.7518157        1       127        26.7972294        2
    19         0.7572148        1       128        33.6873751        2
    20         0.8260982        1       129        47.3160370        2
    21         0.8683153        1       130        66.5237925        2
    22         0.8788818        1       131        98.5861460        2
    23         1.1248672        1       132        98.6284439        2
    24         1.4147182        1       133       103.2864855        2
    25         1.5521926        1       134       103.3530394        2
    26         1.6468842        1       135       115.2621613        2
    27         1.7320687        1       136       116.9528406        2
    28         1.8529247        1       137       198.6784558        2
    29         2.0317873        1       138       224.9752227        2
    30         2.0902631        1       139       395.4203509        2
    31         2.1598630        1       140         0.0449918        3
    32         2.2887029        1       141         0.0969690        3
    33         2.3288102        1       142         0.1698365        3
    34         2.4980327        1       143         0.3025402        3
    35         2.6704001        1       144         0.3972148        3
    36         2.8339885        1       145         0.6252921        3
    37         3.3547180        1       146         0.7430515        3
    38         3.7021723        1       147         0.7999013        3
    39         3.8983909        1       148         0.8960333        3
    40         4.2111143        1       149         1.0400579        3
    41         4.2168483        1       150         1.4328568        3
    42         4.2973254        1       151         1.5677075        3
    43         4.3826790        1       152         1.6697260        3
    44         4.9590891        1       153         2.0643737        3
    45         5.0880916        1       154         2.2328335        3
    46         5.3532996        1       155         2.2799981        3
    47         5.8688676        1       156         2.2901651        3
    48         6.2060341        1       157         2.5396002        3
    49         6.2205667        1       158         2.6823725        3
    50         6.4599355        1       159         3.6273050        3
    51         6.5353299        1       160         4.0606491        3
    52         6.7076609        1       161         4.1296309        3
    53         7.4003202        1       162         4.1780469        3
    54         8.2778222        1       163         4.8075958        3
    55         9.9583379        1       164         4.9862694        3
    56        10.6191686        1       165         5.5635167        3
    57        10.8322037        1       166         5.9834710        3
    58        11.0191352        1       167         6.2510483        3
    59        11.4715300        1       168         6.4050098        3
    60        12.1063765        1       169         7.0812112        3
    61        12.7798274        1       170         7.8688476        3
    62        12.9613187        1       171        10.0404277        3
    63        14.2633904        1       172        10.7855829        3
    64        17.6362508        1       173        11.1498933        3
    65        20.4531235        1       174        11.8633302        3
    66        26.3700559        1       175        12.6014746        3
    67        27.3996880        1       176        13.2608745        3
    68        34.4793425        1       177        18.9982787        3
    69        36.1791435        1       178        26.7972294        3
    70        47.0853943        1       179        33.6873751        3
    71        47.9548551        1       180        47.3160370        3
    72        63.9697244        1       181        66.5237925        3
    73        67.5804522        1       182        98.5861460        3
    74        98.6003659        1       183        98.6284439        3
    75        98.6505871        1       184       103.2864855        3
    76       103.3097520        1       185       103.3530394        3
    77       103.3623524        1       186       115.2621613        3
    78       115.0562551        1       187       116.9528406        3
    79       115.5712885        1       188       198.6784558        3
    80       117.5951529        1       189       224.9752227        3
    81       122.3681088        1       190       395.4203509        3
    82       198.5551890        1       191         0.2265617        4
    83       199.0121280        1       192         0.5446031        4
    84       216.4910005        1       193         0.7572148        4
    85       225.8066414        1       194         0.8788818        4
    86       395.9580414        1       195         1.5521926        4
    87       508.9781436        1       196         1.7320687        4
    88       895.3248633        1       197         2.0902631        4
    89         0.0449918        2       198         2.1598630        4
    90         0.0969690        2       199         2.3288102        4
    91         0.1698365        2       200         2.8339885        4
    92         0.3025402        2       201         3.7021723        4
    93         0.3972148        2       202         4.2111143        4
    94         0.6252921        2       203         4.2973254        4
    95         0.7430515        2       204         4.9590891        4
    96         0.7999013        2       205         5.8688676        4
    97         0.8960333        2       206         6.2205667        4
    98         1.0400579        2       207         6.5353299        4
    99         1.4328568        2       208         6.7076609        4
   100         1.5677075        2       209        10.6191686        4
   101         1.6697260        2       210        11.0191352        4
   102         2.0643737        2       211        12.1063765        4
   103         2.2328335        2       212        12.7798274        4
   104         2.2799981        2       213        26.3700559        4
   105         2.2901651        2       214        47.0853943        4
   106         2.5396002        2       215        98.6003659        4
   107         2.6823725        2       216       103.3097520        4
   108         3.6273050        2       217       115.0562551        4
   109         4.0606491        2       218       198.5551890        4
------------------------------------------------------------------------
  -20.6642606823030       -11.4459642036272       -1.39343540543924     
 -0.793023422683694      -0.565131075364764      -0.563476992352330     
 -0.563476992352294       6.304187816548239E-002  7.098593363093503E-002
  0.156419287567387       0.226561711948762       0.227260562583298     
  0.299612967088263       0.378580219120316       0.509206131067440     
  0.536999179293484       0.544603127708204       0.751815712829859     
  0.757214808319492       0.826098218675729       0.868315284085392     
  0.878881792927207        1.12486715851856        1.41471819565588     
   1.55219261393193        1.64688422726471        1.73206869359295     
   1.85292466163502        2.03178728158450        2.09026312372497     
   2.15986299092418        2.28870290577624        2.32881021109593     
   2.49803271527460        2.67040005961429        2.83398847502664     
   3.35471795579282        3.70217234064747        3.89839087966715     
   4.21111430991276        4.21684827694775        4.29732537545099     
   4.38267895660410        4.95908914375537        5.08809158208917     
   5.35329955382838        5.86886758571636        6.20603410084086     
   6.22056669996433        6.45993549347433        6.53532989923402     
   6.70766090503938        7.40032023646238        8.27782216183847     
   9.95833788785620        10.6191685789394        10.8322036790827     
   11.0191352326851        11.4715299795963        12.1063765096592     
   12.7798274399129        12.9613187165150        14.2633903657156     
   17.6362507608226        20.4531235399966        26.3700559044463     
   27.3996879899700        34.4793425266595        36.1791434969865     
[...]
 Convergence information after    11 iterations: 
 Largest element of residual vector : -0.42069933E-05.
 Largest element of DIIS residual   : -0.19805423E-05.
 Convergence information after    12 iterations: 
 Largest element of residual vector : -0.24017476E-05.
 Largest element of DIIS residual   : -0.12408513E-05.
 Convergence information after    13 iterations: 
 Largest element of residual vector : -0.96240554E-06.
 Largest element of DIIS residual   : -0.36397459E-06.
 Convergence information after    14 iterations: 
 Largest element of residual vector : -0.47602122E-06.
 Largest element of DIIS residual   : -0.22919989E-06.
 Convergence information after    15 iterations: 
 Largest element of residual vector : -0.15440331E-06.
 Largest element of DIIS residual   : -0.93801569E-07.
 Perturbed amplitude equations converged in    15 iterations.
  Dominant contributions to perturbed wavefunction:
    7    7  140   28  -0.2322819432 ABAB
    7    7   28  140  -0.2322819432 ABAB
    7    7  140   39  -0.1972702866 ABAB
    7    7   39  140  -0.1972702866 ABAB
    7    7  141   28  -0.1780098402 ABAB
    7    7   28  141  -0.1780098402 ABAB
    7    7  140   54  -0.1566261699 ABAB
    7    7   54  140  -0.1566261699 ABAB
    7    7  141   39  -0.1564710504 ABAB
    7    7   39  141  -0.1564710504 ABAB
    7    6   28   89  -0.1495141014 ABAB
    6    7   89   28  -0.1495141014 ABAB
    7    7  140   20  -0.1415279760 ABAB
    7    7   20  140  -0.1415279760 ABAB
    7    7  140   45   0.1307280582 ABAB
    7    7   45  140   0.1307280582 ABAB
    7    6   39   89  -0.1273502767 ABAB
    6    7   89   39  -0.1273502767 ABAB
    7    7  141   54  -0.1251919260 ABAB
    7    7   54  141  -0.1251919260 ABAB
  norm of converged amps    2.00644063045562     
 Starting iterative solution of the perturbed Lambda equations.
 The DIIS procedure is used to accelerate convergence.
 Convergence criterion is 10**(-7).
 Maximum number of iterations is 100.
 Convergence information after     1 iterations: 
 Largest element of residual vector :  0.62815728E-01.
 Largest element of DIIS residual   :  0.62815728E-01.
 Convergence information after     2 iterations: 
 Largest element of residual vector : -0.12212496E-01.
 Largest element of DIIS residual   :  0.77526333E-02.
 Convergence information after     3 iterations: 
 Largest element of residual vector :  0.48591436E-02.
 Largest element of DIIS residual   :  0.43596631E-02.
 Convergence information after     4 iterations: 
 Largest element of residual vector :  0.31203277E-02.
 Largest element of DIIS residual   :  0.26991922E-02.
 Convergence information after     5 iterations: 
 Largest element of residual vector :  0.21591395E-02.
 Largest element of DIIS residual   :  0.12109058E-02.
 Convergence information after     6 iterations: 
 Largest element of residual vector :  0.84211559E-03.
 Largest element of DIIS residual   :  0.32632647E-03.
 Convergence information after     7 iterations: 
 Largest element of residual vector :  0.30113673E-03.
 Largest element of DIIS residual   :  0.13848181E-03.
 Convergence information after     8 iterations: 
 Largest element of residual vector :  0.88631814E-04.
 Largest element of DIIS residual   :  0.56215480E-04.
 Convergence information after     9 iterations: 
 Largest element of residual vector :  0.34513161E-04.
 Largest element of DIIS residual   : -0.94202134E-05.
 Convergence information after    10 iterations: 
 Largest element of residual vector : -0.67636296E-05.
 Largest element of DIIS residual   : -0.53520689E-05.
 Convergence information after    11 iterations: 
 Largest element of residual vector : -0.30796819E-05.
 Largest element of DIIS residual   : -0.17253502E-05.
 Convergence information after    12 iterations: 
 Largest element of residual vector : -0.18223581E-05.
 Largest element of DIIS residual   : -0.13653599E-05.
 Convergence information after    13 iterations: 
 Largest element of residual vector : -0.10101265E-05.
 Largest element of DIIS residual   : -0.68546700E-06.
 Convergence information after    14 iterations: 
 Largest element of residual vector : -0.67297246E-06.
 Largest element of DIIS residual   : -0.44178739E-06.
 Convergence information after    15 iterations: 
 Largest element of residual vector : -0.30427379E-06.
 Largest element of DIIS residual   : -0.18397965E-06.
 Convergence information after    16 iterations: 
 Largest element of residual vector : -0.16401926E-06.
 Largest element of DIIS residual   : -0.64066581E-07.
 Perturbed Lambda equations converged in    16 iterations.
  Dominant contributions to perturbed wavefunction:
    7    7  140   28  -0.2127196264 ABAB
    7    7   28  140  -0.2127196264 ABAB
    7    7  140   39  -0.1787399846 ABAB
    7    7   39  140  -0.1787399846 ABAB
    7    7  141   28  -0.1616974673 ABAB
    7    7   28  141  -0.1616974673 ABAB
    7    7  140   54  -0.1449182334 ABAB
    7    7   54  140  -0.1449182334 ABAB
    7    7  141   39  -0.1406520173 ABAB
    7    7   39  141  -0.1406520173 ABAB
    7    6   28   89  -0.1345194942 ABAB
    6    7   89   28  -0.1345194942 ABAB
    7    7  140   20  -0.1271330851 ABAB
    7    7   20  140  -0.1271330851 ABAB
    7    7  140   45   0.1175598836 ABAB
    7    7   45  140   0.1175598836 ABAB
    7    7  141   54  -0.1150507915 ABAB
    7    7   54  141  -0.1150507915 ABAB
    7    6   39   89  -0.1133777710 ABAB
    6    7   89   39  -0.1133777710 ABAB
        The DBOC first-order density matrix is being calculated 
             (Symmetry block 3, perturbation   2)
 term   4.54261181385055     
 final tnorm  0.857743636893321     
  norm contr. I: |<0|L dT/dx|0>|^2   0.000000000000000E+000
  norm contr. II: <0|[nabla(1+L)e-T][nabla e^T]|0>   4.54261181385055     
  total norm contribution   4.54261181385055     
 oo  8.454010575344981E-003
 vv  -34.0584377904348     
 vo  6.826894667821926E-002
  Correlated perturbed 1-el contribution to DBOC  -33.9817148331813       cm**-1
  SUM_I |dc_I/dx|^2 contribution to DBOC   17.1016143383555       cm**-1
 
 
  The total diagonal Born-Oppenheimer correction (DBOC) is:      0.0040075059 a.u.
  The total diagonal Born-Oppenheimer correction (DBOC) is:        879.545889 cm-1
 
 Total CC energy including DBOC  -113.215639461681     
 First-order density matrix is being calculated  (Symmetry block 3, perturbation   2)
 Calculation of the contributions of <pq||rs> to dI(i,j)/dx required   2.8 seconds.
 Calculation of the contributions of <pq||rs> to dI(a,b)/dx required  15.2 seconds.
 Calculation of the contributions of <pq||rs> to dI(i,a)/dx required   9.9 seconds.
 First-order Z-vector equations are solved for 1 perturbation.
 Convergence reached after  19 iterations.
        U*G(pq,rs) contribution is being calculated
             (Symmetry block 3, perturbation   2)

 CCSD contribution to force constants 

        0.0000000000        0.0000000000        0.0000000000
        0.0000000000        0.0000000000        0.0000000000
        0.0000000000        0.0000000000        0.0000000000
        0.0000000000        0.0000000000        0.0000000000
        0.0000000000        0.0000000000        0.0000000000
        0.0000000000        0.0000000000        0.0000000000
        0.0000000000        0.0000000000        0.0000000000
        0.0000000000        0.0000000000        0.0000000000
        0.0000000000        0.0000000000        0.0000000000
        0.0000000000        0.0000000000        0.0000000000
        0.0000000000        0.0000000000        0.0000000000
        0.0000000000        1.1610784841       -1.1610784841

 CCSD contribution to dipole derivatives 

        0.0000000000        0.0000000000        0.0000000000
        0.0000000000        0.0000000000        0.0000000000
        0.0000000000        0.0000000000        0.0000000000
        0.0000000000        0.0000000000       -0.0525113122
        0.0000000000        0.0000000000        0.0000000000
        0.0000000000        0.0000000000        0.0000000000
 @CHECKOUT-I, Total execution time (CPU/WALL):     1183.59/     527.82 seconds.
--executable xsdcc finished with status     0 in      527.98 seconds (walltime).
 --invoking executable--
/nfs/workspaces/public/cfour_mpi/bin/xanti
 @GETMEM-I,  Allocated    3814 MB of main memory.
 CCSD MO derivative gammas will be sorted to Mulliken order.
 @CHECKOUT-I, Total execution time (CPU/WALL):       15.61/      33.90 seconds.
--executable xanti finished with status     0 in       35.74 seconds (walltime).
 --invoking executable--
/nfs/workspaces/public/cfour_mpi/bin/xbcktrn
 @GETMEM-I,  Allocated    3814 MB of main memory.
 CCSD MO derivative gammas will be transformed to the AO basis.
 @CHECKOUT-I, Total execution time (CPU/WALL):       20.69/      12.68 seconds.
--executable xbcktrn finished with status     0 in       12.73 seconds (walltime).
 --invoking executable--
/nfs/workspaces/public/cfour_mpi/bin/xvdint
 @GETMEM-I,  Allocated    3814 MB of main memory.
 One- and two-electron integral derivatives are calculated
 for RHF-CC/MBPT hessians and dipole derivatives.
 Spherical gaussians are used.
  magnet F F
                    8722  records have been written to the Sort file.
  Total length of Sort file :             178609116  words.
 Evaluation of 2el integral derivatives

                      Two-electron integral gradient
                      ------------------------------

                         C #1 z     0.0000000000
                         O #2 z     0.0000000000


 C #1       0.0000000000           -0.1454410959            0.0000000000
 O #2       0.0000000000            0.1454410959            0.0000000000


 Evaluation of 2e integral derivatives required  345.68 seconds.
  contribution to Hessian
        0.0000000000        0.0000000000        0.0000000000
        0.0000000000       -0.1454410959        0.1454410959
 @CHECKOUT-I, Total execution time (CPU/WALL):      345.67/      90.87 seconds.
--executable xvdint finished with status     0 in       90.99 seconds (walltime).
 --invoking executable--
/nfs/workspaces/public/cfour_mpi/bin/xanti
 @GETMEM-I,  Allocated    3814 MB of main memory.
 CCSD MO gammas will be sorted to Mulliken order.
 @CHECKOUT-I, Total execution time (CPU/WALL):       13.80/      43.18 seconds.
--executable xanti finished with status     0 in       43.75 seconds (walltime).
 --invoking executable--
/nfs/workspaces/public/cfour_mpi/bin/xbcktrn
 @GETMEM-I,  Allocated    3814 MB of main memory.
 CCSD MO gammas will be transformed to the AO basis.
 @CHECKOUT-I, Total execution time (CPU/WALL):       30.41/       4.59 seconds.
--executable xbcktrn finished with status     0 in        4.66 seconds (walltime).
 --invoking executable--
/nfs/workspaces/public/cfour_mpi/bin/xvdint
 @GETMEM-I,  Allocated    3814 MB of main memory.
 One- and two-electron integral derivatives are calculated
 for RHF-CC/MBPT hessians and dipole derivatives.
 Spherical gaussians are used.
  magnet F F

                     Kinetic energy integral gradient
                     --------------------------------

                         C #1 z    -0.9529831137
                         O #2 z     0.9529831137


 C #1       0.0000000000            0.0000000000           -0.9529831137
 O #2       0.0000000000            0.0000000000            0.9529831137



                   Nuclear attraction integral gradient
                   ------------------------------------

                         C #1 z    18.5101028580
                         O #2 z   -18.5101028580


 C #1       0.0000000000            0.0000000000           18.5101028580
 O #2       0.0000000000            0.0000000000          -18.5101028580



                      Reorthonormalization gradient
                      -----------------------------

                         C #1 z     0.0000000000
                         O #2 z     0.0000000000


 C #1       0.0000000000            0.0000000000            0.0000000000
 O #2       0.0000000000            0.0000000000            0.0000000000



                     Kinetic energy integral Hessian
                     -------------------------------


           Symmetry 1

           C #1 z      O #2 z

 C #1 z    0.917322
 O #2 z   -0.917322    0.917322


           Symmetry 2

           C #1 x      O #2 x

 C #1 x   -0.960610
 O #2 x    0.960610   -0.960610


           Symmetry 3

           C #1 y      O #2 y

 C #1 y   -0.960610
 O #2 y    0.960610   -0.960610




           C #1 x      C #1 y      C #1 z      O #2 x      O #2 y      O #2 z

 C #1 x   -0.960610
 C #1 y    0.000000   -0.960610
 C #1 z    0.000000    0.000000    0.917322

 O #2 x    0.960610    0.000000    0.000000   -0.960610
 O #2 y    0.000000    0.960610    0.000000    0.000000   -0.960610
 O #2 z    0.000000    0.000000   -0.917322    0.000000    0.000000    0.917322




                   Nuclear attraction integral Hessian
                   -----------------------------------


           Symmetry 1

           C #1 z      O #2 z

 C #1 z  -11.406513
 O #2 z   11.406513  -11.406513


           Symmetry 2

           C #1 x      O #2 x

 C #1 x   12.869709
 O #2 x  -12.869709   12.869709


           Symmetry 3

           C #1 y      O #2 y

 C #1 y   12.869709
 O #2 y  -12.869709   12.869709




           C #1 x      C #1 y      C #1 z      O #2 x      O #2 y      O #2 z

 C #1 x   12.869709
 C #1 y    0.000000   12.869709
 C #1 z    0.000000    0.000000  -11.406513

 O #2 x  -12.869709    0.000000    0.000000   12.869709
 O #2 y    0.000000  -12.869709    0.000000    0.000000   12.869709
 O #2 z    0.000000    0.000000   11.406513    0.000000    0.000000  -11.406513




                Highest order reorthonormalization Hessian
                ------------------------------------------


           Symmetry 1

           C #1 z      O #2 z

 C #1 z    0.000000
 O #2 z    0.000000    0.000000


           Symmetry 2

           C #1 x      O #2 x

 C #1 x    0.000000
 O #2 x    0.000000    0.000000


           Symmetry 3

           C #1 y      O #2 y

 C #1 y    0.000000
 O #2 y    0.000000    0.000000




           C #1 x      C #1 y      C #1 z      O #2 x      O #2 y      O #2 z




                Electronic contributions to dipole moment
                -----------------------------------------

                               au             Debye

                    z      0.91107633      2.31572545

  Conversion factor used: 1 a.u. =   2.54174691 Debye 



   Electronic contributions to static part of dipole moment derivatives
   --------------------------------------------------------------------


                     Total dipole moment derivatives
                     -------------------------------


           Symmetry 1
                              Ez

               C #1 z    -5.67803262
               O #2 z    -8.32196738

           Symmetry 2
                              Ex

               C #1 x    -5.69477319
               O #2 x    -8.30522681

           Symmetry 3
                              Ey

               C #1 y    -5.69477319
               O #2 y    -8.30522681



                       Ex          Ey          Ez

      C #1    x   -5.694773    0.000000    0.000000
      C #1    y    0.000000   -5.694773    0.000000
      C #1    z    0.000000    0.000000   -5.678033

      O #2    x   -8.305227    0.000000    0.000000
      O #2    y    0.000000   -8.305227    0.000000
      O #2    z    0.000000    0.000000   -8.321967

 Evaluation of 1e integral derivatives required    1.55 seconds.
                    8815  records have been written to the Sort file.
  Total length of Sort file :             180513570  words.
 Evaluation of 2el integral derivatives

                      Two-electron integral gradient
                      ------------------------------

                         C #1 z    -9.3339521244
                         O #2 z     9.3339521244


 C #1       0.0000000000            0.0000000000           -9.3339521244
 O #2       0.0000000000            0.0000000000            9.3339521244


 Evaluation of 2e integral derivatives required  686.05 seconds.

                            Molecular gradient
                            ------------------

                         C #1 z     0.6754197021
                         O #2 z    -0.6754197021


 C #1       0.0000000000            0.0000000000            0.6754197021
 O #2       0.0000000000            0.0000000000           -0.6754197021


  Molecular gradient norm 0.955E+00

                            Molecular hessian
                            -----------------


           Symmetry 1

           C #1 z      O #2 z

 C #1 z   37.345860
 O #2 z  -37.345860   37.345860


           Symmetry 2

           C #1 x      O #2 x

 C #1 x   -0.726503
 O #2 x    0.726503   -0.726503


           Symmetry 3

           C #1 y      O #2 y

 C #1 y   -0.726503
 O #2 y    0.726503   -0.726503




           C #1 x      C #1 y      C #1 z      O #2 x      O #2 y      O #2 z

 C #1 x   -0.726503
 C #1 y    0.000000   -0.726503
 C #1 z    0.000000    0.000000   37.345860

 O #2 x    0.726503    0.000000    0.000000   -0.726503
 O #2 y    0.000000    0.726503    0.000000    0.000000   -0.726503
 O #2 z    0.000000    0.000000  -37.345860    0.000000    0.000000   37.345860




                           Total dipole moment
                           -------------------

                               au             Debye

                    z      0.21037633      0.53472338

  Conversion factor used: 1 a.u. =   2.54174691 Debye 



                     Total dipole moment derivatives
                     -------------------------------


           Symmetry 1
                              Ez

               C #1 z     0.69435488
               O #2 z    -0.69435488

           Symmetry 2
                              Ex

               C #1 x     0.08329292
               O #2 x    -0.08329292

           Symmetry 3
                              Ey

               C #1 y     0.08329292
               O #2 y    -0.08329292



                       Ex          Ey          Ez

      C #1    x    0.083293    0.000000    0.000000
      C #1    y    0.000000    0.083293    0.000000
      C #1    z    0.000000    0.000000    0.694355

      O #2    x   -0.083293    0.000000    0.000000
      O #2    y    0.000000   -0.083293    0.000000
      O #2    z    0.000000    0.000000   -0.694355

 @CHECKOUT-I, Total execution time (CPU/WALL):      687.60/     116.50 seconds.
--executable xvdint finished with status     0 in      116.60 seconds (walltime).
 --invoking executable--
/nfs/workspaces/public/cfour_mpi/bin/xjoda
  @GTFLGS-I, Hessian will be transformed to curvilinear coordinates.
  @GTFLGS-I, Hessian will be transformed to curvilinear coordinates.
  igrd and ihes are                      0                     1
  gradient from JOBARC 
   0.000000000000000   0.000000000000000   0.675419702081257
   0.000000000000000   0.000000000000000  -0.675419702081257
 
  @PROJFCM-I, Projecting force constant matrix onto totally symmetric subspace.
  Largest difference between matrix elements of symmetrized
  and unsymmetrized FCM :     0.9677814106E-12.
  read isotopes from ZMAT file 
 
  Summary of diagonal Born-Oppenheimer correction at the correlated level
  The total diagonal Born-Oppenheimer correction (DBOC) is:      0.0040075059 a.u.
  The total diagonal Born-Oppenheimer correction (DBOC) is:        879.545889 cm-1
  The total diagonal Born-Oppenheimer correction (DBOC) is:            10.522 kJ/mole
  hellooooooo 
  readis is  F
 
 @CHECKOUT-I, Total execution time (CPU/WALL):        0.01/       0.08 seconds.
--executable xjoda finished with status     0 in        0.13 seconds (walltime).
  The final electronic energy is      -113.215639461680780 a.u. 
  This computation required                         5218.11 seconds (walltime).
