 --invoking executable--
/nfs/workspaces/public/cfour_mpi/bin/xjoda


   *************************************************************************
         <<<     CCCCCC     CCCCCC   |||     CCCCCC     CCCCCC   >>>
       <<<      CCC        CCC       |||    CCC        CCC         >>>
      <<<      CCC        CCC        |||   CCC        CCC            >>>
    <<<        CCC        CCC        |||   CCC        CCC              >>>
      <<<      CCC        CCC        |||   CCC        CCC            >>>
       <<<      CCC        CCC       |||    CCC        CCC         >>>
         <<<     CCCCCC     CCCCCC   |||     CCCCCC     CCCCCC   >>>
   *************************************************************************

     ****************************************************************
     * CFOUR Coupled-Cluster techniques for Computational Chemistry *
     ****************************************************************
 

   Department of Chemistry                Institut fuer Physikalische Chemie
   University of Florida                  Universitaet Mainz
   Gainesville, FL 32611, USA             D-55099 Mainz, Germany

   Department of Chemistry                Fakultaet fuer Chemie und Biowiss.
   Johns Hopkins University               Karlsruher Institut fuer Technologie
   Baltimore, MD 21218, USA               D-76131 Karlsruhe, Germany

   Department of Chemistry                Department of Physical Chemistry
   Southern Methodist University          Eotvos Lorand University
   Dallas, TX 75275, USA                  H-1053 Budapest, Hungary

 
                       Version 2.1
 
                     vincent.theory.phys.ucl.ac.uk                     
                     Fri 28 Feb 14:31:45 GMT 2025                      
                     integer*8 version is running
 
********************************************************************************
*                          Input from ZMAT file                                *
********************************************************************************
Carbon Monoxide DBOC calculation                                                
C                                                                               
O 1 r                                                                           
                                                                                
r=1.6448275862068966                                                            
                                                                                
                                                                                
*CFOUR(CALC=CCSD,BASIS=AUG-PCVQZ,SCF_CONV=10                                    
CC_CONV=14,DBOC=ON,MEMORY=500000000                                             
ZFIELD=-200)                                                                    
                                                                                
%isotopes                                                                       
13                                                                              
16                                                                              
********************************************************************************
  @GTFLGS-I, Hessian will be transformed to curvilinear coordinates.
    -------------------------------------------------------------------
                    CFOUR Control Parameters 
    -------------------------------------------------------------------
        External           Internal           Value            Units
          Name               Name
    -------------------------------------------------------------------
       ABCDTYPE             IABCDT         STANDARD    [  0]    ***   
       ANHARMONIC           IANHAR         OFF         [  0]    ***   
       ANH_ALGORIT          IANALG         STANDARD    [  0]    ***   
       ANH_DERIVAT          IANDER         SECOND      [  1]    ***   
       ANH_MODE             ANHMOD         VIBRATION   [  0]    ***   
       ANH_STEPSIZ          ICUBST             50000          x 10-6  
       ANH_SYMMETR          IANHSM         ABELIAN     [  0]    ***   
       AO_LADDERS           IAOLAD         SINGLEPASS  [  1]    ***   
       AV_SCF               IAVSCF         OFF         [  0]    ***   
       BASIS                IBASIS         AUG-PCVQZ   [ 52]    ***   
       BOTHVECTORS          BOTHVC         OFF         [  0]    ***   
       BOX_POTENT           IPIAB          OFF         [  0]    ***   
       BREIT                IBREIT         OFF         [  0]    ***   
       BRUCK_CONV           IBRTOL          10D-  4             ***   
       BRUECKNER            IBRKNR         OFF         [  0]    ***   
       BUFFERSIZE           IBUFFS              4096            ***   
       CACHE_RECS           ICHREC             10               ***   
       CALCLEVEL            ICLLVL         CCSD        [ 10]    ***   
       CCORBOPT             ICCORB         OFF         [  0]  x 0.01  
       CC_CONV              ICCCNV          10D- 14             ***   
       CC_EXPORDER          ICCEOR              5               ***   
       CC_EXTRAPOL          ICCEXT         DIIS        [  1]    ***   
       CC_GUESS             ICCGES         MP2         [  0]    ***   
       CC_MAXCYC            ICCCYC            100              cycles 
       CC_PROGRAM           ICCPRO         VCC         [  0]    ***   
       CHARGE               ICHRGE              0               ***   
       CHOLESKY             ICHOLE         OFF         [  0]    ***   
       CIS_CONV             ICISTL              5               ***   
       COMM_SIZE            IPSIZE            ***               ***   
       CONSTANT             ICONST         OLD         [  1]    ***   
       CONTINUUM            ICONTU         NONE        [  0]    ***   
       CONTRACTION          ICNTYP         GENERAL     [  1]    ***   
       COORDINATES          ICOORD         INTERNAL    [  0]    ***   
       CPHF_CONVER          ICPHFT          10D- 16             ***   
       CPHF_MAXCYC          ICPHFC             64              cycles 
       CUBIC                ICUBIC         OFF         [  0]    ***   
       CURVILINEAR          ICURVY         ON          [  1]    ***   
       DBOC                 IDBOC          ON          [  1]    ***   
       DCT                  IDCT           OFF         [  0]    ***   
       DERIV_LEV            IDRLVL         SECOND      [  2]    ***   
       DEVMEM_SIZE          IDVMEM          50000000           MByte  
       DIAG_MRCC            IEOMST          10D-  0             ***   
       DIFF_TYPE            IDIFTY         RELAXED     [  0]    ***   
       DIRECT               IDIRCT         OFF         [  0]    ***   
       DROPMO               IDRPMO      NONE         
       ECP                  IECP           OFF         [  0]    ***   
       EIGENVECTOR          IVEC                1               ***   
       EL_ANHARM            IELANH         OFF         [  0]    ***   
       EOMFOLLOW            IEOMSR         ENERGY      [  0]    ***   
       EOMIP                IEOMIP         OFF         [  0]    ***   
       EOMLEVEL             HBARFM         SAME        [  0]    ***   
       EOM_MRCC             IMRCCE         NEW         [  1]    ***   
       EOM_NONIT            EOMNON         OFF         [  0]    ***   
       EOM_NSING            IEOMSI          10D-  0             ***   
       EOM_NSTATES          IMRCCD         DAVIDSON    [  0]    ***   
       EOM_NTRIP            IEOMTR          10D-  0             ***   
       EOM_ORDER            IEXORD         ENERGY      [  0]    ***   
       EOM_PROPSTA          IEOMST              0               ***   
       ESTATE_CONV          IEXTOL          10D-  5             ***   
       ESTATE_DIAG          IEXDIG         ITERATIVE   [  0]    ***   
       ESTATE_LOCK          IESLOC         ON          [  1]    ***   
       ESTATE_MAXC          IEXMXC             40               ***   
       ESTATE_PROP          IEXPRP         OFF         [  0]    ***   
       EVAL_HESS            IRECAL              0            # of cyc.
       EXCITATION           IEXCIT              0               ***   
       EXCITE               IEXCIT         NONE        [  0]    ***   
       EXTERN_POT           IEXPOT         OFF         [  0]    ***   
       FCGRADNEW            IFCGNW         OFF         [  0]    ***   
       FC_FIELD             IFINFC              0             x 10-6  
       FD_CALTYPE           IFDCAL         GRADONLY    [  0]    ***   
       FD_PROJECT           IFDPRJ         OFF         [  1]    ***   
       FD_STEPSIZE          IDISFD              0            10-4 bohr
       FD_USEGROUP          IFDGRP         FULL        [  0]    ***   
       FILE_RECSIZ          IFLREC              4096           words  
       FINITE_PERT          IFIPER              0             x 10-6  
       FIXGEOM              IFIXGM         OFF         [  0]    ***   
       FOCK                 IFOCK          AO          [  1]    ***   
       FREQ_ALGORI          IVIALG         STANDARD    [  0]    ***   
       FROZEN_CORE          IFROCO         OFF         [  0]    ***   
       GAMMA_ABCD           IGABCD         STORE       [  0]    ***   
       GAMMA_ABCI           IGABCI         STORE       [  0]    ***   
       GENBAS_1             IGNBS1              0               ***   
       GENBAS_2             IGNBS2              0               ***   
       GENBAS_3             IGNBS3              0               ***   
       GENBAS_4             IGNBS4              0               ***   
       GEO_CONV             ICONTL              5              H/bohr 
       GEO_MAXCYC           IOPTCY             50               ***   
       GEO_MAXSTEP          IMXSTP            300            millibohr
       GEO_METHOD           INR            SINGLE_POINT[  5]    ***   
       GIAO                 IGIAO          OFF         [  1]    ***   
       GIMIC                IGIMIC         OFF         [  0]    ***   
       GRID                 IGRID          OFF         [  0]    ***   
       GRID_ALGO            IGALGO         SERIAL      [  0]    ***   
       GUESS                IGUESS         MOREAD      [  0]    ***   
       HBAR                 IHBAR          OFF         [  0]    ***   
       HESS_TYPE            IHESTP         SCF         [  0]    ***   
       HF2_FILE             IHF2Fl         USE         [  1]    ***   
       HFSTABILITY          ISTABL         OFF         [  0]    ***   
       INCORE               INCORE         OFF         [  0]    ***   
       INPUT_MRCC           IMRCC          ON          [  1]    ***   
       INTEGRALS            INTTYP         VMOL        [  1]    ***   
       JODA_PRINT           IJPRNT              0               ***   
       KEYWORD_OUT          IDMPKW         NO          [  0]    ***   
       LINDEP_TOL           ILINDP              8               ***   
       LINEQ_CONV           IZTACN          10D-  7           cycles  
       LINEQ_EXPOR          ILMAXD              5               ***   
       LINEQ_MAXCY          ILMAXC            100               ***   
       LINEQ_TYPE           ILTYPE         DIIS        [  1]    ***   
       LOCK_ORBOCC          ILOCOC         OFF         [  0]    ***   
       MEMORY_SIZE          IMEMSZ         500000000           words  
       MEM_UNIT             IMEMU          INTEGERWORDS[  0]    ***   
       MRCC                 IMRCCC         OFF         [  0]    ***   
       MULTIPLICTY          IMULTP              1               ***   
       NACOUPLING           IVCOUP         OFF         [  0]    ***   
       NEGEVAL              IDIE           ABORT       [  0]    ***   
       NEWNORM              INEWNO         OFF         [  0]    ***   
       NON-HF               INONHF         OFF         [  0]    ***   
       NTOP_TAMP            ITOPT2             15               ***   
       NUC_MODEL            INUCMO         POINT       [  0]    ***   
       OCCUPATION           IOCCU   ESTIMATED BY SCF 
       OPEN-SHELL           IOPEN          SPIN-ORBITAL[  0]    ***   
       OPTVIB               IOPTVB         OFF         [  0]    ***   
       ORBITALS             IORBTP         STANDARD    [  0]    ***   
       PARALLEL             IPARAL         ON          [  1]    ***   
       PARA_INT             IPINTS         ON          [  1]    ***   
       PARA_PRINT           IPPRIN              0               ***   
       PERT_ORB             IPTORB         STANDARD    [  0]    ***   
       POINTS               IGRDFD              0               ***   
       PRINT                IPRNT               0               ***   
       PROPS                IPROPS         OFF         [  0]    ***   
       PROP_INTEGR          IINTYP         INTERNAL    [  0]    ***   
       PSI                  IPSI           OFF         [  0]    ***   
       QC_ALG               IQCALG         FLM         [  0]    ***   
       QC_LINALG            IQCLIN         TRIDIAG     [  2]    ***   
       QC_MAXCYC            IQCMAX          10D-100           cycles  
       QC_MAXSCFCY          IQCMSC          10D- 15           cycles  
       QC_RTRUST            IQCRTR          10D-  0           x 10-3  
       QC_SKIPSCF           IQCSKI         OFF         [  0]    ***   
       QC_START             IQCSTA          10D-  1             ***   
       QRHFGUESS            IQGUES         OFF         [  0]    ***   
       QUARTIC              IQUART         OFF         [  0]    ***   
       RAMAN_INT            IRAMIN         OFF         [  0]    ***   
       RAMAN_ORB            IRAMRE         UNRELAXED   [  0]    ***   
       RDO                  IRDOFM         ON          [  1]    ***   
       REDUCE_REPR          REDREP         Ir          [  0]    ***   
       REFERENCE            IREFNC         RHF         [  0]    ***   
       RELATIVIST           IRELAT         OFF         [  0]    ***   
       RELAX_DENS           IRDENS         ON          [  1]    ***   
       RESET_FLAGS          IRESET         OFF         [  0]    ***   
       RESTART_CC           ICCRES         OFF         [  0]    ***   
       ROT_EVEC             ROTVEC              0               ***   
       SAVE_INTS            ISVINT         OFF         [  0]    ***   
       SCALE_ON             ISTCRT              0               ***   
       SCF_CONV             ISCFCV          10D- 10             ***   
       SCF_DAMPING          IDAMP               0             x 10-3  
       SCF_EXPORDE          IRPPOR              6               ***   
       SCF_EXPSTAR          IRPPLS              8               ***   
       SCF_EXTRAPO          IRPP           ON          [  1]    ***   
       SCF_MAXCYC           ISCFCY            150              cycles 
       SCF_NOSTOP           ISCFST         OFF         [  0]    ***   
       SCF_PRINT            ISCFPR              0               ***   
       SCF_PROG             ISCFPR         SCF         [  0]    ***   
       SD_FIELD             IFINSD              0             x 10-6  
       SOPERT               IPERSO         OFF         [  0]    ***   
       SPHERICAL            IDFGHI         ON          [  1]    ***   
       SPINORBIT            ISOCAL         OFF         [  0]    ***   
       SPINROTATIO          ISRCON         OFF         [  0]    ***   
       SPIN_FLIP            ISPFLP         OFF         [  0]    ***   
       SPIN_ORBIT           ISPORB         OFF         [  0]    ***   
       SPIN_SCAL            ISCSMP         OFF         [  0]    ***   
       STEEPSCALE           ISTPSC              1000          x 10-3  
       SUBGROUP             ISUBGP         DEFAULT     [  0]    ***   
       SUBGRPAXIS           ISBXYZ         X           [  0]    ***   
       SYMMETRY             ISYM           ON          [  0]    ***   
       SYM_CHECK            ISYMCK         OVERRIDE    [  1]    ***   
       T3_EXTRAPOL          IT3EXT         OFF         [  0]    ***   
       T4_EXTRAPOL          IT4EXP         OFF         [  0]    ***   
       TAMP_SUM             IEVERY              5               ***   
       TESTSUITE            ITESTS         OFF         [  0]    ***   
       THERMOCH             ITHERM         OFF         [  0]    ***   
       TOL_CHOLESK          ITOLCH          10D-  4             ***   
       TRANGRAD             IRESRM         OFF         [  0]    ***   
       TRANS_INV            ITRAIN         IGNORE      [  1]    ***   
       TREAT_PERT           ITREAT         SIMULTANEOUS[  0]    ***   
       TRIP_ALGORI          ITRALG         NORMAL      [  0]    ***   
       UIJ_THRESHO          IUIJTH              1               ***   
       UNITS                IUNITS         ANGSTROM    [  0]    ***   
       UNOS                 IUNOS          OFF         [  0]    ***   
       UPDATE_HESS          IHUPDT         ON          [  1]    ***   
       VIBPHASE             ISETPH         STANDARD    [  0]    ***   
       VIBRATION            IVIB           ANALYTIC    [  1]    ***   
       VIB_ALGORIT          IGEALG         STANDARD    [  0]    ***   
       VNATORB              IVNORB         OFF         [  0]    ***   
       VTRAN                IVTRAN         FULL/PARTIAL[  0]    ***   
       XFIELD               IXEFLD              0             x 10-6  
       XFORM_TOL            IXFTOL          10D- 11             ***   
       YFIELD               IYEFLD              0             x 10-6  
       ZFIELD               IZEFLD            ***             x 10-6  
       ZSCALE_EXP           IZEXPS         OFF         [  0]    ***   
    -------------------------------------------------------------------
   2 entries found in Z-matrix 
   Job Title : Carbon Monoxide DBOC calculation                                                
   There are  1 unique internal coordinates.
   Of these,  0 will be optimized.
   User supplied Z-matrix: 
--------------------------------------------------------------------------------
       SYMBOL    BOND      LENGTH    ANGLE     ANGLE     DIHED     ANGLE
                  TO      (ANGST)    WRT      (DEG)      WRT      (DEG)
--------------------------------------------------------------------------------
        C    
        O          1         r    
                  *Initial values for internal coordinates* 
                      Name             Value
                        r               1.6448275862
--------------------------------------------------------------------------------
  read isotopes from ZMAT file 
   Rotational constants (in cm-1): 
          0.8687414314             0.8687414314
   Rotational constants (in MHz): 
      26044.2165573645         26044.2165573645
********************************************************************************
   The full molecular point group is CXv .
   The largest Abelian subgroup of the full molecular point group is C2v .
   The computational point group is C2v .
********************************************************************************
--------------------------------------------------------------------------------
   Analysis of internal coordinates specified by Z-matrix 
--------------------------------------------------------------------------------
   *The nuclear repulsion energy is   15.442652477987419 a.u.
   *There is   1 degree of freedom within the tot. symm. molecular subspace.
   *Z-matrix requests optimization of   0 coordinates.
   *The optimization is constrained.
   *The following   1 parameters can have non-zero 
    derivatives within the totally symmetric subspace:
             r    [ 1]
   *The following   0 parameters are to be optimized:

   *The following coordinates must be varied in an  unconstrained optimization.
             r    [ 1]
--------------------------------------------------------------------------------


 ----------------------------------------------------------------
         Coordinates used in calculation (QCOMP) 
 ----------------------------------------------------------------
 Z-matrix   Atomic            Coordinates (in bohr)
  Symbol    Number           X              Y              Z
 ----------------------------------------------------------------
     C         6        -0.00000000     0.00000000     1.71446721
     O         8         0.00000000     0.00000000    -1.39380710
 ----------------------------------------------------------------
 
   Interatomic distance matrix (Angstroms) 
 
                 C             O    
                [ 1]        [ 2]
  C    [ 1]     0.00000
  O    [ 2]     1.64483     0.00000
 rotcon2
   Rotational constants (in cm-1): 
          0.8687414314             0.0000000000
   Rotational constants (in MHz): 
      26044.2165573645             0.0000000000
  ECPDATA file not present.   Using default ECPDATA. 
  @GTFLGS-I, Hessian will be transformed to curvilinear coordinates.
  There are  218 basis functions.
 @CHECKOUT-I, Total execution time (CPU/WALL):        0.14/       0.20 seconds.
--executable xjoda finished with status     0 in        0.23 seconds (walltime).
 --invoking executable--
/nfs/workspaces/public/cfour_mpi/bin/xvmol
 SERIAL VERSION OF MOLECULE STARTED
********************************************************************************
                    INPUT FROM MOL FILE
********************************************************************************
INTGRL        1    0    1    0    0    0    0    0    0                         
         *** CFOUR Program System (Release V0.1) ***                            
Carbon Monoxide DBOC calculation                                                
    2    2 X  Y       0.10E-08              0    0                              
   9999.00      3.00                                                            
          6.00000000    1    5    1    1    1    1    1                         
C #1  -0.000000000000000   0.000000000000000   1.714467214527945                
   16    9                                                                      
   33980.0000000000       9.100000000000000E-005 -1.900000000000000E-005        
  0.000000000000000E+000  0.000000000000000E+000  0.000000000000000E+000        
  0.000000000000000E+000  0.000000000000000E+000  0.000000000000000E+000        
  0.000000000000000E+000                                                        
   5089.00000000000       7.040000000000000E-004 -1.510000000000000E-004        
  0.000000000000000E+000  0.000000000000000E+000  0.000000000000000E+000        
  0.000000000000000E+000  0.000000000000000E+000  0.000000000000000E+000        
  0.000000000000000E+000                                                        
   1157.00000000000       3.693000000000000E-003 -7.850000000000000E-004        
  0.000000000000000E+000  0.000000000000000E+000  0.000000000000000E+000        
  0.000000000000000E+000  0.000000000000000E+000  0.000000000000000E+000        
  0.000000000000000E+000                                                        
   326.600000000000       1.536000000000000E-002 -3.324000000000000E-003        
  0.000000000000000E+000  0.000000000000000E+000  0.000000000000000E+000        
  0.000000000000000E+000  0.000000000000000E+000  0.000000000000000E+000        
  0.000000000000000E+000                                                        
   106.100000000000       5.292900000000000E-002 -1.151200000000000E-002        
  0.000000000000000E+000  0.000000000000000E+000  0.000000000000000E+000        
  0.000000000000000E+000  0.000000000000000E+000  0.000000000000000E+000        
  0.000000000000000E+000                                                        
   38.1100000000000       0.147043000000000      -3.416000000000000E-002        
  0.000000000000000E+000  0.000000000000000E+000  0.000000000000000E+000        
  0.000000000000000E+000  0.000000000000000E+000  0.000000000000000E+000        
  0.000000000000000E+000                                                        
   14.7500000000000       0.305631000000000      -7.717300000000001E-002        
  0.000000000000000E+000  0.000000000000000E+000  0.000000000000000E+000        
  0.000000000000000E+000  0.000000000000000E+000  0.000000000000000E+000        
  0.000000000000000E+000                                                        
   6.03500000000000       0.399345000000000      -0.141493000000000             
  0.000000000000000E+000  0.000000000000000E+000  0.000000000000000E+000        
  0.000000000000000E+000  0.000000000000000E+000  0.000000000000000E+000        
  0.000000000000000E+000                                                        
   2.53000000000000       0.217051000000000      -0.118019000000000             
  0.000000000000000E+000  0.000000000000000E+000  0.000000000000000E+000        
  0.000000000000000E+000  0.000000000000000E+000  0.000000000000000E+000        
  0.000000000000000E+000                                                        
  0.735500000000000       1.589400000000000E-002  0.273806000000000             
   1.00000000000000       0.000000000000000E+000  0.000000000000000E+000        
  0.000000000000000E+000  0.000000000000000E+000  0.000000000000000E+000        
  0.000000000000000E+000                                                        
  0.290500000000000      -3.084000000000000E-003  0.586510000000000             
  0.000000000000000E+000   1.00000000000000       0.000000000000000E+000        
  0.000000000000000E+000  0.000000000000000E+000  0.000000000000000E+000        
  0.000000000000000E+000                                                        
  0.111100000000000       9.779999999999999E-004  0.285430000000000             
  0.000000000000000E+000  0.000000000000000E+000   1.00000000000000             
  0.000000000000000E+000  0.000000000000000E+000  0.000000000000000E+000        
  0.000000000000000E+000                                                        
   7.21600000000000       0.000000000000000E+000  0.000000000000000E+000        
  0.000000000000000E+000  0.000000000000000E+000  0.000000000000000E+000        
   1.00000000000000       0.000000000000000E+000  0.000000000000000E+000        
  0.000000000000000E+000                                                        
   19.5700000000000       0.000000000000000E+000  0.000000000000000E+000        
  0.000000000000000E+000  0.000000000000000E+000  0.000000000000000E+000        
  0.000000000000000E+000   1.00000000000000       0.000000000000000E+000        
  0.000000000000000E+000                                                        
   53.0730000000000       0.000000000000000E+000  0.000000000000000E+000        
  0.000000000000000E+000  0.000000000000000E+000  0.000000000000000E+000        
  0.000000000000000E+000  0.000000000000000E+000   1.00000000000000             
  0.000000000000000E+000                                                        
  4.145000000000000E-002  0.000000000000000E+000  0.000000000000000E+000        
  0.000000000000000E+000  0.000000000000000E+000  0.000000000000000E+000        
  0.000000000000000E+000  0.000000000000000E+000  0.000000000000000E+000        
   1.00000000000000                                                             
   10    8                                                                      
   34.5100000000000       5.378000000000000E-003  0.000000000000000E+000        
  0.000000000000000E+000  0.000000000000000E+000  0.000000000000000E+000        
  0.000000000000000E+000  0.000000000000000E+000  0.000000000000000E+000        
   7.91500000000000       3.613200000000000E-002  0.000000000000000E+000        
  0.000000000000000E+000  0.000000000000000E+000  0.000000000000000E+000        
  0.000000000000000E+000  0.000000000000000E+000  0.000000000000000E+000        
   2.36800000000000       0.142493000000000       0.000000000000000E+000        
  0.000000000000000E+000  0.000000000000000E+000  0.000000000000000E+000        
  0.000000000000000E+000  0.000000000000000E+000  0.000000000000000E+000        
  0.813200000000000       0.342150000000000        1.00000000000000             
  0.000000000000000E+000  0.000000000000000E+000  0.000000000000000E+000        
  0.000000000000000E+000  0.000000000000000E+000  0.000000000000000E+000        
  0.289000000000000       0.463864000000000       0.000000000000000E+000        
   1.00000000000000       0.000000000000000E+000  0.000000000000000E+000        
  0.000000000000000E+000  0.000000000000000E+000  0.000000000000000E+000        
  0.100700000000000       0.250028000000000       0.000000000000000E+000        
  0.000000000000000E+000   1.00000000000000       0.000000000000000E+000        
  0.000000000000000E+000  0.000000000000000E+000  0.000000000000000E+000        
   8.18200000000000       0.000000000000000E+000  0.000000000000000E+000        
  0.000000000000000E+000  0.000000000000000E+000   1.00000000000000             
  0.000000000000000E+000  0.000000000000000E+000  0.000000000000000E+000        
   24.1860000000000       0.000000000000000E+000  0.000000000000000E+000        
  0.000000000000000E+000  0.000000000000000E+000  0.000000000000000E+000        
   1.00000000000000       0.000000000000000E+000  0.000000000000000E+000        
   71.4940000000000       0.000000000000000E+000  0.000000000000000E+000        
  0.000000000000000E+000  0.000000000000000E+000  0.000000000000000E+000        
  0.000000000000000E+000   1.00000000000000       0.000000000000000E+000        
  3.218000000000000E-002  0.000000000000000E+000  0.000000000000000E+000        
  0.000000000000000E+000  0.000000000000000E+000  0.000000000000000E+000        
  0.000000000000000E+000  0.000000000000000E+000   1.00000000000000             
    6    6                                                                      
   1.84800000000000        1.00000000000000       0.000000000000000E+000        
  0.000000000000000E+000  0.000000000000000E+000  0.000000000000000E+000        
  0.000000000000000E+000                                                        
  0.649000000000000       0.000000000000000E+000   1.00000000000000             
  0.000000000000000E+000  0.000000000000000E+000  0.000000000000000E+000        
  0.000000000000000E+000                                                        
  0.228000000000000       0.000000000000000E+000  0.000000000000000E+000        
   1.00000000000000       0.000000000000000E+000  0.000000000000000E+000        
  0.000000000000000E+000                                                        
   8.65600000000000       0.000000000000000E+000  0.000000000000000E+000        
  0.000000000000000E+000   1.00000000000000       0.000000000000000E+000        
  0.000000000000000E+000                                                        
   33.2130000000000       0.000000000000000E+000  0.000000000000000E+000        
  0.000000000000000E+000  0.000000000000000E+000   1.00000000000000             
  0.000000000000000E+000                                                        
  7.660000000000000E-002  0.000000000000000E+000  0.000000000000000E+000        
  0.000000000000000E+000  0.000000000000000E+000  0.000000000000000E+000        
   1.00000000000000                                                             
    4    4                                                                      
   1.41900000000000        1.00000000000000       0.000000000000000E+000        
  0.000000000000000E+000  0.000000000000000E+000                                
  0.485000000000000       0.000000000000000E+000   1.00000000000000             
  0.000000000000000E+000  0.000000000000000E+000                                
   24.6940000000000       0.000000000000000E+000  0.000000000000000E+000        
   1.00000000000000       0.000000000000000E+000                                
  0.187000000000000       0.000000000000000E+000  0.000000000000000E+000        
  0.000000000000000E+000   1.00000000000000                                     
    2    2                                                                      
   1.01100000000000        1.00000000000000       0.000000000000000E+000        
  0.424000000000000       0.000000000000000E+000   1.00000000000000             
          8.00000000    1    5    1    1    1    1    1                         
O #2   0.000000000000000   0.000000000000000  -1.393807097052992                
   16    9                                                                      
   61420.0000000000       9.000000000000001E-005 -2.000000000000000E-005        
  0.000000000000000E+000  0.000000000000000E+000  0.000000000000000E+000        
  0.000000000000000E+000  0.000000000000000E+000  0.000000000000000E+000        
  0.000000000000000E+000                                                        
   9199.00000000000       6.980000000000001E-004 -1.590000000000000E-004        
  0.000000000000000E+000  0.000000000000000E+000  0.000000000000000E+000        
  0.000000000000000E+000  0.000000000000000E+000  0.000000000000000E+000        
  0.000000000000000E+000                                                        
   2091.00000000000       3.664000000000000E-003 -8.290000000000000E-004        
  0.000000000000000E+000  0.000000000000000E+000  0.000000000000000E+000        
  0.000000000000000E+000  0.000000000000000E+000  0.000000000000000E+000        
  0.000000000000000E+000                                                        
   590.900000000000       1.521800000000000E-002 -3.508000000000000E-003        
  0.000000000000000E+000  0.000000000000000E+000  0.000000000000000E+000        
  0.000000000000000E+000  0.000000000000000E+000  0.000000000000000E+000        
  0.000000000000000E+000                                                        
   192.300000000000       5.242300000000000E-002 -1.215600000000000E-002        
  0.000000000000000E+000  0.000000000000000E+000  0.000000000000000E+000        
  0.000000000000000E+000  0.000000000000000E+000  0.000000000000000E+000        
  0.000000000000000E+000                                                        
   69.3200000000000       0.145921000000000      -3.626100000000000E-002        
  0.000000000000000E+000  0.000000000000000E+000  0.000000000000000E+000        
  0.000000000000000E+000  0.000000000000000E+000  0.000000000000000E+000        
  0.000000000000000E+000                                                        
   26.9700000000000       0.305258000000000      -8.299200000000000E-002        
  0.000000000000000E+000  0.000000000000000E+000  0.000000000000000E+000        
  0.000000000000000E+000  0.000000000000000E+000  0.000000000000000E+000        
  0.000000000000000E+000                                                        
   11.1000000000000       0.398508000000000      -0.152090000000000             
  0.000000000000000E+000  0.000000000000000E+000  0.000000000000000E+000        
  0.000000000000000E+000  0.000000000000000E+000  0.000000000000000E+000        
  0.000000000000000E+000                                                        
   4.68200000000000       0.216980000000000      -0.115331000000000             
  0.000000000000000E+000  0.000000000000000E+000  0.000000000000000E+000        
  0.000000000000000E+000  0.000000000000000E+000  0.000000000000000E+000        
  0.000000000000000E+000                                                        
   1.42800000000000       1.759400000000000E-002  0.288979000000000             
   1.00000000000000       0.000000000000000E+000  0.000000000000000E+000        
  0.000000000000000E+000  0.000000000000000E+000  0.000000000000000E+000        
  0.000000000000000E+000                                                        
  0.554700000000000      -2.502000000000000E-003  0.586128000000000             
  0.000000000000000E+000   1.00000000000000       0.000000000000000E+000        
  0.000000000000000E+000  0.000000000000000E+000  0.000000000000000E+000        
  0.000000000000000E+000                                                        
  0.206700000000000       9.540000000000000E-004  0.277624000000000             
  0.000000000000000E+000  0.000000000000000E+000   1.00000000000000             
  0.000000000000000E+000  0.000000000000000E+000  0.000000000000000E+000        
  0.000000000000000E+000                                                        
   12.9740000000000       0.000000000000000E+000  0.000000000000000E+000        
  0.000000000000000E+000  0.000000000000000E+000  0.000000000000000E+000        
   1.00000000000000       0.000000000000000E+000  0.000000000000000E+000        
  0.000000000000000E+000                                                        
   34.9000000000000       0.000000000000000E+000  0.000000000000000E+000        
  0.000000000000000E+000  0.000000000000000E+000  0.000000000000000E+000        
  0.000000000000000E+000   1.00000000000000       0.000000000000000E+000        
  0.000000000000000E+000                                                        
   93.8810000000000       0.000000000000000E+000  0.000000000000000E+000        
  0.000000000000000E+000  0.000000000000000E+000  0.000000000000000E+000        
  0.000000000000000E+000  0.000000000000000E+000   1.00000000000000             
  0.000000000000000E+000                                                        
  6.959000000000000E-002  0.000000000000000E+000  0.000000000000000E+000        
  0.000000000000000E+000  0.000000000000000E+000  0.000000000000000E+000        
  0.000000000000000E+000  0.000000000000000E+000  0.000000000000000E+000        
   1.00000000000000                                                             
   10    8                                                                      
   63.4200000000000       6.044000000000000E-003  0.000000000000000E+000        
  0.000000000000000E+000  0.000000000000000E+000  0.000000000000000E+000        
  0.000000000000000E+000  0.000000000000000E+000  0.000000000000000E+000        
   14.6600000000000       4.179900000000000E-002  0.000000000000000E+000        
  0.000000000000000E+000  0.000000000000000E+000  0.000000000000000E+000        
  0.000000000000000E+000  0.000000000000000E+000  0.000000000000000E+000        
   4.45900000000000       0.161143000000000       0.000000000000000E+000        
  0.000000000000000E+000  0.000000000000000E+000  0.000000000000000E+000        
  0.000000000000000E+000  0.000000000000000E+000  0.000000000000000E+000        
   1.53100000000000       0.356731000000000        1.00000000000000             
  0.000000000000000E+000  0.000000000000000E+000  0.000000000000000E+000        
  0.000000000000000E+000  0.000000000000000E+000  0.000000000000000E+000        
  0.530200000000000       0.448309000000000       0.000000000000000E+000        
   1.00000000000000       0.000000000000000E+000  0.000000000000000E+000        
  0.000000000000000E+000  0.000000000000000E+000  0.000000000000000E+000        
  0.175000000000000       0.244940000000000       0.000000000000000E+000        
  0.000000000000000E+000   1.00000000000000       0.000000000000000E+000        
  0.000000000000000E+000  0.000000000000000E+000  0.000000000000000E+000        
   14.4750000000000       0.000000000000000E+000  0.000000000000000E+000        
  0.000000000000000E+000  0.000000000000000E+000   1.00000000000000             
  0.000000000000000E+000  0.000000000000000E+000  0.000000000000000E+000        
   42.7300000000000       0.000000000000000E+000  0.000000000000000E+000        
  0.000000000000000E+000  0.000000000000000E+000  0.000000000000000E+000        
   1.00000000000000       0.000000000000000E+000  0.000000000000000E+000        
   126.140000000000       0.000000000000000E+000  0.000000000000000E+000        
  0.000000000000000E+000  0.000000000000000E+000  0.000000000000000E+000        
  0.000000000000000E+000   1.00000000000000       0.000000000000000E+000        
  5.348000000000000E-002  0.000000000000000E+000  0.000000000000000E+000        
  0.000000000000000E+000  0.000000000000000E+000  0.000000000000000E+000        
  0.000000000000000E+000  0.000000000000000E+000   1.00000000000000             
    6    6                                                                      
   3.77500000000000        1.00000000000000       0.000000000000000E+000        
  0.000000000000000E+000  0.000000000000000E+000  0.000000000000000E+000        
  0.000000000000000E+000                                                        
   1.30000000000000       0.000000000000000E+000   1.00000000000000             
  0.000000000000000E+000  0.000000000000000E+000  0.000000000000000E+000        
  0.000000000000000E+000                                                        
  0.444000000000000       0.000000000000000E+000  0.000000000000000E+000        
   1.00000000000000       0.000000000000000E+000  0.000000000000000E+000        
  0.000000000000000E+000                                                        
   14.9270000000000       0.000000000000000E+000  0.000000000000000E+000        
  0.000000000000000E+000   1.00000000000000       0.000000000000000E+000        
  0.000000000000000E+000                                                        
   57.5440000000000       0.000000000000000E+000  0.000000000000000E+000        
  0.000000000000000E+000  0.000000000000000E+000   1.00000000000000             
  0.000000000000000E+000                                                        
  0.154000000000000       0.000000000000000E+000  0.000000000000000E+000        
  0.000000000000000E+000  0.000000000000000E+000  0.000000000000000E+000        
   1.00000000000000                                                             
    4    4                                                                      
   2.66600000000000        1.00000000000000       0.000000000000000E+000        
  0.000000000000000E+000  0.000000000000000E+000                                
  0.859000000000000       0.000000000000000E+000   1.00000000000000             
  0.000000000000000E+000  0.000000000000000E+000                                
   26.4830000000000       0.000000000000000E+000  0.000000000000000E+000        
   1.00000000000000       0.000000000000000E+000                                
  0.324000000000000       0.000000000000000E+000  0.000000000000000E+000        
  0.000000000000000E+000   1.00000000000000                                     
    2    2                                                                      
   1.84600000000000        1.00000000000000       0.000000000000000E+000        
  0.714000000000000       0.000000000000000E+000   1.00000000000000             
FINISH                                                                          
 
********************************************************************************
 ONE- AND TWO-ELECTRON INTEGRALS OVER SYMMETRY-ADAPTED AOS ARE CALCULATED.

  SPHERICAL HARMONICS ARE USED.
  
  INTEGRALS LESS THAN  0.10E-13 ARE NEGLECTED.

  NUCLEAR REPULSION ENERGY :   15.4426524780 A.U.
  @MOLECU-I, ONE ELECTRON INTEGRALS (CPU/WALL):        0.07/       0.08 SECONDS.
  @TWOEL-I,    4413362 INTEGRALS OF SYMMETRY TYPE  I I I I
  @TWOEL-I,   19047775 INTEGRALS OF SYMMETRY TYPE  I J I J
  @TWOEL-I,   10029591 INTEGRALS OF SYMMETRY TYPE  I I J J
  @TWOEL-I,   14073034 INTEGRALS OF SYMMETRY TYPE  I J K L
  @TWOEL-I, TOTAL NUMBER OF 2-E INTEGRALS   47563762.
  @MOLECU-I, TWO ELECTRON INTEGRALS (CPU/WALL):      244.66/      33.37 SECONDS.
 @CHECKOUT-I, Total execution time (CPU/WALL):      244.74/      33.48 seconds.

Running with 14 threads/proc

--executable xvmol finished with status     0 in       33.53 seconds (walltime).
 --invoking executable--
/nfs/workspaces/public/cfour_mpi/bin/xvmol2ja
 @GETMEM-I,  Allocated    3814 MB of main memory.
 @CHECKOUT-I, Total execution time (CPU/WALL):        0.16/       0.08 seconds.
--executable xvmol2ja finished with status     0 in        0.14 seconds (walltime).
 --invoking executable--
/nfs/workspaces/public/cfour_mpi/bin/xvprop
 @GETMEM-I,  Allocated    3814 MB of main memory.
   Property integrals will be calculated.
    --------------------------------------------------------------
                                   Property evaluated at 
    Property type                X             Y             Z
    --------------------------------------------------------------
    Dipole moment               ----          ----          ----  
    Quadrupole moment           ----          ----          ----  
    Octopole moment             ----          ----          ----  
    Relativisitic corr.         ----          ----          ----  
    Second moment            0.0000000     0.0000000     0.0000000
    Electron density         0.0000000     0.0000000     1.7144672
    Electron density         0.0000000     0.0000000    -1.3938071
    Field gradient           0.0000000     0.0000000     1.7144672
    Field gradient           0.0000000     0.0000000    -1.3938071
    Potential                0.0000000     0.0000000     1.7144672
    Potential                0.0000000     0.0000000    -1.3938071
    --------------------------------------------------------------
 @CHECKOUT-I, Total execution time (CPU/WALL):        1.31/       1.34 seconds.
--executable xvprop finished with status     0 in        1.37 seconds (walltime).
 --invoking executable--
/nfs/workspaces/public/cfour_mpi/bin/xvscf
  There are  218 functions in the AO basis.

  There are 4 irreducible representations.

       Irrep        # of functions
         1                 86
         2                 52
         3                 52
         4                 28


  Parameters for SCF calculation: 
        SCF reference function:  RHF  
  Maximum number of iterations:  150
     Full symmetry point group: CXv 
     Computational point group: C2v 
        Initial density matrix: MOREAD                 
     SCF convergence tolerance: 10**(-10)
  DIIS convergence acceleration:  ON
          Latest start for DIIS:   8
                     DIIS order:   6

  Memory information:    2523578 words required.
  Fock matrices are constructed from AO integral file.
 @GETMEM-I,  Allocated      19 MB of main memory.
  Initialization and symmetry analysis required      0.001 seconds.

  Adding electric field perturbation to one-electron Hamiltonian.
  Field direction     : Z
  Field strength      : -0.0002000 a.u.

  @INITGES-I, Occupancies from core Hamiltonian:

          Alpha population by irrep:   5    1    1    0
           Beta population by irrep:   5    1    1    0


 total no. of electrons in initial guess :  0.000000000000000E+000
  --------------------------------------------------------------------
  Iteration         Total Energy            Largest Density Difference
  --------------------------------------------------------------------
       0            15.442479747290006              0.0000000000D+00
   current occupation vector 
     5  1  1  0
     5  1  1  0
       1           -93.647346327052972              0.1755556276D+02
   current occupation vector 
     5  1  1  0
     5  1  1  0
       2           -97.895156452260025              0.1755555108D+02
   current occupation vector 
     5  1  1  0
     5  1  1  0
       3          -100.167755825869889              0.6816551432D+01
   current occupation vector 
     5  1  1  0
     5  1  1  0
       4           -94.937072086378521              0.6813375351D+01
   current occupation vector 
     5  1  1  0
     5  1  1  0
       5          -100.121443500024753              0.7010490176D+01
   current occupation vector 
     5  1  1  0
     5  1  1  0
       6           -94.782538498241337              0.7010768107D+01
   current occupation vector 
     5  1  1  0
     5  1  1  0
       7          -100.114986545735078              0.7020592270D+01
   current occupation vector 
     5  1  1  0
     5  1  1  0
       8           -94.778057085072547              0.7020607659D+01
   current occupation vector 
     5  1  1  0
     5  1  1  0
       9          -107.359635613186015              0.5944154090D+01
   current occupation vector 
     5  1  1  0
     5  1  1  0
      10          -110.612024070719769              0.1323196032D+01
   current occupation vector 
     5  1  1  0
     5  1  1  0
      11          -112.360152760897307              0.1028323279D+01
   current occupation vector 
     5  1  1  0
     5  1  1  0
      12          -112.478103520241632              0.5084685309D+00
   current occupation vector 
     5  1  1  0
     5  1  1  0
      13          -112.500181885297394              0.1279100344D+00
   current occupation vector 
     5  1  1  0
     5  1  1  0
      14          -112.506807843235151              0.9040357464D-01
   current occupation vector 
     5  1  1  0
     5  1  1  0
      15          -112.507335068409546              0.2801580772D-01
   current occupation vector 
     5  1  1  0
     5  1  1  0
      16          -112.507836155178623              0.4324828743D-01
   current occupation vector 
     5  1  1  0
     5  1  1  0
      17          -112.508047414705644              0.3204522131D-01
   current occupation vector 
     5  1  1  0
     5  1  1  0
      18          -112.508093286002691              0.1960860112D-01
   current occupation vector 
     5  1  1  0
     5  1  1  0
      19          -112.508093704148507              0.1661684240D-02
   current occupation vector 
     5  1  1  0
     5  1  1  0
      20          -112.508093708028781              0.1427294680D-03
   current occupation vector 
     5  1  1  0
     5  1  1  0
      21          -112.508093708211348              0.1768172467D-04
   current occupation vector 
     5  1  1  0
     5  1  1  0
      22          -112.508093708211831              0.3447654961D-05
   current occupation vector 
     5  1  1  0
     5  1  1  0
      23          -112.508093708211987              0.9512356094D-06
   current occupation vector 
     5  1  1  0
     5  1  1  0
      24          -112.508093708212570              0.1091811345D-06
   current occupation vector 
     5  1  1  0
     5  1  1  0
      25          -112.508093708211717              0.3388733161D-07
   current occupation vector 
     5  1  1  0
     5  1  1  0
      26          -112.508093708212016              0.3430607354D-08
   current occupation vector 
     5  1  1  0
     5  1  1  0
      27          -112.508093708212556              0.6603684710D-08
   current occupation vector 
     5  1  1  0
     5  1  1  0
      28          -112.508093708212201              0.6725611401D-08
   current occupation vector 
     5  1  1  0
     5  1  1  0
      29          -112.508093708212428              0.1029307972D-08
   current occupation vector 
     5  1  1  0
     5  1  1  0
      30          -112.508093708211490              0.1196030053D-08
   current occupation vector 
     5  1  1  0
     5  1  1  0
      31          -112.508093708211760              0.9840493975D-09
   current occupation vector 
     5  1  1  0
     5  1  1  0

  SCF has converged.

 Density matrix saved to file den.dat
 total electron number:   14.0000000000001     
     E(SCF)=      -112.508093708212328              0.5811573445D-10

  Eigenvector printing suppressed.

 @PUTMOS-I, Writing converged MOs to NEWMOS. 
 @PUTMOS-I, Symmetry   1 Full Blocks 21 Partial Blocksize   2
 @PUTMOS-I, Symmetry   2 Full Blocks 13 Partial Blocksize   0
 @PUTMOS-I, Symmetry   3 Full Blocks 13 Partial Blocksize   0
 @PUTMOS-I, Symmetry   4 Full Blocks  7 Partial Blocksize   0
 @PUTFOCK-I, Writing converged Fock matrix to NEWFOCK. 
 @PUTFOCK-I, Symmetry   1 Full Blocks 21 Partial Blocksize   2
 @PUTFOCK-I, Symmetry   2 Full Blocks 13 Partial Blocksize   0
 @PUTFOCK-I, Symmetry   3 Full Blocks 13 Partial Blocksize   0
 @PUTFOCK-I, Symmetry   4 Full Blocks  7 Partial Blocksize   0


 
  ORBITAL EIGENVALUES (ALPHA)  (1H = 27.2113834 eV)

       MO #        E(hartree)               E(eV)           FULLSYM    COMPSYM
       ----   --------------------   --------------------   -------   ---------
    1     1         -20.6404502144        -561.6552043335     SG+        A1 (1)
    2     2         -11.5297402473        -313.7401823720     SG+        A1 (1)
    3     3          -1.2619819658         -34.3402751160     SG+        A1 (1)
    4     4          -0.8085525570         -22.0018336267     SG+        A1 (1)
    5     5          -0.5204055491         -14.1609549198     SG+        A1 (1)
    6    87          -0.4900751565         -13.3356229782      PI        B1 (2)
    7   139          -0.4900751565         -13.3356229782      PI        B2 (3)
  +++++++++++++++++++++++++++++++++++++++++++++++++++++++++++++++++++++++++++++
    8   140          -0.0143174697          -0.3895981578      PI        B2 (3)
    9    88          -0.0143174697          -0.3895981578      PI        B1 (2)
   10     6           0.0577101078           1.5703718703     SG+        A1 (1)
   11     7           0.0692998096           1.8857436881     SG+        A1 (1)
   12    89           0.0807479300           2.1972628817      PI        B1 (2)
   13   141           0.0807479300           2.1972628817      PI        B2 (3)
   14     8           0.1571058268           4.2750668861     SG+        A1 (1)
   15    90           0.1815988367           4.9415555711      PI        B1 (2)
   16   142           0.1815988367           4.9415555711      PI        B2 (3)
   17     9           0.1861239950           5.0646913882     SG+        A1 (1)
   18    10           0.2207334512           6.0064625688      DE        A1 (1)
   19   191           0.2207334512           6.0064625688      DE        A2 (4)
   20   143           0.2824425016           7.6856512001      PI        B2 (3)
   21    91           0.2824425016           7.6856512001      PI        B1 (2)
   22    11           0.2985534799           8.1240532056     SG+        A1 (1)
   23    12           0.3047986670           8.2939933885     SG+        A1 (1)
   24    92           0.4064363769          11.0596960784      PI        B1 (2)
   25   144           0.4064363769          11.0596960784      PI        B2 (3)
   26    13           0.4139919605          11.2652939604     SG+        A1 (1)
   27    14           0.5144862823          13.9998834823     SG+        A1 (1)
   28   192           0.5505410891          14.9809846519      DE        A2 (4)
   29    15           0.5505410891          14.9809846519      DE        A1 (1)
   30    93           0.6235194345          16.9668263906      PI        B1 (2)
   31   145           0.6235194345          16.9668263906      PI        B2 (3)
   32    16           0.7015617524          19.0904658225     SG+        A1 (1)
   33   146           0.7288386925          19.8327090981      PH        B2 (3)
   34    94           0.7288386925          19.8327090981      PH        B1 (2)
   35    17           0.7352594077          20.0074256415      DE        A1 (1)
   36   193           0.7352594077          20.0074256415      DE        A2 (4)
   37   147           0.7725530912          21.0222383627      PI        B2 (3)
   38    95           0.7725530912          21.0222383627      PI        B1 (2)
   39    18           0.8143574184          22.1597919357     SG+        A1 (1)
   40    19           0.8546734727          23.2568475466      DE        A1 (1)
   41   194           0.8546734727          23.2568475466      DE        A2 (4)
   42    96           0.8767360583          23.8572010240      PI        B1 (2)
   43   148           0.8767360583          23.8572010240      PI        B2 (3)
   44    20           0.8930436932          24.3009543275     SG+        A1 (1)
   45    97           1.0455382369          28.4505418247      PI        B1 (2)
   46   149           1.0455382369          28.4505418247      PI        B2 (3)
   47    21           1.1385964551          30.9827846765     SG+        A1 (1)
   48    22           1.3478517349          36.6769103253     SG+        A1 (1)
   49    98           1.4198668316          38.6365407303      PH        B1 (2)
   50   150           1.4198668316          38.6365407303      PH        B2 (3)
   51    99           1.4730775257          40.0844773300      PI        B1 (2)
   52   151           1.4730775257          40.0844773300      PI        B2 (3)
   53    23           1.5833049103          43.0839169534     SG+        A1 (1)
   54    24           1.5874757862          43.1974122563      DE        A1 (1)
   55   195           1.5874757862          43.1974122563      DE        A2 (4)
   56   100           1.6398330793          44.6221266328      PI        B1 (2)
   57   152           1.6398330793          44.6221266328      PI        B2 (3)
   58    25           1.6687767961          45.4097252082      DE        A1 (1)
   59   196           1.6687767961          45.4097252082      DE        A2 (4)
   60    26           1.9195436760          52.2334389198     SG+        A1 (1)
   61    27           1.9247714154          52.3756929413     SG+        A1 (1)
   62   101           2.0531792893          55.8698488287      PI        B1 (2)
   63   153           2.0531792893          55.8698488287      PI        B2 (3)
   64   197           2.0628881612          56.1340406659      PI        A2 (4)
   65    28           2.0628881612          56.1340406659      PI        A1 (1)
   66    29           2.1201584035          57.6924431855      DE        A1 (1)
   67   198           2.1201584035          57.6924431855      DE        A2 (4)
   68   154           2.1886066608          59.5550149576      PH        B2 (3)
   69   102           2.1886066608          59.5550149576      PH        B1 (2)
   70   155           2.2033887850          59.9572570090      PH        B2 (3)
   71   103           2.2033887850          59.9572570090      PH        B1 (2)
   72   104           2.2130801672          60.2209729248      PI        B1 (2)
   73   156           2.2130801672          60.2209729248      PI        B2 (3)
   74    30           2.2162816039          60.3080884461     SG+        A1 (1)
   75    31           2.2761569676          61.9373799234      DE        A1 (1)
   76   199           2.2761569676          61.9373799234      DE        A2 (4)
   77    32           2.3766129217          64.6709254050     SG+        A1 (1)
   78   105           2.4926030878          67.8271782854      PI        B1 (2)
   79   157           2.4926030878          67.8271782854      PI        B2 (3)
   80    33           2.6030991837          70.8339299148      DE        A1 (1)
   81   200           2.6030991837          70.8339299148      DE        A2 (4)
   82   106           2.6082141059          70.9731140251      PI        B1 (2)
   83   158           2.6082141059          70.9731140251      PI        B2 (3)
   84    34           2.6525633988          72.1799196379     SG+        A1 (1)
   85    35           2.8559678440          77.7148359823     SG+        A1 (1)
   86   159           3.3348565714          90.7460607495      PI        B2 (3)
   87   107           3.3348565714          90.7460607495      PI        B1 (2)
   88    36           3.7137536655         101.0563748441      PI        A1 (1)
   89   201           3.7137536655         101.0563748441      PI        A2 (4)
   90    37           3.8671093966         105.2293964410     SG+        A1 (1)
   91   108           3.8909800646         105.8789503384      PH        B1 (2)
   92   160           3.8909800646         105.8789503384      PH        B2 (3)
   93    38           4.0846936953         111.1501662131     SG+        A1 (1)
   94   161           4.1440723389         112.7659412514      PH        B2 (3)
   95   109           4.1440723389         112.7659412514      PH        B1 (2)
   96   110           4.1514194361         112.9658659307      PI        B1 (2)
   97   162           4.1514194361         112.9658659307      PI        B2 (3)
   98    39           4.1620678024         113.2556227070      DE        A1 (1)
   99   202           4.1620678024         113.2556227070      DE        A2 (4)
  100    40           4.3025007036         117.0769962241      DE        A1 (1)
  101   203           4.3025007036         117.0769962241      DE        A2 (4)
  102    41           4.3619365875         118.6943288495     SG+        A1 (1)
  103   111           4.5004430987         122.4632826296      PI        B1 (2)
  104   163           4.5004430987         122.4632826296      PI        B2 (3)
  105    42           4.6263783947         125.8901562509      DE        A1 (1)
  106   204           4.6263783947         125.8901562509      DE        A2 (4)
  107    43           4.8368479979         131.6173253194     SG+        A1 (1)
  108   164           5.0968718986         138.6929353729      PI        B2 (3)
  109   112           5.0968718986         138.6929353729      PI        B1 (2)
  110    44           5.1325308850         139.6632657230     SG+        A1 (1)
  111   113           5.3523527033         145.6449215021      PI        B1 (2)
  112   165           5.3523527033         145.6449215022      PI        B2 (3)
  113   205           5.8180775132         158.3179378631      PI        A2 (4)
  114    45           5.8180775132         158.3179378631      PI        A1 (1)
  115   166           5.8886377774         160.2379802640      PH        B2 (3)
  116   114           5.8886377774         160.2379802640      PH        B1 (2)
  117    46           5.9988868697         163.2380105848     SG+        A1 (1)
  118   206           6.0681240439         165.1220498764      DE        A2 (4)
  119    47           6.0681240439         165.1220498764      DE        A1 (1)
  120   167           6.1119048659         166.3133866104      PI        B2 (3)
  121   115           6.1119048659         166.3133866104      PI        B1 (2)
  122    48           6.1628764377         167.7003935939     SG+        A1 (1)
  123    49           6.2733466923         170.7064420451      DE        A1 (1)
  124   207           6.2733466923         170.7064420452      DE        A2 (4)
  125   168           6.3431068884         172.6047134887      PH        B2 (3)
  126   116           6.3431068884         172.6047134887      PH        B1 (2)
  127   208           6.4754402295         176.2056867685      DE        A2 (4)
  128    50           6.4754402295         176.2056867686      DE        A1 (1)
  129   117           6.7401793050         183.4096032540      PI        B1 (2)
  130   169           6.7401793050         183.4096032540      PI        B2 (3)
  131    51           7.0721133431         192.4419876278     SG+        A1 (1)
  132   170           7.1235637202         193.8420235638      PI        B2 (3)
  133   118           7.1235637202         193.8420235638      PI        B1 (2)
  134    52           7.6286372698         207.5857735690     SG+        A1 (1)
  135    53           9.4489395105         257.1187157424     SG+        A1 (1)
  136   171           9.6630041757         262.9437114207      PI        B2 (3)
  137   119           9.6630041757         262.9437114211      PI        B1 (2)
  138    54          10.6657156521         290.2288778434      PI        A1 (1)
  139   209          10.6657156521         290.2288778434      PI        A2 (4)
  140    55          10.6752326657         290.4878489504     SG+        A1 (1)
  141   172          10.7307348657         291.9981405937      PH        B2 (3)
  142   120          10.7307348657         291.9981405937      PH        B1 (2)
  143   210          10.9451192631         297.8318366267      DE        A2 (4)
  144    56          10.9451192631         297.8318366267      DE        A1 (1)
  145   121          10.9829827353         298.8621540866      PI        B1 (2)
  146   173          10.9829827353         298.8621540866      PI        B2 (3)
  147    57          11.1432916269         303.2243807989     SG+        A1 (1)
  148   174          11.9016393934         323.8600726232      PH        B2 (3)
  149   122          11.9016393934         323.8600726232      PH        B1 (2)
  150    58          11.9809486687         326.0181877192      DE        A1 (1)
  151   211          11.9809486687         326.0181877192      DE        A2 (4)
  152   175          12.2703697099         333.8937346368      PI        B2 (3)
  153   123          12.2703697099         333.8937346369      PI        B1 (2)
  154    59          12.5293904133         340.9420463041     SG+        A1 (1)
  155    60          12.7243727625         346.2477857648      DE        A1 (1)
  156   212          12.7243727625         346.2477857648      DE        A2 (4)
  157   124          13.1068822015         356.6563967644      PI        B1 (2)
  158   176          13.1068822015         356.6563967644      PI        B2 (3)
  159    61          13.4045446606         364.7562040607     SG+        A1 (1)
  160    62          17.2764945312         470.1173164962     SG+        A1 (1)
  161   125          18.6886560119         508.5441839695      PI        B1 (2)
  162   177          18.6886560119         508.5441839697      PI        B2 (3)
  163    63          19.5163530863         531.0669664023     SG+        A1 (1)
  164   213          26.2432664432         714.1155848542      DE        A2 (4)
  165    64          26.2432664432         714.1155848542      DE        A1 (1)
  166   178          26.5009289862         721.1269390995      PI        B2 (3)
  167   126          26.5009289862         721.1269390995      PI        B1 (2)
  168    65          26.9453224804         733.2195008501     SG+        A1 (1)
  169   179          33.3789257480         908.2867460094      PI        B2 (3)
  170   127          33.3789257481         908.2867460106      PI        B1 (2)
  171    66          34.2638875296         932.3677803432     SG+        A1 (1)
  172    67          35.5256922879         966.7032333967     SG+        A1 (1)
  173    68          47.0760298235        1281.0038964777      DE        A1 (1)
  174   214          47.0760298235        1281.0038964777      DE        A2 (4)
  175   128          47.2638534910        1286.1148383039      PI        B1 (2)
  176   180          47.2638534910        1286.1148383039      PI        B2 (3)
  177    69          47.4393592114        1290.8905917519     SG+        A1 (1)
  178    70          63.7057904826        1733.5226896228     SG+        A1 (1)
  179   129          66.2787470620        1803.5363975767      PI        B1 (2)
  180   181          66.2787470620        1803.5363975769      PI        B2 (3)
  181    71          66.8934527560        1820.2633898929     SG+        A1 (1)
  182   182          98.4985921499        2680.2829553507      PH        B2 (3)
  183   130          98.4985921499        2680.2829553507      PH        B1 (2)
  184    72          98.5127681603        2680.6687042049      DE        A1 (1)
  185   215          98.5127681603        2680.6687042049      DE        A2 (4)
  186   131          98.5259041150        2681.0261517036      PI        B1 (2)
  187   183          98.5259041150        2681.0261517036      PI        B2 (3)
  188    73          98.5342576628        2681.2534632965     SG+        A1 (1)
  189   216         103.3150894492        2811.3465100087      DE        A2 (4)
  190    74         103.3150894493        2811.3465100103      DE        A1 (1)
  191   184         103.3196876162        2811.4716324939      PH        B2 (3)
  192   132         103.3196876162        2811.4716324939      PH        B1 (2)
  193   133         103.3336730230        2811.8521947597      PI        B1 (2)
  194   185         103.3336730230        2811.8521947598      PI        B2 (3)
  195    75         103.3439939805        2812.1330422901     SG+        A1 (1)
  196    76         114.9487099961        3127.9134190402      DE        A1 (1)
  197   217         114.9487099961        3127.9134190402      DE        A2 (4)
  198   186         115.0744419674        3131.3347599167      PI        B2 (3)
  199   134         115.0744419674        3131.3347599167      PI        B1 (2)
  200    77         115.2692558608        3136.6359154611     SG+        A1 (1)
  201   187         116.6912937488        3175.3315336419      PI        B2 (3)
  202   135         116.6912937489        3175.3315336428      PI        B1 (2)
  203    78         117.4177543387        3195.0995312781     SG+        A1 (1)
  204    79         121.8056730459        3314.5008695471     SG+        A1 (1)
  205    80         198.5594221199        5403.0765629882      DE        A1 (1)
  206   218         198.5594221199        5403.0765629882      DE        A2 (4)
  207   136         198.6617967156        5405.8623173623      PI        B1 (2)
  208   188         198.6617967156        5405.8623173624      PI        B2 (3)
  209    81         198.7525676156        5408.3323191218     SG+        A1 (1)
  210    82         216.2324079237        5883.9829555179     SG+        A1 (1)
  211   137         224.7642525289        6116.1462501782      PI        B1 (2)
  212   189         224.7642525289        6116.1462501783      PI        B2 (3)
  213    83         225.2501555566        6129.3683437589     SG+        A1 (1)
  214   190         395.2325545623       10754.8245743551      PI        B2 (3)
  215   138         395.2325545623       10754.8245743554      PI        B1 (2)
  216    84         395.7908482033       10770.0165166713     SG+        A1 (1)
  217    85         508.5523716543       13838.4135640641     SG+        A1 (1)
  218    86         895.0442565783       24355.3924257197     SG+        A1 (1)


  VSCF finished.

 @CHECKOUT-I, Total execution time (CPU/WALL):       57.93/      13.35 seconds.
--executable xvscf finished with status     0 in       13.38 seconds (walltime).
 --invoking executable--
/nfs/workspaces/public/cfour_mpi/bin/xvtran
 @GETMEM-I,  Allocated    3814 MB of main memory.
  Full RHF integral transformation
  Transformation of IIII integrals :
  1 pass through the AO integral file was required.
     4413362 AO integrals were read.
     8600610 MO integrals were written to HF2.
  Transformation of IIJJ integrals :
  1 pass through the AO integral file was required.
    10029591 AO integrals were read.
    14355126 MO integrals were written to HF2.
  Transformation of IJIJ integrals :
  1 pass through the AO integral file was required.
    19047775 AO integrals were read.
    26694651 MO integrals were written to HF2.
  Transformation of IJKL integrals :
  1 pass through the AO integral file was required.
    14073034 AO integrals were read.
    18081578 MO integrals were written to HF2.
  Summary of active molecular orbitals: 
------------------------------------------------------------------------
 
  Index      Eigenvalue    Symmetry    Index      Eigenvalue    Symmetry
------------------------------------------------------------------------
     1       -20.6404502        1       110         4.1440723        2
     2       -11.5297402        1       111         4.1514194        2
     3        -1.2619820        1       112         4.5004431        2
     4        -0.8085526        1       113         5.0968719        2
     5        -0.5204055        1       114         5.3523527        2
     6        -0.4900752        2       115         5.8886378        2
     7        -0.4900752        3       116         6.1119049        2
     8         0.0577101        1       117         6.3431069        2
     9         0.0692998        1       118         6.7401793        2
    10         0.1571058        1       119         7.1235637        2
    11         0.1861240        1       120         9.6630042        2
    12         0.2207335        1       121        10.7307349        2
    13         0.2985535        1       122        10.9829827        2
    14         0.3047987        1       123        11.9016394        2
    15         0.4139920        1       124        12.2703697        2
    16         0.5144863        1       125        13.1068822        2
    17         0.5505411        1       126        18.6886560        2
    18         0.7015618        1       127        26.5009290        2
    19         0.7352594        1       128        33.3789257        2
    20         0.8143574        1       129        47.2638535        2
    21         0.8546735        1       130        66.2787471        2
    22         0.8930437        1       131        98.4985921        2
    23         1.1385965        1       132        98.5259041        2
    24         1.3478517        1       133       103.3196876        2
    25         1.5833049        1       134       103.3336730        2
    26         1.5874758        1       135       115.0744420        2
    27         1.6687768        1       136       116.6912937        2
    28         1.9195437        1       137       198.6617967        2
    29         1.9247714        1       138       224.7642525        2
    30         2.0628882        1       139       395.2325546        2
    31         2.1201584        1       140        -0.0143175        3
    32         2.2162816        1       141         0.0807479        3
    33         2.2761570        1       142         0.1815988        3
    34         2.3766129        1       143         0.2824425        3
    35         2.6030992        1       144         0.4064364        3
    36         2.6525634        1       145         0.6235194        3
    37         2.8559678        1       146         0.7288387        3
    38         3.7137537        1       147         0.7725531        3
    39         3.8671094        1       148         0.8767361        3
    40         4.0846937        1       149         1.0455382        3
    41         4.1620678        1       150         1.4198668        3
    42         4.3025007        1       151         1.4730775        3
    43         4.3619366        1       152         1.6398331        3
    44         4.6263784        1       153         2.0531793        3
    45         4.8368480        1       154         2.1886067        3
    46         5.1325309        1       155         2.2033888        3
    47         5.8180775        1       156         2.2130802        3
    48         5.9988869        1       157         2.4926031        3
    49         6.0681240        1       158         2.6082141        3
    50         6.1628764        1       159         3.3348566        3
    51         6.2733467        1       160         3.8909801        3
    52         6.4754402        1       161         4.1440723        3
    53         7.0721133        1       162         4.1514194        3
    54         7.6286373        1       163         4.5004431        3
    55         9.4489395        1       164         5.0968719        3
    56        10.6657157        1       165         5.3523527        3
    57        10.6752327        1       166         5.8886378        3
    58        10.9451193        1       167         6.1119049        3
    59        11.1432916        1       168         6.3431069        3
    60        11.9809487        1       169         6.7401793        3
    61        12.5293904        1       170         7.1235637        3
    62        12.7243728        1       171         9.6630042        3
    63        13.4045447        1       172        10.7307349        3
    64        17.2764945        1       173        10.9829827        3
    65        19.5163531        1       174        11.9016394        3
    66        26.2432664        1       175        12.2703697        3
    67        26.9453225        1       176        13.1068822        3
    68        34.2638875        1       177        18.6886560        3
    69        35.5256923        1       178        26.5009290        3
    70        47.0760298        1       179        33.3789257        3
    71        47.4393592        1       180        47.2638535        3
    72        63.7057905        1       181        66.2787471        3
    73        66.8934528        1       182        98.4985921        3
    74        98.5127682        1       183        98.5259041        3
    75        98.5342577        1       184       103.3196876        3
    76       103.3150894        1       185       103.3336730        3
    77       103.3439940        1       186       115.0744420        3
    78       114.9487100        1       187       116.6912937        3
    79       115.2692559        1       188       198.6617967        3
    80       117.4177543        1       189       224.7642525        3
    81       121.8056730        1       190       395.2325546        3
    82       198.5594221        1       191         0.2207335        4
    83       198.7525676        1       192         0.5505411        4
    84       216.2324079        1       193         0.7352594        4
    85       225.2501556        1       194         0.8546735        4
    86       395.7908482        1       195         1.5874758        4
    87       508.5523717        1       196         1.6687768        4
    88       895.0442566        1       197         2.0628882        4
    89        -0.0143175        2       198         2.1201584        4
    90         0.0807479        2       199         2.2761570        4
    91         0.1815988        2       200         2.6030992        4
    92         0.2824425        2       201         3.7137537        4
    93         0.4064364        2       202         4.1620678        4
    94         0.6235194        2       203         4.3025007        4
    95         0.7288387        2       204         4.6263784        4
    96         0.7725531        2       205         5.8180775        4
    97         0.8767361        2       206         6.0681240        4
    98         1.0455382        2       207         6.2733467        4
    99         1.4198668        2       208         6.4754402        4
   100         1.4730775        2       209        10.6657157        4
   101         1.6398331        2       210        10.9451193        4
   102         2.0531793        2       211        11.9809487        4
   103         2.1886067        2       212        12.7243728        4
   104         2.2033888        2       213        26.2432664        4
   105         2.2130802        2       214        47.0760298        4
   106         2.4926031        2       215        98.5127682        4
   107         2.6082141        2       216       103.3150894        4
   108         3.3348566        2       217       114.9487100        4
   109         3.8909801        2       218       198.5594221        4
------------------------------------------------------------------------
  -20.6404502144307       -11.5297402473104       -1.26198196582794     
 -0.808552556967525      -0.520405549091423      -0.490075156496500     
 -0.490075156496491       5.771010783179158E-002  6.929980958320391E-002
  0.157105826751352       0.186123995010776       0.220733451162532     
  0.298553479850168       0.304798667036053       0.413991960451704     
  0.514486282322762       0.550541089061696       0.701561752369034     
  0.735259407704801       0.814357418360882       0.854673472669027     
  0.893043693160208        1.13859645506062        1.34785173491996     
   1.58330491030407        1.58747578619137        1.66877679611897     
   1.91954367596683        1.92477141538279        2.06288816120740     
   2.12015840346899        2.21628160390148        2.27615696757955     
   2.37661292167139        2.60309918366069        2.65256339881154     
   2.85596784404264        3.71375366546357        3.86710939661391     
   4.08469369525311        4.16206780236788        4.30250070358678     
[...]
 Convergence information after    16 iterations: 
 Largest element of residual vector :  0.10571676E-05.
 Largest element of DIIS residual   :  0.34568976E-06.
 Convergence information after    17 iterations: 
 Largest element of residual vector :  0.49365728E-06.
 Largest element of DIIS residual   :  0.20833456E-06.
 Convergence information after    18 iterations: 
 Largest element of residual vector :  0.86266348E-07.
 Largest element of DIIS residual   : -0.41400516E-07.
 Perturbed amplitude equations converged in    18 iterations.
  Dominant contributions to perturbed wavefunction:
    7    7  140   45  -0.2297195088 ABAB
    7    7   45  140  -0.2297195088 ABAB
    7    7  140   22  -0.2208282531 ABAB
    7    7   22  140  -0.2208282531 ABAB
    7    7  140   28   0.2142604702 ABAB
    7    7   28  140   0.2142604702 ABAB
    7    0   36    0   0.1977859390 AA  
    7    7  140   39  -0.1845193144 ABAB
    7    7   39  140  -0.1845193144 ABAB
    7    0   45    0   0.1696520845 AA  
    7    7  140   32  -0.1688211334 ABAB
    7    7   32  140  -0.1688211334 ABAB
    7    0   22    0   0.1682301543 AA  
    7    0   39    0   0.1577809888 AA  
    7    7  140   57  -0.1567835060 ABAB
    7    7   57  140  -0.1567835060 ABAB
    7    0   28    0  -0.1527708406 AA  
    7    7  140   36  -0.1444091324 ABAB
    7    7   36  140  -0.1444091324 ABAB
    7    6   45   89  -0.1431983244 ABAB
  norm of converged amps    1.61673481908061     
 Starting iterative solution of the perturbed Lambda equations.
 The DIIS procedure is used to accelerate convergence.
 Convergence criterion is 10**(-7).
 Maximum number of iterations is 100.
 Convergence information after     1 iterations: 
 Largest element of residual vector :  0.80103174E-01.
 Largest element of DIIS residual   :  0.80103174E-01.
 Convergence information after     2 iterations: 
 Largest element of residual vector :  0.17553841E-01.
 Largest element of DIIS residual   :  0.13601886E-01.
 Convergence information after     3 iterations: 
 Largest element of residual vector :  0.69473727E-02.
 Largest element of DIIS residual   :  0.62124166E-02.
 Convergence information after     4 iterations: 
 Largest element of residual vector :  0.35718347E-02.
 Largest element of DIIS residual   :  0.32963660E-02.
 Convergence information after     5 iterations: 
 Largest element of residual vector :  0.32764863E-02.
 Largest element of DIIS residual   :  0.27544982E-02.
 Convergence information after     6 iterations: 
 Largest element of residual vector :  0.18203305E-02.
 Largest element of DIIS residual   :  0.81778984E-03.
 Convergence information after     7 iterations: 
 Largest element of residual vector :  0.87467162E-03.
 Largest element of DIIS residual   :  0.43703896E-03.
 Convergence information after     8 iterations: 
 Largest element of residual vector :  0.32588828E-03.
 Largest element of DIIS residual   : -0.20046215E-03.
 Convergence information after     9 iterations: 
 Largest element of residual vector :  0.14336271E-03.
 Largest element of DIIS residual   : -0.88740248E-04.
 Convergence information after    10 iterations: 
 Largest element of residual vector : -0.78483991E-04.
 Largest element of DIIS residual   : -0.42352511E-04.
 Convergence information after    11 iterations: 
 Largest element of residual vector : -0.21657467E-04.
 Largest element of DIIS residual   : -0.76711659E-05.
 Convergence information after    12 iterations: 
 Largest element of residual vector :  0.91377726E-05.
 Largest element of DIIS residual   :  0.53740625E-05.
 Convergence information after    13 iterations: 
 Largest element of residual vector :  0.23356177E-05.
 Largest element of DIIS residual   :  0.20113806E-05.
 Convergence information after    14 iterations: 
 Largest element of residual vector :  0.25637621E-05.
 Largest element of DIIS residual   :  0.15171069E-05.
 Convergence information after    15 iterations: 
 Largest element of residual vector :  0.13983548E-05.
 Largest element of DIIS residual   :  0.69539129E-06.
 Convergence information after    16 iterations: 
 Largest element of residual vector :  0.64376535E-06.
 Largest element of DIIS residual   :  0.20261282E-06.
 Convergence information after    17 iterations: 
 Largest element of residual vector :  0.30023740E-06.
 Largest element of DIIS residual   :  0.13127532E-06.
 Convergence information after    18 iterations: 
 Largest element of residual vector :  0.60108199E-07.
 Largest element of DIIS residual   : -0.30462370E-07.
 Perturbed Lambda equations converged in    18 iterations.
  Dominant contributions to perturbed wavefunction:
    7    7  140   45  -0.1817569385 ABAB
    7    7   45  140  -0.1817569385 ABAB
    7    7  140   22  -0.1735740346 ABAB
    7    7   22  140  -0.1735740346 ABAB
    7    7  140   28   0.1695278051 ABAB
    7    7   28  140   0.1695278051 ABAB
    7    7  140   39  -0.1438912330 ABAB
    7    7   39  140  -0.1438912330 ABAB
    7    7  140   32  -0.1334628015 ABAB
    7    7   32  140  -0.1334628015 ABAB
    7    7  140   57  -0.1227568125 ABAB
    7    7   57  140  -0.1227568125 ABAB
    7    6   45   89  -0.1126305608 ABAB
    6    7   89   45  -0.1126305608 ABAB
    7    6   22   89  -0.1067905410 ABAB
    6    7   89   22  -0.1067905410 ABAB
    7    7  140   16   0.1064703234 ABAB
    7    7   16  140   0.1064703234 ABAB
    7    7  140   36  -0.1061739910 ABAB
    7    7   36  140  -0.1061739910 ABAB
        The DBOC first-order density matrix is being calculated 
             (Symmetry block 3, perturbation   2)
 term   2.71416265215675     
 final tnorm  0.766765933617798     
  norm contr. I: |<0|L dT/dx|0>|^2   0.000000000000000E+000
  norm contr. II: <0|[nabla(1+L)e-T][nabla e^T]|0>   2.71416265215675     
  total norm contribution   2.71416265215675     
 oo  1.032206047886353E-002
 vv  -20.2995923760494     
 vo  5.075481642423674E-002
  Correlated perturbed 1-el contribution to DBOC  -20.2385154991463       cm**-1
  SUM_I |dc_I/dx|^2 contribution to DBOC   10.2180342126587       cm**-1
 
 
  The total diagonal Born-Oppenheimer correction (DBOC) is:      0.0040094986 a.u.
  The total diagonal Born-Oppenheimer correction (DBOC) is:        879.983218 cm-1
 
 Total CC energy including DBOC  -113.056031179399     
 First-order density matrix is being calculated  (Symmetry block 3, perturbation   2)
 Calculation of the contributions of <pq||rs> to dI(i,j)/dx required   3.2 seconds.
 Calculation of the contributions of <pq||rs> to dI(a,b)/dx required  16.0 seconds.
 Calculation of the contributions of <pq||rs> to dI(i,a)/dx required   9.1 seconds.
 First-order Z-vector equations are solved for 1 perturbation.
 Convergence reached after  19 iterations.
        U*G(pq,rs) contribution is being calculated
             (Symmetry block 3, perturbation   2)

 CCSD contribution to force constants 

        0.0000000000        0.0000000000        0.0000000000
        0.0000000000        0.0000000000        0.0000000000
        0.0000000000        0.0000000000        0.0000000000
        0.0000000000        0.0000000000        0.0000000000
        0.0000000000        0.0000000000        0.0000000000
        0.0000000000        0.0000000000        0.0000000000
        0.0000000000        0.0000000000        0.0000000000
        0.0000000000        0.0000000000        0.0000000000
        0.0000000000        0.0000000000        0.0000000000
        0.0000000000        0.0000000000        0.0000000000
        0.0000000000        0.0000000000        0.0000000000
        0.0000000000       -6.1196276527        6.1196276527

 CCSD contribution to dipole derivatives 

        0.0000000000        0.0000000000        0.0000000000
        0.0000000000        0.0000000000        0.0000000000
        0.0000000000        0.0000000000        0.0000000000
        0.0000000000        0.0000000000       -0.0573335758
        0.0000000000        0.0000000000        0.0000000000
        0.0000000000        0.0000000000        0.0000000000
 @CHECKOUT-I, Total execution time (CPU/WALL):     1487.33/     567.80 seconds.
--executable xsdcc finished with status     0 in      569.70 seconds (walltime).
 --invoking executable--
/nfs/workspaces/public/cfour_mpi/bin/xanti
 @GETMEM-I,  Allocated    3814 MB of main memory.
 CCSD MO derivative gammas will be sorted to Mulliken order.
 @CHECKOUT-I, Total execution time (CPU/WALL):       13.27/      28.11 seconds.
--executable xanti finished with status     0 in       32.53 seconds (walltime).
 --invoking executable--
/nfs/workspaces/public/cfour_mpi/bin/xbcktrn
 @GETMEM-I,  Allocated    3814 MB of main memory.
 CCSD MO derivative gammas will be transformed to the AO basis.
 @CHECKOUT-I, Total execution time (CPU/WALL):       34.37/      67.97 seconds.
--executable xbcktrn finished with status     0 in       68.83 seconds (walltime).
 --invoking executable--
/nfs/workspaces/public/cfour_mpi/bin/xvdint
 @GETMEM-I,  Allocated    3814 MB of main memory.
 One- and two-electron integral derivatives are calculated
 for RHF-CC/MBPT hessians and dipole derivatives.
 Spherical gaussians are used.
  magnet F F
                    8722  records have been written to the Sort file.
  Total length of Sort file :             178609116  words.
 Evaluation of 2el integral derivatives

                      Two-electron integral gradient
                      ------------------------------

                         C #1 z     0.0000000000
                         O #2 z     0.0000000000


 C #1       0.0000000000            0.0809732048            0.0000000000
 O #2       0.0000000000           -0.0809732048            0.0000000000


 Evaluation of 2e integral derivatives required  364.78 seconds.
  contribution to Hessian
        0.0000000000        0.0000000000        0.0000000000
        0.0000000000        0.0809732048       -0.0809732048
 @CHECKOUT-I, Total execution time (CPU/WALL):      364.76/      71.65 seconds.
--executable xvdint finished with status     0 in       71.91 seconds (walltime).
 --invoking executable--
/nfs/workspaces/public/cfour_mpi/bin/xanti
 @GETMEM-I,  Allocated    3814 MB of main memory.
 CCSD MO gammas will be sorted to Mulliken order.
 @CHECKOUT-I, Total execution time (CPU/WALL):       14.38/      37.15 seconds.
--executable xanti finished with status     0 in       37.24 seconds (walltime).
 --invoking executable--
/nfs/workspaces/public/cfour_mpi/bin/xbcktrn
 @GETMEM-I,  Allocated    3814 MB of main memory.
 CCSD MO gammas will be transformed to the AO basis.
 @CHECKOUT-I, Total execution time (CPU/WALL):       29.27/       4.08 seconds.
--executable xbcktrn finished with status     0 in        4.10 seconds (walltime).
 --invoking executable--
/nfs/workspaces/public/cfour_mpi/bin/xvdint
 @GETMEM-I,  Allocated    3814 MB of main memory.
 One- and two-electron integral derivatives are calculated
 for RHF-CC/MBPT hessians and dipole derivatives.
 Spherical gaussians are used.
  magnet F F

                     Kinetic energy integral gradient
                     --------------------------------

                         C #1 z    -0.4802622883
                         O #2 z     0.4802622883


 C #1       0.0000000000            0.0000000000           -0.4802622883
 O #2       0.0000000000            0.0000000000            0.4802622883



                   Nuclear attraction integral gradient
                   ------------------------------------

                         C #1 z    13.0151447711
                         O #2 z   -13.0151447711


 C #1       0.0000000000            0.0000000000           13.0151447711
 O #2       0.0000000000            0.0000000000          -13.0151447711



                      Reorthonormalization gradient
                      -----------------------------

                         C #1 z     0.0000000000
                         O #2 z     0.0000000000


 C #1       0.0000000000            0.0000000000            0.0000000000
 O #2       0.0000000000            0.0000000000            0.0000000000



                     Kinetic energy integral Hessian
                     -------------------------------


           Symmetry 1

           C #1 z      O #2 z

 C #1 z    0.506901
 O #2 z   -0.506901    0.506901


           Symmetry 2

           C #1 x      O #2 x

 C #1 x   -0.349488
 O #2 x    0.349488   -0.349488


           Symmetry 3

           C #1 y      O #2 y

 C #1 y   -0.349488
 O #2 y    0.349488   -0.349488




           C #1 x      C #1 y      C #1 z      O #2 x      O #2 y      O #2 z

 C #1 x   -0.349488
 C #1 y    0.000000   -0.349488
 C #1 z    0.000000    0.000000    0.506901

 O #2 x    0.349488    0.000000    0.000000   -0.349488
 O #2 y    0.000000    0.349488    0.000000    0.000000   -0.349488
 O #2 z    0.000000    0.000000   -0.506901    0.000000    0.000000    0.506901




                   Nuclear attraction integral Hessian
                   -----------------------------------


           Symmetry 1

           C #1 z      O #2 z

 C #1 z   -7.837825
 O #2 z    7.837825   -7.837825


           Symmetry 2

           C #1 x      O #2 x

 C #1 x    6.660174
 O #2 x   -6.660174    6.660174


           Symmetry 3

           C #1 y      O #2 y

 C #1 y    6.660174
 O #2 y   -6.660174    6.660174




           C #1 x      C #1 y      C #1 z      O #2 x      O #2 y      O #2 z

 C #1 x    6.660174
 C #1 y    0.000000    6.660174
 C #1 z    0.000000    0.000000   -7.837825

 O #2 x   -6.660174    0.000000    0.000000    6.660174
 O #2 y    0.000000   -6.660174    0.000000    0.000000    6.660174
 O #2 z    0.000000    0.000000    7.837825    0.000000    0.000000   -7.837825




                Highest order reorthonormalization Hessian
                ------------------------------------------


           Symmetry 1

           C #1 z      O #2 z

 C #1 z    0.000000
 O #2 z    0.000000    0.000000


           Symmetry 2

           C #1 x      O #2 x

 C #1 x    0.000000
 O #2 x    0.000000    0.000000


           Symmetry 3

           C #1 y      O #2 y

 C #1 y    0.000000
 O #2 y    0.000000    0.000000




           C #1 x      C #1 y      C #1 z      O #2 x      O #2 y      O #2 z




                Electronic contributions to dipole moment
                -----------------------------------------

                               au             Debye

                    z      1.37780178      3.50202341

  Conversion factor used: 1 a.u. =   2.54174691 Debye 



   Electronic contributions to static part of dipole moment derivatives
   --------------------------------------------------------------------


                     Total dipole moment derivatives
                     -------------------------------


           Symmetry 1
                              Ez

               C #1 z    -5.68785068
               O #2 z    -8.31214932

           Symmetry 2
                              Ex

               C #1 x    -5.67947419
               O #2 x    -8.32052581

           Symmetry 3
                              Ey

               C #1 y    -5.67947419
               O #2 y    -8.32052581



                       Ex          Ey          Ez

      C #1    x   -5.679474    0.000000    0.000000
      C #1    y    0.000000   -5.679474    0.000000
      C #1    z    0.000000    0.000000   -5.687851

      O #2    x   -8.320526    0.000000    0.000000
      O #2    y    0.000000   -8.320526    0.000000
      O #2    z    0.000000    0.000000   -8.312149

 Evaluation of 1e integral derivatives required    1.77 seconds.
                    8815  records have been written to the Sort file.
  Total length of Sort file :             180513570  words.
 Evaluation of 2el integral derivatives

                      Two-electron integral gradient
                      ------------------------------

                         C #1 z    -7.0064262567
                         O #2 z     7.0064262567


 C #1       0.0000000000            0.0000000000           -7.0064262567
 O #2       0.0000000000            0.0000000000            7.0064262567


 Evaluation of 2e integral derivatives required  743.90 seconds.

                            Molecular gradient
                            ------------------

                         C #1 z     0.5602163186
                         O #2 z    -0.5602163186


 C #1       0.0000000000            0.0000000000            0.5602163186
 O #2       0.0000000000            0.0000000000           -0.5602163186


  Molecular gradient norm 0.792E+00

                            Molecular hessian
                            -----------------


           Symmetry 1

           C #1 z      O #2 z

 C #1 z   12.860388
 O #2 z  -12.860388   12.860388


           Symmetry 2

           C #1 x      O #2 x

 C #1 x    6.281576
 O #2 x   -6.281576    6.281576


           Symmetry 3

           C #1 y      O #2 y

 C #1 y    6.281576
 O #2 y   -6.281576    6.281576




           C #1 x      C #1 y      C #1 z      O #2 x      O #2 y      O #2 z

 C #1 x    6.281576
 C #1 y    0.000000    6.281576
 C #1 z    0.000000    0.000000   12.860388

 O #2 x   -6.281576    0.000000    0.000000    6.281576
 O #2 y    0.000000   -6.281576    0.000000    0.000000    6.281576
 O #2 z    0.000000    0.000000  -12.860388    0.000000    0.000000   12.860388




                           Total dipole moment
                           -------------------

                               au             Debye

                    z      0.51414829      1.30683482

  Conversion factor used: 1 a.u. =   2.54174691 Debye 



                     Total dipole moment derivatives
                     -------------------------------


           Symmetry 1
                              Ez

               C #1 z     0.55034935
               O #2 z    -0.55034935

           Symmetry 2
                              Ex

               C #1 x     0.17595975
               O #2 x    -0.17595975

           Symmetry 3
                              Ey

               C #1 y     0.17595975
               O #2 y    -0.17595975



                       Ex          Ey          Ez

      C #1    x    0.175960    0.000000    0.000000
      C #1    y    0.000000    0.175960    0.000000
      C #1    z    0.000000    0.000000    0.550349

      O #2    x   -0.175960    0.000000    0.000000
      O #2    y    0.000000   -0.175960    0.000000
      O #2    z    0.000000    0.000000   -0.550349

 @CHECKOUT-I, Total execution time (CPU/WALL):      745.66/     131.25 seconds.
--executable xvdint finished with status     0 in      131.38 seconds (walltime).
 --invoking executable--
/nfs/workspaces/public/cfour_mpi/bin/xjoda
  @GTFLGS-I, Hessian will be transformed to curvilinear coordinates.
  @GTFLGS-I, Hessian will be transformed to curvilinear coordinates.
  igrd and ihes are                      0                     1
  gradient from JOBARC 
   0.000000000000000   0.000000000000000   0.560216318603863
   0.000000000000000   0.000000000000000  -0.560216318603863
 
  @PROJFCM-I, Projecting force constant matrix onto totally symmetric subspace.
  Largest difference between matrix elements of symmetrized
  and unsymmetrized FCM :    -0.4396483178E-12.
  read isotopes from ZMAT file 
 
  Summary of diagonal Born-Oppenheimer correction at the correlated level
  The total diagonal Born-Oppenheimer correction (DBOC) is:      0.0040094986 a.u.
  The total diagonal Born-Oppenheimer correction (DBOC) is:        879.983218 cm-1
  The total diagonal Born-Oppenheimer correction (DBOC) is:            10.527 kJ/mole
  hellooooooo 
  readis is  F
 
 @CHECKOUT-I, Total execution time (CPU/WALL):        0.02/       0.07 seconds.
--executable xjoda finished with status     0 in        0.13 seconds (walltime).
  The final electronic energy is      -113.056031179398687 a.u. 
  This computation required                         4798.91 seconds (walltime).
