 --invoking executable--
/nfs/workspaces/public/cfour_mpi/bin/xjoda


   *************************************************************************
         <<<     CCCCCC     CCCCCC   |||     CCCCCC     CCCCCC   >>>
       <<<      CCC        CCC       |||    CCC        CCC         >>>
      <<<      CCC        CCC        |||   CCC        CCC            >>>
    <<<        CCC        CCC        |||   CCC        CCC              >>>
      <<<      CCC        CCC        |||   CCC        CCC            >>>
       <<<      CCC        CCC       |||    CCC        CCC         >>>
         <<<     CCCCCC     CCCCCC   |||     CCCCCC     CCCCCC   >>>
   *************************************************************************

     ****************************************************************
     * CFOUR Coupled-Cluster techniques for Computational Chemistry *
     ****************************************************************
 

   Department of Chemistry                Institut fuer Physikalische Chemie
   University of Florida                  Universitaet Mainz
   Gainesville, FL 32611, USA             D-55099 Mainz, Germany

   Department of Chemistry                Fakultaet fuer Chemie und Biowiss.
   Johns Hopkins University               Karlsruher Institut fuer Technologie
   Baltimore, MD 21218, USA               D-76131 Karlsruhe, Germany

   Department of Chemistry                Department of Physical Chemistry
   Southern Methodist University          Eotvos Lorand University
   Dallas, TX 75275, USA                  H-1053 Budapest, Hungary

 
                       Version 2.1
 
                     vincent.theory.phys.ucl.ac.uk                     
                     Thu 27 Feb 05:52:07 GMT 2025                      
                     integer*8 version is running
 
********************************************************************************
*                          Input from ZMAT file                                *
********************************************************************************
Carbon Monoxide DBOC calculation                                                
C                                                                               
O 1 r                                                                           
                                                                                
r=1.210344827586207                                                             
                                                                                
                                                                                
*CFOUR(CALC=CCSD,BASIS=AUG-PCVQZ,SCF_CONV=10                                    
CC_CONV=14,DBOC=ON,MEMORY=500000000                                             
ZFIELD=200)                                                                     
                                                                                
%isotopes                                                                       
13                                                                              
16                                                                              
********************************************************************************
  @GTFLGS-I, Hessian will be transformed to curvilinear coordinates.
    -------------------------------------------------------------------
                    CFOUR Control Parameters 
    -------------------------------------------------------------------
        External           Internal           Value            Units
          Name               Name
    -------------------------------------------------------------------
       ABCDTYPE             IABCDT         STANDARD    [  0]    ***   
       ANHARMONIC           IANHAR         OFF         [  0]    ***   
       ANH_ALGORIT          IANALG         STANDARD    [  0]    ***   
       ANH_DERIVAT          IANDER         SECOND      [  1]    ***   
       ANH_MODE             ANHMOD         VIBRATION   [  0]    ***   
       ANH_STEPSIZ          ICUBST             50000          x 10-6  
       ANH_SYMMETR          IANHSM         ABELIAN     [  0]    ***   
       AO_LADDERS           IAOLAD         SINGLEPASS  [  1]    ***   
       AV_SCF               IAVSCF         OFF         [  0]    ***   
       BASIS                IBASIS         AUG-PCVQZ   [ 52]    ***   
       BOTHVECTORS          BOTHVC         OFF         [  0]    ***   
       BOX_POTENT           IPIAB          OFF         [  0]    ***   
       BREIT                IBREIT         OFF         [  0]    ***   
       BRUCK_CONV           IBRTOL          10D-  4             ***   
       BRUECKNER            IBRKNR         OFF         [  0]    ***   
       BUFFERSIZE           IBUFFS              4096            ***   
       CACHE_RECS           ICHREC             10               ***   
       CALCLEVEL            ICLLVL         CCSD        [ 10]    ***   
       CCORBOPT             ICCORB         OFF         [  0]  x 0.01  
       CC_CONV              ICCCNV          10D- 14             ***   
       CC_EXPORDER          ICCEOR              5               ***   
       CC_EXTRAPOL          ICCEXT         DIIS        [  1]    ***   
       CC_GUESS             ICCGES         MP2         [  0]    ***   
       CC_MAXCYC            ICCCYC            100              cycles 
       CC_PROGRAM           ICCPRO         VCC         [  0]    ***   
       CHARGE               ICHRGE              0               ***   
       CHOLESKY             ICHOLE         OFF         [  0]    ***   
       CIS_CONV             ICISTL              5               ***   
       COMM_SIZE            IPSIZE            ***               ***   
       CONSTANT             ICONST         OLD         [  1]    ***   
       CONTINUUM            ICONTU         NONE        [  0]    ***   
       CONTRACTION          ICNTYP         GENERAL     [  1]    ***   
       COORDINATES          ICOORD         INTERNAL    [  0]    ***   
       CPHF_CONVER          ICPHFT          10D- 16             ***   
       CPHF_MAXCYC          ICPHFC             64              cycles 
       CUBIC                ICUBIC         OFF         [  0]    ***   
       CURVILINEAR          ICURVY         ON          [  1]    ***   
       DBOC                 IDBOC          ON          [  1]    ***   
       DCT                  IDCT           OFF         [  0]    ***   
       DERIV_LEV            IDRLVL         SECOND      [  2]    ***   
       DEVMEM_SIZE          IDVMEM          50000000           MByte  
       DIAG_MRCC            IEOMST          10D-  0             ***   
       DIFF_TYPE            IDIFTY         RELAXED     [  0]    ***   
       DIRECT               IDIRCT         OFF         [  0]    ***   
       DROPMO               IDRPMO      NONE         
       ECP                  IECP           OFF         [  0]    ***   
       EIGENVECTOR          IVEC                1               ***   
       EL_ANHARM            IELANH         OFF         [  0]    ***   
       EOMFOLLOW            IEOMSR         ENERGY      [  0]    ***   
       EOMIP                IEOMIP         OFF         [  0]    ***   
       EOMLEVEL             HBARFM         SAME        [  0]    ***   
       EOM_MRCC             IMRCCE         NEW         [  1]    ***   
       EOM_NONIT            EOMNON         OFF         [  0]    ***   
       EOM_NSING            IEOMSI          10D-  0             ***   
       EOM_NSTATES          IMRCCD         DAVIDSON    [  0]    ***   
       EOM_NTRIP            IEOMTR          10D-  0             ***   
       EOM_ORDER            IEXORD         ENERGY      [  0]    ***   
       EOM_PROPSTA          IEOMST              0               ***   
       ESTATE_CONV          IEXTOL          10D-  5             ***   
       ESTATE_DIAG          IEXDIG         ITERATIVE   [  0]    ***   
       ESTATE_LOCK          IESLOC         ON          [  1]    ***   
       ESTATE_MAXC          IEXMXC             40               ***   
       ESTATE_PROP          IEXPRP         OFF         [  0]    ***   
       EVAL_HESS            IRECAL              0            # of cyc.
       EXCITATION           IEXCIT              0               ***   
       EXCITE               IEXCIT         NONE        [  0]    ***   
       EXTERN_POT           IEXPOT         OFF         [  0]    ***   
       FCGRADNEW            IFCGNW         OFF         [  0]    ***   
       FC_FIELD             IFINFC              0             x 10-6  
       FD_CALTYPE           IFDCAL         GRADONLY    [  0]    ***   
       FD_PROJECT           IFDPRJ         OFF         [  1]    ***   
       FD_STEPSIZE          IDISFD              0            10-4 bohr
       FD_USEGROUP          IFDGRP         FULL        [  0]    ***   
       FILE_RECSIZ          IFLREC              4096           words  
       FINITE_PERT          IFIPER              0             x 10-6  
       FIXGEOM              IFIXGM         OFF         [  0]    ***   
       FOCK                 IFOCK          AO          [  1]    ***   
       FREQ_ALGORI          IVIALG         STANDARD    [  0]    ***   
       FROZEN_CORE          IFROCO         OFF         [  0]    ***   
       GAMMA_ABCD           IGABCD         STORE       [  0]    ***   
       GAMMA_ABCI           IGABCI         STORE       [  0]    ***   
       GENBAS_1             IGNBS1              0               ***   
       GENBAS_2             IGNBS2              0               ***   
       GENBAS_3             IGNBS3              0               ***   
       GENBAS_4             IGNBS4              0               ***   
       GEO_CONV             ICONTL              5              H/bohr 
       GEO_MAXCYC           IOPTCY             50               ***   
       GEO_MAXSTEP          IMXSTP            300            millibohr
       GEO_METHOD           INR            SINGLE_POINT[  5]    ***   
       GIAO                 IGIAO          OFF         [  1]    ***   
       GIMIC                IGIMIC         OFF         [  0]    ***   
       GRID                 IGRID          OFF         [  0]    ***   
       GRID_ALGO            IGALGO         SERIAL      [  0]    ***   
       GUESS                IGUESS         MOREAD      [  0]    ***   
       HBAR                 IHBAR          OFF         [  0]    ***   
       HESS_TYPE            IHESTP         SCF         [  0]    ***   
       HF2_FILE             IHF2Fl         USE         [  1]    ***   
       HFSTABILITY          ISTABL         OFF         [  0]    ***   
       INCORE               INCORE         OFF         [  0]    ***   
       INPUT_MRCC           IMRCC          ON          [  1]    ***   
       INTEGRALS            INTTYP         VMOL        [  1]    ***   
       JODA_PRINT           IJPRNT              0               ***   
       KEYWORD_OUT          IDMPKW         NO          [  0]    ***   
       LINDEP_TOL           ILINDP              8               ***   
       LINEQ_CONV           IZTACN          10D-  7           cycles  
       LINEQ_EXPOR          ILMAXD              5               ***   
       LINEQ_MAXCY          ILMAXC            100               ***   
       LINEQ_TYPE           ILTYPE         DIIS        [  1]    ***   
       LOCK_ORBOCC          ILOCOC         OFF         [  0]    ***   
       MEMORY_SIZE          IMEMSZ         500000000           words  
       MEM_UNIT             IMEMU          INTEGERWORDS[  0]    ***   
       MRCC                 IMRCCC         OFF         [  0]    ***   
       MULTIPLICTY          IMULTP              1               ***   
       NACOUPLING           IVCOUP         OFF         [  0]    ***   
       NEGEVAL              IDIE           ABORT       [  0]    ***   
       NEWNORM              INEWNO         OFF         [  0]    ***   
       NON-HF               INONHF         OFF         [  0]    ***   
       NTOP_TAMP            ITOPT2             15               ***   
       NUC_MODEL            INUCMO         POINT       [  0]    ***   
       OCCUPATION           IOCCU   ESTIMATED BY SCF 
       OPEN-SHELL           IOPEN          SPIN-ORBITAL[  0]    ***   
       OPTVIB               IOPTVB         OFF         [  0]    ***   
       ORBITALS             IORBTP         STANDARD    [  0]    ***   
       PARALLEL             IPARAL         ON          [  1]    ***   
       PARA_INT             IPINTS         ON          [  1]    ***   
       PARA_PRINT           IPPRIN              0               ***   
       PERT_ORB             IPTORB         STANDARD    [  0]    ***   
       POINTS               IGRDFD              0               ***   
       PRINT                IPRNT               0               ***   
       PROPS                IPROPS         OFF         [  0]    ***   
       PROP_INTEGR          IINTYP         INTERNAL    [  0]    ***   
       PSI                  IPSI           OFF         [  0]    ***   
       QC_ALG               IQCALG         FLM         [  0]    ***   
       QC_LINALG            IQCLIN         TRIDIAG     [  2]    ***   
       QC_MAXCYC            IQCMAX          10D-100           cycles  
       QC_MAXSCFCY          IQCMSC          10D- 15           cycles  
       QC_RTRUST            IQCRTR          10D-  0           x 10-3  
       QC_SKIPSCF           IQCSKI         OFF         [  0]    ***   
       QC_START             IQCSTA          10D-  1             ***   
       QRHFGUESS            IQGUES         OFF         [  0]    ***   
       QUARTIC              IQUART         OFF         [  0]    ***   
       RAMAN_INT            IRAMIN         OFF         [  0]    ***   
       RAMAN_ORB            IRAMRE         UNRELAXED   [  0]    ***   
       RDO                  IRDOFM         ON          [  1]    ***   
       REDUCE_REPR          REDREP         Ir          [  0]    ***   
       REFERENCE            IREFNC         RHF         [  0]    ***   
       RELATIVIST           IRELAT         OFF         [  0]    ***   
       RELAX_DENS           IRDENS         ON          [  1]    ***   
       RESET_FLAGS          IRESET         OFF         [  0]    ***   
       RESTART_CC           ICCRES         OFF         [  0]    ***   
       ROT_EVEC             ROTVEC              0               ***   
       SAVE_INTS            ISVINT         OFF         [  0]    ***   
       SCALE_ON             ISTCRT              0               ***   
       SCF_CONV             ISCFCV          10D- 10             ***   
       SCF_DAMPING          IDAMP               0             x 10-3  
       SCF_EXPORDE          IRPPOR              6               ***   
       SCF_EXPSTAR          IRPPLS              8               ***   
       SCF_EXTRAPO          IRPP           ON          [  1]    ***   
       SCF_MAXCYC           ISCFCY            150              cycles 
       SCF_NOSTOP           ISCFST         OFF         [  0]    ***   
       SCF_PRINT            ISCFPR              0               ***   
       SCF_PROG             ISCFPR         SCF         [  0]    ***   
       SD_FIELD             IFINSD              0             x 10-6  
       SOPERT               IPERSO         OFF         [  0]    ***   
       SPHERICAL            IDFGHI         ON          [  1]    ***   
       SPINORBIT            ISOCAL         OFF         [  0]    ***   
       SPINROTATIO          ISRCON         OFF         [  0]    ***   
       SPIN_FLIP            ISPFLP         OFF         [  0]    ***   
       SPIN_ORBIT           ISPORB         OFF         [  0]    ***   
       SPIN_SCAL            ISCSMP         OFF         [  0]    ***   
       STEEPSCALE           ISTPSC              1000          x 10-3  
       SUBGROUP             ISUBGP         DEFAULT     [  0]    ***   
       SUBGRPAXIS           ISBXYZ         X           [  0]    ***   
       SYMMETRY             ISYM           ON          [  0]    ***   
       SYM_CHECK            ISYMCK         OVERRIDE    [  1]    ***   
       T3_EXTRAPOL          IT3EXT         OFF         [  0]    ***   
       T4_EXTRAPOL          IT4EXP         OFF         [  0]    ***   
       TAMP_SUM             IEVERY              5               ***   
       TESTSUITE            ITESTS         OFF         [  0]    ***   
       THERMOCH             ITHERM         OFF         [  0]    ***   
       TOL_CHOLESK          ITOLCH          10D-  4             ***   
       TRANGRAD             IRESRM         OFF         [  0]    ***   
       TRANS_INV            ITRAIN         IGNORE      [  1]    ***   
       TREAT_PERT           ITREAT         SIMULTANEOUS[  0]    ***   
       TRIP_ALGORI          ITRALG         NORMAL      [  0]    ***   
       UIJ_THRESHO          IUIJTH              1               ***   
       UNITS                IUNITS         ANGSTROM    [  0]    ***   
       UNOS                 IUNOS          OFF         [  0]    ***   
       UPDATE_HESS          IHUPDT         ON          [  1]    ***   
       VIBPHASE             ISETPH         STANDARD    [  0]    ***   
       VIBRATION            IVIB           ANALYTIC    [  1]    ***   
       VIB_ALGORIT          IGEALG         STANDARD    [  0]    ***   
       VNATORB              IVNORB         OFF         [  0]    ***   
       VTRAN                IVTRAN         FULL/PARTIAL[  0]    ***   
       XFIELD               IXEFLD              0             x 10-6  
       XFORM_TOL            IXFTOL          10D- 11             ***   
       YFIELD               IYEFLD              0             x 10-6  
       ZFIELD               IZEFLD            200             x 10-6  
       ZSCALE_EXP           IZEXPS         OFF         [  0]    ***   
    -------------------------------------------------------------------
   2 entries found in Z-matrix 
   Job Title : Carbon Monoxide DBOC calculation                                                
   There are  1 unique internal coordinates.
   Of these,  0 will be optimized.
   User supplied Z-matrix: 
--------------------------------------------------------------------------------
       SYMBOL    BOND      LENGTH    ANGLE     ANGLE     DIHED     ANGLE
                  TO      (ANGST)    WRT      (DEG)      WRT      (DEG)
--------------------------------------------------------------------------------
        C    
        O          1         r    
                  *Initial values for internal coordinates* 
                      Name             Value
                        r               1.2103448276
--------------------------------------------------------------------------------
  read isotopes from ZMAT file 
   Rotational constants (in cm-1): 
          1.6044014995             1.6044014995
   Rotational constants (in MHz): 
      48098.7536552511         48098.7536552511
********************************************************************************
   The full molecular point group is CXv .
   The largest Abelian subgroup of the full molecular point group is C2v .
   The computational point group is C2v .
********************************************************************************
--------------------------------------------------------------------------------
   Analysis of internal coordinates specified by Z-matrix 
--------------------------------------------------------------------------------
   *The nuclear repulsion energy is   20.986168752136749 a.u.
   *There is   1 degree of freedom within the tot. symm. molecular subspace.
   *Z-matrix requests optimization of   0 coordinates.
   *The optimization is constrained.
   *The following   1 parameters can have non-zero 
    derivatives within the totally symmetric subspace:
             r    [ 1]
   *The following   0 parameters are to be optimized:

   *The following coordinates must be varied in an  unconstrained optimization.
             r    [ 1]
--------------------------------------------------------------------------------


 ----------------------------------------------------------------
         Coordinates used in calculation (QCOMP) 
 ----------------------------------------------------------------
 Z-matrix   Atomic            Coordinates (in bohr)
  Symbol    Number           X              Y              Z
 ----------------------------------------------------------------
     C         6        -0.00000000     0.00000000     1.26158908
     O         8         0.00000000     0.00000000    -1.02563164
 ----------------------------------------------------------------
 
   Interatomic distance matrix (Angstroms) 
 
                 C             O    
                [ 1]        [ 2]
  C    [ 1]     0.00000
  O    [ 2]     1.21035     0.00000
 rotcon2
   Rotational constants (in cm-1): 
          1.6044014995             0.0000000000
   Rotational constants (in MHz): 
      48098.7536552511             0.0000000000
  ECPDATA file not present.   Using default ECPDATA. 
  @GTFLGS-I, Hessian will be transformed to curvilinear coordinates.
  There are  218 basis functions.
 @CHECKOUT-I, Total execution time (CPU/WALL):        0.12/       0.15 seconds.
--executable xjoda finished with status     0 in        0.18 seconds (walltime).
 --invoking executable--
/nfs/workspaces/public/cfour_mpi/bin/xvmol
 SERIAL VERSION OF MOLECULE STARTED
********************************************************************************
                    INPUT FROM MOL FILE
********************************************************************************
INTGRL        1    0    1    0    0    0    0    0    0                         
         *** CFOUR Program System (Release V0.1) ***                            
Carbon Monoxide DBOC calculation                                                
    2    2 X  Y       0.10E-08              0    0                              
   9999.00      3.00                                                            
          6.00000000    1    5    1    1    1    1    1                         
C #1  -0.000000000000000   0.000000000000000   1.261589082388488                
   16    9                                                                      
   33980.0000000000       9.100000000000000E-005 -1.900000000000000E-005        
  0.000000000000000E+000  0.000000000000000E+000  0.000000000000000E+000        
  0.000000000000000E+000  0.000000000000000E+000  0.000000000000000E+000        
  0.000000000000000E+000                                                        
   5089.00000000000       7.040000000000000E-004 -1.510000000000000E-004        
  0.000000000000000E+000  0.000000000000000E+000  0.000000000000000E+000        
  0.000000000000000E+000  0.000000000000000E+000  0.000000000000000E+000        
  0.000000000000000E+000                                                        
   1157.00000000000       3.693000000000000E-003 -7.850000000000000E-004        
  0.000000000000000E+000  0.000000000000000E+000  0.000000000000000E+000        
  0.000000000000000E+000  0.000000000000000E+000  0.000000000000000E+000        
  0.000000000000000E+000                                                        
   326.600000000000       1.536000000000000E-002 -3.324000000000000E-003        
  0.000000000000000E+000  0.000000000000000E+000  0.000000000000000E+000        
  0.000000000000000E+000  0.000000000000000E+000  0.000000000000000E+000        
  0.000000000000000E+000                                                        
   106.100000000000       5.292900000000000E-002 -1.151200000000000E-002        
  0.000000000000000E+000  0.000000000000000E+000  0.000000000000000E+000        
  0.000000000000000E+000  0.000000000000000E+000  0.000000000000000E+000        
  0.000000000000000E+000                                                        
   38.1100000000000       0.147043000000000      -3.416000000000000E-002        
  0.000000000000000E+000  0.000000000000000E+000  0.000000000000000E+000        
  0.000000000000000E+000  0.000000000000000E+000  0.000000000000000E+000        
  0.000000000000000E+000                                                        
   14.7500000000000       0.305631000000000      -7.717300000000001E-002        
  0.000000000000000E+000  0.000000000000000E+000  0.000000000000000E+000        
  0.000000000000000E+000  0.000000000000000E+000  0.000000000000000E+000        
  0.000000000000000E+000                                                        
   6.03500000000000       0.399345000000000      -0.141493000000000             
  0.000000000000000E+000  0.000000000000000E+000  0.000000000000000E+000        
  0.000000000000000E+000  0.000000000000000E+000  0.000000000000000E+000        
  0.000000000000000E+000                                                        
   2.53000000000000       0.217051000000000      -0.118019000000000             
  0.000000000000000E+000  0.000000000000000E+000  0.000000000000000E+000        
  0.000000000000000E+000  0.000000000000000E+000  0.000000000000000E+000        
  0.000000000000000E+000                                                        
  0.735500000000000       1.589400000000000E-002  0.273806000000000             
   1.00000000000000       0.000000000000000E+000  0.000000000000000E+000        
  0.000000000000000E+000  0.000000000000000E+000  0.000000000000000E+000        
  0.000000000000000E+000                                                        
  0.290500000000000      -3.084000000000000E-003  0.586510000000000             
  0.000000000000000E+000   1.00000000000000       0.000000000000000E+000        
  0.000000000000000E+000  0.000000000000000E+000  0.000000000000000E+000        
  0.000000000000000E+000                                                        
  0.111100000000000       9.779999999999999E-004  0.285430000000000             
  0.000000000000000E+000  0.000000000000000E+000   1.00000000000000             
  0.000000000000000E+000  0.000000000000000E+000  0.000000000000000E+000        
  0.000000000000000E+000                                                        
   7.21600000000000       0.000000000000000E+000  0.000000000000000E+000        
  0.000000000000000E+000  0.000000000000000E+000  0.000000000000000E+000        
   1.00000000000000       0.000000000000000E+000  0.000000000000000E+000        
  0.000000000000000E+000                                                        
   19.5700000000000       0.000000000000000E+000  0.000000000000000E+000        
  0.000000000000000E+000  0.000000000000000E+000  0.000000000000000E+000        
  0.000000000000000E+000   1.00000000000000       0.000000000000000E+000        
  0.000000000000000E+000                                                        
   53.0730000000000       0.000000000000000E+000  0.000000000000000E+000        
  0.000000000000000E+000  0.000000000000000E+000  0.000000000000000E+000        
  0.000000000000000E+000  0.000000000000000E+000   1.00000000000000             
  0.000000000000000E+000                                                        
  4.145000000000000E-002  0.000000000000000E+000  0.000000000000000E+000        
  0.000000000000000E+000  0.000000000000000E+000  0.000000000000000E+000        
  0.000000000000000E+000  0.000000000000000E+000  0.000000000000000E+000        
   1.00000000000000                                                             
   10    8                                                                      
   34.5100000000000       5.378000000000000E-003  0.000000000000000E+000        
  0.000000000000000E+000  0.000000000000000E+000  0.000000000000000E+000        
  0.000000000000000E+000  0.000000000000000E+000  0.000000000000000E+000        
   7.91500000000000       3.613200000000000E-002  0.000000000000000E+000        
  0.000000000000000E+000  0.000000000000000E+000  0.000000000000000E+000        
  0.000000000000000E+000  0.000000000000000E+000  0.000000000000000E+000        
   2.36800000000000       0.142493000000000       0.000000000000000E+000        
  0.000000000000000E+000  0.000000000000000E+000  0.000000000000000E+000        
  0.000000000000000E+000  0.000000000000000E+000  0.000000000000000E+000        
  0.813200000000000       0.342150000000000        1.00000000000000             
  0.000000000000000E+000  0.000000000000000E+000  0.000000000000000E+000        
  0.000000000000000E+000  0.000000000000000E+000  0.000000000000000E+000        
  0.289000000000000       0.463864000000000       0.000000000000000E+000        
   1.00000000000000       0.000000000000000E+000  0.000000000000000E+000        
  0.000000000000000E+000  0.000000000000000E+000  0.000000000000000E+000        
  0.100700000000000       0.250028000000000       0.000000000000000E+000        
  0.000000000000000E+000   1.00000000000000       0.000000000000000E+000        
  0.000000000000000E+000  0.000000000000000E+000  0.000000000000000E+000        
   8.18200000000000       0.000000000000000E+000  0.000000000000000E+000        
  0.000000000000000E+000  0.000000000000000E+000   1.00000000000000             
  0.000000000000000E+000  0.000000000000000E+000  0.000000000000000E+000        
   24.1860000000000       0.000000000000000E+000  0.000000000000000E+000        
  0.000000000000000E+000  0.000000000000000E+000  0.000000000000000E+000        
   1.00000000000000       0.000000000000000E+000  0.000000000000000E+000        
   71.4940000000000       0.000000000000000E+000  0.000000000000000E+000        
  0.000000000000000E+000  0.000000000000000E+000  0.000000000000000E+000        
  0.000000000000000E+000   1.00000000000000       0.000000000000000E+000        
  3.218000000000000E-002  0.000000000000000E+000  0.000000000000000E+000        
  0.000000000000000E+000  0.000000000000000E+000  0.000000000000000E+000        
  0.000000000000000E+000  0.000000000000000E+000   1.00000000000000             
    6    6                                                                      
   1.84800000000000        1.00000000000000       0.000000000000000E+000        
  0.000000000000000E+000  0.000000000000000E+000  0.000000000000000E+000        
  0.000000000000000E+000                                                        
  0.649000000000000       0.000000000000000E+000   1.00000000000000             
  0.000000000000000E+000  0.000000000000000E+000  0.000000000000000E+000        
  0.000000000000000E+000                                                        
  0.228000000000000       0.000000000000000E+000  0.000000000000000E+000        
   1.00000000000000       0.000000000000000E+000  0.000000000000000E+000        
  0.000000000000000E+000                                                        
   8.65600000000000       0.000000000000000E+000  0.000000000000000E+000        
  0.000000000000000E+000   1.00000000000000       0.000000000000000E+000        
  0.000000000000000E+000                                                        
   33.2130000000000       0.000000000000000E+000  0.000000000000000E+000        
  0.000000000000000E+000  0.000000000000000E+000   1.00000000000000             
  0.000000000000000E+000                                                        
  7.660000000000000E-002  0.000000000000000E+000  0.000000000000000E+000        
  0.000000000000000E+000  0.000000000000000E+000  0.000000000000000E+000        
   1.00000000000000                                                             
    4    4                                                                      
   1.41900000000000        1.00000000000000       0.000000000000000E+000        
  0.000000000000000E+000  0.000000000000000E+000                                
  0.485000000000000       0.000000000000000E+000   1.00000000000000             
  0.000000000000000E+000  0.000000000000000E+000                                
   24.6940000000000       0.000000000000000E+000  0.000000000000000E+000        
   1.00000000000000       0.000000000000000E+000                                
  0.187000000000000       0.000000000000000E+000  0.000000000000000E+000        
  0.000000000000000E+000   1.00000000000000                                     
    2    2                                                                      
   1.01100000000000        1.00000000000000       0.000000000000000E+000        
  0.424000000000000       0.000000000000000E+000   1.00000000000000             
          8.00000000    1    5    1    1    1    1    1                         
O #2   0.000000000000000   0.000000000000000  -1.025631637454089                
   16    9                                                                      
   61420.0000000000       9.000000000000001E-005 -2.000000000000000E-005        
  0.000000000000000E+000  0.000000000000000E+000  0.000000000000000E+000        
  0.000000000000000E+000  0.000000000000000E+000  0.000000000000000E+000        
  0.000000000000000E+000                                                        
   9199.00000000000       6.980000000000001E-004 -1.590000000000000E-004        
  0.000000000000000E+000  0.000000000000000E+000  0.000000000000000E+000        
  0.000000000000000E+000  0.000000000000000E+000  0.000000000000000E+000        
  0.000000000000000E+000                                                        
   2091.00000000000       3.664000000000000E-003 -8.290000000000000E-004        
  0.000000000000000E+000  0.000000000000000E+000  0.000000000000000E+000        
  0.000000000000000E+000  0.000000000000000E+000  0.000000000000000E+000        
  0.000000000000000E+000                                                        
   590.900000000000       1.521800000000000E-002 -3.508000000000000E-003        
  0.000000000000000E+000  0.000000000000000E+000  0.000000000000000E+000        
  0.000000000000000E+000  0.000000000000000E+000  0.000000000000000E+000        
  0.000000000000000E+000                                                        
   192.300000000000       5.242300000000000E-002 -1.215600000000000E-002        
  0.000000000000000E+000  0.000000000000000E+000  0.000000000000000E+000        
  0.000000000000000E+000  0.000000000000000E+000  0.000000000000000E+000        
  0.000000000000000E+000                                                        
   69.3200000000000       0.145921000000000      -3.626100000000000E-002        
  0.000000000000000E+000  0.000000000000000E+000  0.000000000000000E+000        
  0.000000000000000E+000  0.000000000000000E+000  0.000000000000000E+000        
  0.000000000000000E+000                                                        
   26.9700000000000       0.305258000000000      -8.299200000000000E-002        
  0.000000000000000E+000  0.000000000000000E+000  0.000000000000000E+000        
  0.000000000000000E+000  0.000000000000000E+000  0.000000000000000E+000        
  0.000000000000000E+000                                                        
   11.1000000000000       0.398508000000000      -0.152090000000000             
  0.000000000000000E+000  0.000000000000000E+000  0.000000000000000E+000        
  0.000000000000000E+000  0.000000000000000E+000  0.000000000000000E+000        
  0.000000000000000E+000                                                        
   4.68200000000000       0.216980000000000      -0.115331000000000             
  0.000000000000000E+000  0.000000000000000E+000  0.000000000000000E+000        
  0.000000000000000E+000  0.000000000000000E+000  0.000000000000000E+000        
  0.000000000000000E+000                                                        
   1.42800000000000       1.759400000000000E-002  0.288979000000000             
   1.00000000000000       0.000000000000000E+000  0.000000000000000E+000        
  0.000000000000000E+000  0.000000000000000E+000  0.000000000000000E+000        
  0.000000000000000E+000                                                        
  0.554700000000000      -2.502000000000000E-003  0.586128000000000             
  0.000000000000000E+000   1.00000000000000       0.000000000000000E+000        
  0.000000000000000E+000  0.000000000000000E+000  0.000000000000000E+000        
  0.000000000000000E+000                                                        
  0.206700000000000       9.540000000000000E-004  0.277624000000000             
  0.000000000000000E+000  0.000000000000000E+000   1.00000000000000             
  0.000000000000000E+000  0.000000000000000E+000  0.000000000000000E+000        
  0.000000000000000E+000                                                        
   12.9740000000000       0.000000000000000E+000  0.000000000000000E+000        
  0.000000000000000E+000  0.000000000000000E+000  0.000000000000000E+000        
   1.00000000000000       0.000000000000000E+000  0.000000000000000E+000        
  0.000000000000000E+000                                                        
   34.9000000000000       0.000000000000000E+000  0.000000000000000E+000        
  0.000000000000000E+000  0.000000000000000E+000  0.000000000000000E+000        
  0.000000000000000E+000   1.00000000000000       0.000000000000000E+000        
  0.000000000000000E+000                                                        
   93.8810000000000       0.000000000000000E+000  0.000000000000000E+000        
  0.000000000000000E+000  0.000000000000000E+000  0.000000000000000E+000        
  0.000000000000000E+000  0.000000000000000E+000   1.00000000000000             
  0.000000000000000E+000                                                        
  6.959000000000000E-002  0.000000000000000E+000  0.000000000000000E+000        
  0.000000000000000E+000  0.000000000000000E+000  0.000000000000000E+000        
  0.000000000000000E+000  0.000000000000000E+000  0.000000000000000E+000        
   1.00000000000000                                                             
   10    8                                                                      
   63.4200000000000       6.044000000000000E-003  0.000000000000000E+000        
  0.000000000000000E+000  0.000000000000000E+000  0.000000000000000E+000        
  0.000000000000000E+000  0.000000000000000E+000  0.000000000000000E+000        
   14.6600000000000       4.179900000000000E-002  0.000000000000000E+000        
  0.000000000000000E+000  0.000000000000000E+000  0.000000000000000E+000        
  0.000000000000000E+000  0.000000000000000E+000  0.000000000000000E+000        
   4.45900000000000       0.161143000000000       0.000000000000000E+000        
  0.000000000000000E+000  0.000000000000000E+000  0.000000000000000E+000        
  0.000000000000000E+000  0.000000000000000E+000  0.000000000000000E+000        
   1.53100000000000       0.356731000000000        1.00000000000000             
  0.000000000000000E+000  0.000000000000000E+000  0.000000000000000E+000        
  0.000000000000000E+000  0.000000000000000E+000  0.000000000000000E+000        
  0.530200000000000       0.448309000000000       0.000000000000000E+000        
   1.00000000000000       0.000000000000000E+000  0.000000000000000E+000        
  0.000000000000000E+000  0.000000000000000E+000  0.000000000000000E+000        
  0.175000000000000       0.244940000000000       0.000000000000000E+000        
  0.000000000000000E+000   1.00000000000000       0.000000000000000E+000        
  0.000000000000000E+000  0.000000000000000E+000  0.000000000000000E+000        
   14.4750000000000       0.000000000000000E+000  0.000000000000000E+000        
  0.000000000000000E+000  0.000000000000000E+000   1.00000000000000             
  0.000000000000000E+000  0.000000000000000E+000  0.000000000000000E+000        
   42.7300000000000       0.000000000000000E+000  0.000000000000000E+000        
  0.000000000000000E+000  0.000000000000000E+000  0.000000000000000E+000        
   1.00000000000000       0.000000000000000E+000  0.000000000000000E+000        
   126.140000000000       0.000000000000000E+000  0.000000000000000E+000        
  0.000000000000000E+000  0.000000000000000E+000  0.000000000000000E+000        
  0.000000000000000E+000   1.00000000000000       0.000000000000000E+000        
  5.348000000000000E-002  0.000000000000000E+000  0.000000000000000E+000        
  0.000000000000000E+000  0.000000000000000E+000  0.000000000000000E+000        
  0.000000000000000E+000  0.000000000000000E+000   1.00000000000000             
    6    6                                                                      
   3.77500000000000        1.00000000000000       0.000000000000000E+000        
  0.000000000000000E+000  0.000000000000000E+000  0.000000000000000E+000        
  0.000000000000000E+000                                                        
   1.30000000000000       0.000000000000000E+000   1.00000000000000             
  0.000000000000000E+000  0.000000000000000E+000  0.000000000000000E+000        
  0.000000000000000E+000                                                        
  0.444000000000000       0.000000000000000E+000  0.000000000000000E+000        
   1.00000000000000       0.000000000000000E+000  0.000000000000000E+000        
  0.000000000000000E+000                                                        
   14.9270000000000       0.000000000000000E+000  0.000000000000000E+000        
  0.000000000000000E+000   1.00000000000000       0.000000000000000E+000        
  0.000000000000000E+000                                                        
   57.5440000000000       0.000000000000000E+000  0.000000000000000E+000        
  0.000000000000000E+000  0.000000000000000E+000   1.00000000000000             
  0.000000000000000E+000                                                        
  0.154000000000000       0.000000000000000E+000  0.000000000000000E+000        
  0.000000000000000E+000  0.000000000000000E+000  0.000000000000000E+000        
   1.00000000000000                                                             
    4    4                                                                      
   2.66600000000000        1.00000000000000       0.000000000000000E+000        
  0.000000000000000E+000  0.000000000000000E+000                                
  0.859000000000000       0.000000000000000E+000   1.00000000000000             
  0.000000000000000E+000  0.000000000000000E+000                                
   26.4830000000000       0.000000000000000E+000  0.000000000000000E+000        
   1.00000000000000       0.000000000000000E+000                                
  0.324000000000000       0.000000000000000E+000  0.000000000000000E+000        
  0.000000000000000E+000   1.00000000000000                                     
    2    2                                                                      
   1.84600000000000        1.00000000000000       0.000000000000000E+000        
  0.714000000000000       0.000000000000000E+000   1.00000000000000             
FINISH                                                                          
 
********************************************************************************
 ONE- AND TWO-ELECTRON INTEGRALS OVER SYMMETRY-ADAPTED AOS ARE CALCULATED.

  SPHERICAL HARMONICS ARE USED.
  
  INTEGRALS LESS THAN  0.10E-13 ARE NEGLECTED.

  NUCLEAR REPULSION ENERGY :   20.9861687521 A.U.
  @MOLECU-I, ONE ELECTRON INTEGRALS (CPU/WALL):        0.06/       0.06 SECONDS.
  @TWOEL-I,    4560217 INTEGRALS OF SYMMETRY TYPE  I I I I
  @TWOEL-I,   19597625 INTEGRALS OF SYMMETRY TYPE  I J I J
  @TWOEL-I,   10326678 INTEGRALS OF SYMMETRY TYPE  I I J J
  @TWOEL-I,   14500337 INTEGRALS OF SYMMETRY TYPE  I J K L
  @TWOEL-I, TOTAL NUMBER OF 2-E INTEGRALS   48984857.
  @MOLECU-I, TWO ELECTRON INTEGRALS (CPU/WALL):      144.77/      19.42 SECONDS.
 @CHECKOUT-I, Total execution time (CPU/WALL):      144.85/      19.50 seconds.

Running with 14 threads/proc

--executable xvmol finished with status     0 in       19.54 seconds (walltime).
 --invoking executable--
/nfs/workspaces/public/cfour_mpi/bin/xvmol2ja
 @GETMEM-I,  Allocated    3814 MB of main memory.
 @CHECKOUT-I, Total execution time (CPU/WALL):        0.15/       0.03 seconds.
--executable xvmol2ja finished with status     0 in        0.05 seconds (walltime).
 --invoking executable--
/nfs/workspaces/public/cfour_mpi/bin/xvprop
 @GETMEM-I,  Allocated    3814 MB of main memory.
   Property integrals will be calculated.
    --------------------------------------------------------------
                                   Property evaluated at 
    Property type                X             Y             Z
    --------------------------------------------------------------
    Dipole moment               ----          ----          ----  
    Quadrupole moment           ----          ----          ----  
    Octopole moment             ----          ----          ----  
    Relativisitic corr.         ----          ----          ----  
    Second moment            0.0000000     0.0000000     0.0000000
    Electron density         0.0000000     0.0000000     1.2615891
    Electron density         0.0000000     0.0000000    -1.0256316
    Field gradient           0.0000000     0.0000000     1.2615891
    Field gradient           0.0000000     0.0000000    -1.0256316
    Potential                0.0000000     0.0000000     1.2615891
    Potential                0.0000000     0.0000000    -1.0256316
    --------------------------------------------------------------
 @CHECKOUT-I, Total execution time (CPU/WALL):        1.29/       1.29 seconds.
--executable xvprop finished with status     0 in        1.31 seconds (walltime).
 --invoking executable--
/nfs/workspaces/public/cfour_mpi/bin/xvscf
  There are  218 functions in the AO basis.

  There are 4 irreducible representations.

       Irrep        # of functions
         1                 86
         2                 52
         3                 52
         4                 28


  Parameters for SCF calculation: 
        SCF reference function:  RHF  
  Maximum number of iterations:  150
     Full symmetry point group: CXv 
     Computational point group: C2v 
        Initial density matrix: MOREAD                 
     SCF convergence tolerance: 10**(-10)
  DIIS convergence acceleration:  ON
          Latest start for DIIS:   8
                     DIIS order:   6

  Memory information:    2523578 words required.
  Fock matrices are constructed from AO integral file.
 @GETMEM-I,  Allocated      19 MB of main memory.
  Initialization and symmetry analysis required      0.001 seconds.

  Adding electric field perturbation to one-electron Hamiltonian.
  Field direction     : Z
  Field strength      :  0.0002000 a.u.

  @INITGES-I, Occupancies from core Hamiltonian:

          Alpha population by irrep:   5    1    1    0
           Beta population by irrep:   5    1    1    0


 total no. of electrons in initial guess :  0.000000000000000E+000
  --------------------------------------------------------------------
  Iteration         Total Energy            Largest Density Difference
  --------------------------------------------------------------------
       0            20.986295855857481              0.0000000000D+00
   current occupation vector 
     5  1  1  0
     5  1  1  0
       1           -92.349131063211786              0.1826995137D+02
   current occupation vector 
     5  1  1  0
     5  1  1  0
       2           -97.762266660449569              0.1826543480D+02
   current occupation vector 
     5  1  1  0
     5  1  1  0
       3          -103.505867802796459              0.9531863895D+01
   current occupation vector 
     5  1  1  0
     5  1  1  0
       4           -99.970776880154730              0.7315347753D+01
   current occupation vector 
     5  1  1  0
     5  1  1  0
       5          -102.625263230883988              0.6049807731D+01
   current occupation vector 
     5  1  1  0
     5  1  1  0
       6           -99.354171058576739              0.5878880419D+01
   current occupation vector 
     5  1  1  0
     5  1  1  0
       7          -102.612697604410954              0.5902022127D+01
   current occupation vector 
     5  1  1  0
     5  1  1  0
       8           -99.236306858272087              0.5896404171D+01
   current occupation vector 
     5  1  1  0
     5  1  1  0
       9          -110.115387036636477              0.4461953645D+01
   current occupation vector 
     5  1  1  0
     5  1  1  0
      10          -111.929125906788116              0.1045852425D+01
   current occupation vector 
     5  1  1  0
     5  1  1  0
      11          -112.722346248342163              0.6046745443D+00
   current occupation vector 
     5  1  1  0
     5  1  1  0
      12          -112.764606434002090              0.1553185241D+00
   current occupation vector 
     5  1  1  0
     5  1  1  0
      13          -112.765624635109717              0.3922333099D-01
   current occupation vector 
     5  1  1  0
     5  1  1  0
      14          -112.765777074907575              0.1722697799D-01
   current occupation vector 
     5  1  1  0
     5  1  1  0
      15          -112.765797551201146              0.8890091803D-02
   current occupation vector 
     5  1  1  0
     5  1  1  0
      16          -112.765797759803618              0.6464131548D-03
   current occupation vector 
     5  1  1  0
     5  1  1  0
      17          -112.765797768466896              0.1294822847D-03
   current occupation vector 
     5  1  1  0
     5  1  1  0
      18          -112.765797768777148              0.3031882651D-04
   current occupation vector 
     5  1  1  0
     5  1  1  0
      19          -112.765797768791273              0.6193009556D-05
   current occupation vector 
     5  1  1  0
     5  1  1  0
      20          -112.765797768789795              0.1061895745D-05
   current occupation vector 
     5  1  1  0
     5  1  1  0
      21          -112.765797768790279              0.1287195619D-06
   current occupation vector 
     5  1  1  0
     5  1  1  0
      22          -112.765797768790648              0.2738569527D-07
   current occupation vector 
     5  1  1  0
     5  1  1  0
      23          -112.765797768791131              0.1481602596D-07
   current occupation vector 
     5  1  1  0
     5  1  1  0
      24          -112.765797768791046              0.2466814530D-09
   current occupation vector 
     5  1  1  0
     5  1  1  0
      25          -112.765797768789596              0.1687845419D-09
   current occupation vector 
     5  1  1  0
     5  1  1  0
      26          -112.765797768791671              0.1961546481D-09
   current occupation vector 
     5  1  1  0
     5  1  1  0

  SCF has converged.

 Density matrix saved to file den.dat
 total electron number:   13.9999999999999     
     E(SCF)=      -112.765797768790904              0.4735933867D-10

  Eigenvector printing suppressed.

 @PUTMOS-I, Writing converged MOs to NEWMOS. 
 @PUTMOS-I, Symmetry   1 Full Blocks 21 Partial Blocksize   2
 @PUTMOS-I, Symmetry   2 Full Blocks 13 Partial Blocksize   0
 @PUTMOS-I, Symmetry   3 Full Blocks 13 Partial Blocksize   0
 @PUTMOS-I, Symmetry   4 Full Blocks  7 Partial Blocksize   0
 @PUTFOCK-I, Writing converged Fock matrix to NEWFOCK. 
 @PUTFOCK-I, Symmetry   1 Full Blocks 21 Partial Blocksize   2
 @PUTFOCK-I, Symmetry   2 Full Blocks 13 Partial Blocksize   0
 @PUTFOCK-I, Symmetry   3 Full Blocks 13 Partial Blocksize   0
 @PUTFOCK-I, Symmetry   4 Full Blocks  7 Partial Blocksize   0


 
  ORBITAL EIGENVALUES (ALPHA)  (1H = 27.2113834 eV)

       MO #        E(hartree)               E(eV)           FULLSYM    COMPSYM
       ----   --------------------   --------------------   -------   ---------
    1     1         -20.6667583492        -562.3710850747     SG+        A1 (1)
    2     2         -11.3965419080        -310.1156712932     SG+        A1 (1)
    3     3          -1.4668595793         -39.9152784063     SG+        A1 (1)
    4     4          -0.7981592460         -21.7190172579     SG+        A1 (1)
    5   139          -0.6067288092         -16.5099302469      PI        B2 (3)
    6    87          -0.6067288092         -16.5099302469      PI        B1 (2)
    7     5          -0.5624318358         -15.3045483191     SG+        A1 (1)
  +++++++++++++++++++++++++++++++++++++++++++++++++++++++++++++++++++++++++++++
    8    88           0.0592603688           1.6125566149      PI        B1 (2)
    9   140           0.0592603688           1.6125566149      PI        B2 (3)
   10     6           0.0611056707           1.6627698329     SG+        A1 (1)
   11     7           0.0739752280           2.0129682922     SG+        A1 (1)
   12    89           0.1207144417           3.2848069539      PI        B1 (2)
   13   141           0.1207144417           3.2848069539      PI        B2 (3)
   14     8           0.1561435327           4.2488815334     SG+        A1 (1)
   15   142           0.1664215312           4.5285600922      PI        B2 (3)
   16    90           0.1664215312           4.5285600922      PI        B1 (2)
   17     9           0.2277647241           6.1977932333      DE        A1 (1)
   18   191           0.2277647241           6.1977932333      DE        A2 (4)
   19    10           0.2283226947           6.2129763845     SG+        A1 (1)
   20    11           0.3006194474           8.1802710396     SG+        A1 (1)
   21   143           0.3129768944           8.5165342694      PI        B2 (3)
   22    91           0.3129768944           8.5165342694      PI        B1 (2)
   23    12           0.3885891682          10.5740488421     SG+        A1 (1)
   24   144           0.3952976499          10.7565959082      PI        B2 (3)
   25    92           0.3952976499          10.7565959082      PI        B1 (2)
   26    13           0.5086049936          13.8398454792     SG+        A1 (1)
   27    14           0.5393309588          14.6759414981      DE        A1 (1)
   28   192           0.5393309588          14.6759414981      DE        A2 (4)
   29    15           0.6138734641          16.7043461896     SG+        A1 (1)
   30    93           0.6247550095          17.0004480933      PI        B1 (2)
   31   145           0.6247550095          17.0004480933      PI        B2 (3)
   32   146           0.7470563307          20.3284362370      PH        B2 (3)
   33    94           0.7470563307          20.3284362370      PH        B1 (2)
   34   193           0.7650341602          20.8176378462      DE        A2 (4)
   35    16           0.7650341602          20.8176378462      DE        A1 (1)
   36    17           0.7768185153          21.1383064518     SG+        A1 (1)
   37   147           0.8137623301          22.1435987604      PI        B2 (3)
   38    95           0.8137623301          22.1435987604      PI        B1 (2)
   39    18           0.8578810038          23.3441289065     SG+        A1 (1)
   40    19           0.8762166094          23.8430661007     SG+        A1 (1)
   41   194           0.8862762296          24.1168022825      DE        A2 (4)
   42    20           0.8862762296          24.1168022825      DE        A1 (1)
   43   148           0.8875577299          24.1516736786      PI        B2 (3)
   44    96           0.8875577299          24.1516736786      PI        B1 (2)
   45   149           1.0595754775          28.8325145601      PI        B2 (3)
   46    97           1.0595754775          28.8325145601      PI        B1 (2)
   47    21           1.1488734242          31.2624352237     SG+        A1 (1)
   48   150           1.4414138217          39.2228641399      PH        B2 (3)
   49    98           1.4414138217          39.2228641399      PH        B1 (2)
   50    22           1.4456136368          39.3371469206     SG+        A1 (1)
   51    23           1.5309988713          41.6605972719      DE        A1 (1)
   52   195           1.5309988713          41.6605972719      DE        A2 (4)
   53    99           1.5648705794          42.5822933063      PI        B1 (2)
   54   151           1.5648705794          42.5822933063      PI        B2 (3)
   55    24           1.6650170851          45.3074182702     SG+        A1 (1)
   56   100           1.7433205680          47.4381643649      PI        B1 (2)
   57   152           1.7433205680          47.4381643649      PI        B2 (3)
   58   196           1.7568191432          47.8054792693      DE        A2 (4)
   59    25           1.7568191432          47.8054792693      DE        A1 (1)
   60    26           1.8006022678          48.9968786607     SG+        A1 (1)
   61   153           2.0076995525          54.6322822761      PI        B2 (3)
   62   101           2.0076995525          54.6322822761      PI        B1 (2)
   63    27           2.0875549826          56.8052589994     SG+        A1 (1)
   64   197           2.0999889586          57.1436046890      PI        A2 (4)
   65    28           2.0999889586          57.1436046890      PI        A1 (1)
   66   198           2.1801924455          59.3260525212      DE        A2 (4)
   67    29           2.1801924455          59.3260525212      DE        A1 (1)
   68   102           2.2448140782          61.0844965424      PH        B1 (2)
   69   154           2.2448140782          61.0844965424      PH        B2 (3)
   70   155           2.3079185718          62.8016571144      PI        B2 (3)
   71   103           2.3079185718          62.8016571144      PI        B1 (2)
   72    30           2.3085405061          62.8185808046     SG+        A1 (1)
   73   104           2.3334352006          63.4959998834      PH        B1 (2)
   74   156           2.3334352006          63.4959998834      PH        B2 (3)
   75    31           2.3512376417          63.9804289316      DE        A1 (1)
   76   199           2.3512376417          63.9804289316      DE        A2 (4)
   77    32           2.4816861545          67.5301134282     SG+        A1 (1)
   78   157           2.5772632817          70.1308992818      PI        B2 (3)
   79   105           2.5772632817          70.1308992818      PI        B1 (2)
   80   106           2.7627423799          75.1780421337      PI        B1 (2)
   81   158           2.7627423799          75.1780421338      PI        B2 (3)
   82    33           2.8280449548          76.9550155382     SG+        A1 (1)
   83   200           2.9393211498          79.9829947422      DE        A2 (4)
   84    34           2.9393211498          79.9829947424      DE        A1 (1)
   85    35           3.4751637359          94.5640127949     SG+        A1 (1)
   86    36           3.7113242736         100.9902677314      PI        A1 (1)
   87   201           3.7113242736         100.9902677314      PI        A2 (4)
   88   159           3.7149807385         101.0897651986      PI        B2 (3)
   89   107           3.7149807385         101.0897651987      PI        B1 (2)
   90    37           3.9180075233         106.6144048812     SG+        A1 (1)
   91   108           4.0877601054         111.2336074760      PH        B1 (2)
   92   160           4.0877601054         111.2336074760      PH        B2 (3)
   93    38           4.1858307783         113.9022461548      DE        A1 (1)
   94   202           4.1858307783         113.9022461548      DE        A2 (4)
   95   109           4.2014637633         114.3276413039      PH        B1 (2)
   96   161           4.2014637633         114.3276413039      PH        B2 (3)
   97   110           4.2015073649         114.3288277644      PI        B1 (2)
   98   162           4.2015073649         114.3288277644      PI        B2 (3)
   99    39           4.2462931751         115.5475116177     SG+        A1 (1)
  100    40           4.3463420044         118.2699786702      DE        A1 (1)
  101   203           4.3463420044         118.2699786702      DE        A2 (4)
  102    41           4.4263086853         120.4459826820     SG+        A1 (1)
  103   163           4.8146680960         131.0137795052      PI        B2 (3)
  104   111           4.8146680960         131.0137795053      PI        B1 (2)
  105   164           5.0008777978         136.0808030935      PI        B2 (3)
  106   112           5.0008777978         136.0808030935      PI        B1 (2)
  107   204           5.0901489554         138.5099947887      DE        A2 (4)
  108    42           5.0901489554         138.5099947889      DE        A1 (1)
  109    43           5.1271095645         139.5157440944     SG+        A1 (1)
  110    44           5.5597080673         151.2873478110     SG+        A1 (1)
  111   165           5.7196205868         155.6387886910      PI        B2 (3)
  112   113           5.7196205868         155.6387886910      PI        B1 (2)
  113   205           5.8885533895         160.2356839540      PI        A2 (4)
  114    45           5.8885533895         160.2356839540      PI        A1 (1)
  115   166           6.0635805728         164.9984157442      PH        B2 (3)
  116   114           6.0635805728         164.9984157442      PH        B1 (2)
  117    46           6.2374110821         169.7285843777     SG+        A1 (1)
  118   206           6.2751204551         170.7547085844      DE        A2 (4)
  119    47           6.2751204551         170.7547085844      DE        A1 (1)
  120   167           6.3033364151         171.5225038914      PI        B2 (3)
  121   115           6.3033364151         171.5225038914      PI        B1 (2)
  122   116           6.4285121478         174.9287087463      PH        B1 (2)
  123   168           6.4285121478         174.9287087463      PH        B2 (3)
  124   207           6.5593227855         178.4882471612      DE        A2 (4)
  125    48           6.5593227855         178.4882471613      DE        A1 (1)
  126    49           6.8310715698         185.8829075173     SG+        A1 (1)
  127   208           7.0578353278         192.0534630796      DE        A2 (4)
  128    50           7.0578353278         192.0534630796      DE        A1 (1)
  129   169           7.3077301525         198.8534469644      PI        B2 (3)
  130   117           7.3077301525         198.8534469644      PI        B1 (2)
  131    51           7.6623408641         208.5028949946     SG+        A1 (1)
  132    52           8.1451198006         221.6399777337     SG+        A1 (1)
  133   170           8.2330609975         224.0329793592      PI        B2 (3)
  134   118           8.2330609975         224.0329793593      PI        B1 (2)
  135   171          10.1131944514         275.1940116154      PI        B2 (3)
  136   119          10.1131944514         275.1940116155      PI        B1 (2)
  137    53          10.4938526392         285.5522475087     SG+        A1 (1)
  138    54          10.6068963515         288.6283233057      PI        A1 (1)
  139   209          10.6068963515         288.6283233057      PI        A2 (4)
  140   120          10.8336033343         294.7973339340      PH        B1 (2)
  141   172          10.8336033343         294.7973339340      PH        B2 (3)
  142    55          11.0136041175         299.6954042559     SG+        A1 (1)
  143   210          11.0721966948         301.2897893424      DE        A2 (4)
  144    56          11.0721966948         301.2897893424      DE        A1 (1)
  145   173          11.3107254336         307.7804863062      PI        B2 (3)
  146   121          11.3107254336         307.7804863063      PI        B1 (2)
  147    57          11.4883385092         312.6135838036     SG+        A1 (1)
  148   122          11.8560774618         322.6202694324      PH        B1 (2)
  149   174          11.8560774618         322.6202694324      PH        B2 (3)
  150    58          12.2107390705         332.2711024444      DE        A1 (1)
  151   211          12.2107390705         332.2711024450      DE        A2 (4)
  152   175          12.5679742861         341.9919668596      PI        B2 (3)
  153   123          12.5679742861         341.9919668596      PI        B1 (2)
  154   212          12.8296228541         349.1117863597      DE        A2 (4)
  155    59          12.8296228541         349.1117863598      DE        A1 (1)
  156    60          13.0751285209         355.7923351860     SG+        A1 (1)
  157   176          13.7555148072         374.3065872820      PI        B2 (3)
  158   124          13.7555148072         374.3065872820      PI        B1 (2)
  159    61          15.0496723418         409.5224041365     SG+        A1 (1)
  160    62          17.9278365832         487.8412347989     SG+        A1 (1)
  161   177          19.2439659820         523.6549364715      PI        B2 (3)
  162   125          19.2439659820         523.6549364716      PI        B1 (2)
  163    63          20.5368782964         558.8368691616     SG+        A1 (1)
  164    64          26.4606453942         720.0307668334      DE        A1 (1)
  165   213          26.4606453942         720.0307668335      DE        A2 (4)
  166   178          26.8960375029         731.8783884322      PI        B2 (3)
  167   126          26.8960375029         731.8783884322      PI        B1 (2)
  168    65          27.8639168924         758.2157255853     SG+        A1 (1)
  169   179          33.7643838757         918.7755949054      PI        B2 (3)
  170   127          33.7643838757         918.7755949056      PI        B1 (2)
  171    66          34.8028961784         947.0349513406     SG+        A1 (1)
  172    67          36.5055146260         993.3655547022     SG+        A1 (1)
  173    68          47.1041253008        1281.7684132816      DE        A1 (1)
  174   214          47.1041253008        1281.7684132816      DE        A2 (4)
  175   128          47.5158968422        1292.9732865686      PI        B1 (2)
  176   180          47.5158968422        1292.9732865686      PI        B2 (3)
  177    69          48.3386972663        1315.3628243699     SG+        A1 (1)
  178    70          64.1156515670        1744.6755767298     SG+        A1 (1)
  179   181          66.7170181796        1815.4623609893      PI        B2 (3)
  180   129          66.7170181796        1815.4623609895      PI        B1 (2)
  181    71          67.7139511110        1842.5902852101     SG+        A1 (1)
  182   130          98.6380351903        2684.0773933862      PH        B1 (2)
  183   182          98.6380351903        2684.0773933862      PH        B2 (3)
  184   215          98.6555718814        2684.5545910112      DE        A2 (4)
  185    72          98.6555718814        2684.5545910112      DE        A1 (1)
  186   131          98.7074747279        2685.9669392679      PI        B1 (2)
  187   183          98.7074747279        2685.9669392679      PI        B2 (3)
  188    73          98.7244311635        2686.4283473377     SG+        A1 (1)
  189   132         103.2827705408        2810.4670678002      PH        B1 (2)
  190   184         103.2827705408        2810.4670678002      PH        B2 (3)
  191   216         103.3221603434        2811.5389188206      DE        A2 (4)
  192    74         103.3221603434        2811.5389188219      DE        A1 (1)
  193   133         103.3545921017        2812.4214318294      PI        B1 (2)
  194   185         103.3545921017        2812.4214318294      PI        B2 (3)
  195    75         103.3928023173        2813.4611846573     SG+        A1 (1)
  196    76         115.1301175941        3132.8497707394      DE        A1 (1)
  197   217         115.1301175941        3132.8497707394      DE        A2 (4)
  198   134         115.3430872476        3138.6449696333      PI        B1 (2)
  199   186         115.3430872476        3138.6449696333      PI        B2 (3)
  200    77         115.8287669001        3151.8609848667     SG+        A1 (1)
  201   187         117.0184484690        3184.2338661618      PI        B2 (3)
  202   135         117.0184484690        3184.2338661620      PI        B1 (2)
  203    78         117.8343040926        3206.4344263348     SG+        A1 (1)
  204    79         122.7101125344        3339.1119192312     SG+        A1 (1)
  205    80         198.5664581925        5403.2680242551      DE        A1 (1)
  206   218         198.5664581925        5403.2680242551      DE        A2 (4)
  207   136         198.7872728053        5409.2766953449      PI        B1 (2)
  208   188         198.7872728053        5409.2766953450      PI        B2 (3)
  209    81         199.2003887383        5420.5181513860     SG+        A1 (1)
  210    82         216.6025849653        5894.0559849228     SG+        A1 (1)
  211   189         225.1439829296        6126.4792397012      PI        B2 (3)
  212   137         225.1439829296        6126.4792397014      PI        B1 (2)
  213    83         225.9580108685        6148.6300660442     SG+        A1 (1)
  214   190         395.4767662091       10761.4699111072      PI        B2 (3)
  215   138         395.4767662091       10761.4699111076      PI        B1 (2)
  216    84         396.1493545678       10779.7719708057     SG+        A1 (1)
  217    85         509.2846034037       13858.3386029358     SG+        A1 (1)
  218    86         895.4305819172       24365.9048726347     SG+        A1 (1)


  VSCF finished.

 @CHECKOUT-I, Total execution time (CPU/WALL):       44.73/       7.85 seconds.
--executable xvscf finished with status     0 in        7.88 seconds (walltime).
 --invoking executable--
/nfs/workspaces/public/cfour_mpi/bin/xvtran
 @GETMEM-I,  Allocated    3814 MB of main memory.
  Full RHF integral transformation
  Transformation of IIII integrals :
  1 pass through the AO integral file was required.
     4560217 AO integrals were read.
     8768707 MO integrals were written to HF2.
  Transformation of IIJJ integrals :
  1 pass through the AO integral file was required.
    10326678 AO integrals were read.
    14593956 MO integrals were written to HF2.
  Transformation of IJIJ integrals :
  1 pass through the AO integral file was required.
    19597625 AO integrals were read.
    27384478 MO integrals were written to HF2.
  Transformation of IJKL integrals :
  1 pass through the AO integral file was required.
    14500337 AO integrals were read.
    18498871 MO integrals were written to HF2.
  Summary of active molecular orbitals: 
------------------------------------------------------------------------
 
  Index      Eigenvalue    Symmetry    Index      Eigenvalue    Symmetry
------------------------------------------------------------------------
     1       -20.6667583        1       110         4.2014638        2
     2       -11.3965419        1       111         4.2015074        2
     3        -1.4668596        1       112         4.8146681        2
     4        -0.7981592        1       113         5.0008778        2
     5        -0.5624318        1       114         5.7196206        2
     6        -0.6067288        2       115         6.0635806        2
     7        -0.6067288        3       116         6.3033364        2
     8         0.0611057        1       117         6.4285121        2
     9         0.0739752        1       118         7.3077302        2
    10         0.1561435        1       119         8.2330610        2
    11         0.2277647        1       120        10.1131945        2
    12         0.2283227        1       121        10.8336033        2
    13         0.3006194        1       122        11.3107254        2
    14         0.3885892        1       123        11.8560775        2
    15         0.5086050        1       124        12.5679743        2
    16         0.5393310        1       125        13.7555148        2
    17         0.6138735        1       126        19.2439660        2
    18         0.7650342        1       127        26.8960375        2
    19         0.7768185        1       128        33.7643839        2
    20         0.8578810        1       129        47.5158968        2
    21         0.8762166        1       130        66.7170182        2
    22         0.8862762        1       131        98.6380352        2
    23         1.1488734        1       132        98.7074747        2
    24         1.4456136        1       133       103.2827705        2
    25         1.5309989        1       134       103.3545921        2
    26         1.6650171        1       135       115.3430872        2
    27         1.7568191        1       136       117.0184485        2
    28         1.8006023        1       137       198.7872728        2
    29         2.0875550        1       138       225.1439829        2
    30         2.0999890        1       139       395.4767662        2
    31         2.1801924        1       140         0.0592604        3
    32         2.3085405        1       141         0.1207144        3
    33         2.3512376        1       142         0.1664215        3
    34         2.4816862        1       143         0.3129769        3
    35         2.8280450        1       144         0.3952976        3
    36         2.9393211        1       145         0.6247550        3
    37         3.4751637        1       146         0.7470563        3
    38         3.7113243        1       147         0.8137623        3
    39         3.9180075        1       148         0.8875577        3
    40         4.1858308        1       149         1.0595755        3
    41         4.2462932        1       150         1.4414138        3
    42         4.3463420        1       151         1.5648706        3
    43         4.4263087        1       152         1.7433206        3
    44         5.0901490        1       153         2.0076996        3
    45         5.1271096        1       154         2.2448141        3
    46         5.5597081        1       155         2.3079186        3
    47         5.8885534        1       156         2.3334352        3
    48         6.2374111        1       157         2.5772633        3
    49         6.2751205        1       158         2.7627424        3
    50         6.5593228        1       159         3.7149807        3
    51         6.8310716        1       160         4.0877601        3
    52         7.0578353        1       161         4.2014638        3
    53         7.6623409        1       162         4.2015074        3
    54         8.1451198        1       163         4.8146681        3
    55        10.4938526        1       164         5.0008778        3
    56        10.6068964        1       165         5.7196206        3
    57        11.0136041        1       166         6.0635806        3
    58        11.0721967        1       167         6.3033364        3
    59        11.4883385        1       168         6.4285121        3
    60        12.2107391        1       169         7.3077302        3
    61        12.8296229        1       170         8.2330610        3
    62        13.0751285        1       171        10.1131945        3
    63        15.0496723        1       172        10.8336033        3
    64        17.9278366        1       173        11.3107254        3
    65        20.5368783        1       174        11.8560775        3
    66        26.4606454        1       175        12.5679743        3
    67        27.8639169        1       176        13.7555148        3
    68        34.8028962        1       177        19.2439660        3
    69        36.5055146        1       178        26.8960375        3
    70        47.1041253        1       179        33.7643839        3
    71        48.3386973        1       180        47.5158968        3
    72        64.1156516        1       181        66.7170182        3
    73        67.7139511        1       182        98.6380352        3
    74        98.6555719        1       183        98.7074747        3
    75        98.7244312        1       184       103.2827705        3
    76       103.3221603        1       185       103.3545921        3
    77       103.3928023        1       186       115.3430872        3
    78       115.1301176        1       187       117.0184485        3
    79       115.8287669        1       188       198.7872728        3
    80       117.8343041        1       189       225.1439829        3
    81       122.7101125        1       190       395.4767662        3
    82       198.5664582        1       191         0.2277647        4
    83       199.2003887        1       192         0.5393310        4
    84       216.6025850        1       193         0.7650342        4
    85       225.9580109        1       194         0.8862762        4
    86       396.1493546        1       195         1.5309989        4
    87       509.2846034        1       196         1.7568191        4
    88       895.4305819        1       197         2.0999890        4
    89         0.0592604        2       198         2.1801924        4
    90         0.1207144        2       199         2.3512376        4
    91         0.1664215        2       200         2.9393211        4
    92         0.3129769        2       201         3.7113243        4
    93         0.3952976        2       202         4.1858308        4
    94         0.6247550        2       203         4.3463420        4
    95         0.7470563        2       204         5.0901490        4
    96         0.8137623        2       205         5.8885534        4
    97         0.8875577        2       206         6.2751205        4
    98         1.0595755        2       207         6.5593228        4
    99         1.4414138        2       208         7.0578353        4
   100         1.5648706        2       209        10.6068964        4
   101         1.7433206        2       210        11.0721967        4
   102         2.0076996        2       211        12.2107391        4
   103         2.2448141        2       212        12.8296229        4
   104         2.3079186        2       213        26.4606454        4
   105         2.3334352        2       214        47.1041253        4
   106         2.5772633        2       215        98.6555719        4
   107         2.7627424        2       216       103.3221603        4
   108         3.7149807        2       217       115.1301176        4
   109         4.0877601        2       218       198.5664582        4
------------------------------------------------------------------------
  -20.6667583491811       -11.3965419080147       -1.46685957929947     
 -0.798159246027780      -0.562431835755317      -0.606728809196868     
 -0.606728809196878       6.110567068577191E-002  7.397522803731744E-002
  0.156143532686991       0.227764724131909       0.228322694702638     
  0.300619447359316       0.388589168242203       0.508604993569068     
  0.539330958751609       0.613873464059139       0.765034160159808     
  0.776818515289493       0.857881003820507       0.876216609431747     
  0.886276229620328        1.14887342418849        1.44561363684906     
   1.53099887130110        1.66501708509992        1.75681914317297     
   1.80060226782653        2.08755498257250        2.09998895862785     
   2.18019244553286        2.30854050605202        2.35123764165571     
   2.48168615448783        2.82804495482703        2.93932114977982     
   3.47516373588473        3.71132427362812        3.91800752332304     
   4.18583077826149        4.24629317514733        4.34634200443442     
   4.42630868528482        5.09014895541605        5.12710956453436     
   5.55970806728547        5.88855338953514        6.23741108207454     
   6.27512045508057        6.55932278552626        6.83107156975089     
   7.05783532782881        7.66234086410338        8.14511980062535     
   10.4938526392132        10.6068963515351        11.0136041174565     
   11.0721966947999        11.4883385092289        12.2107390704865     
   12.8296228540799        13.0751285208840        15.0496723417790     
   17.9278365832324        20.5368782963688        26.4606453942152     
   27.8639168924154        34.8028961783903        36.5055146259916     
[...]
 Convergence information after     9 iterations: 
 Largest element of residual vector : -0.14136543E-04.
 Largest element of DIIS residual   : -0.66510187E-05.
 Convergence information after    10 iterations: 
 Largest element of residual vector : -0.73525170E-05.
 Largest element of DIIS residual   : -0.51854682E-05.
 Convergence information after    11 iterations: 
 Largest element of residual vector : -0.33119378E-05.
 Largest element of DIIS residual   : -0.98267861E-06.
 Convergence information after    12 iterations: 
 Largest element of residual vector : -0.14601218E-05.
 Largest element of DIIS residual   :  0.54067319E-06.
 Convergence information after    13 iterations: 
 Largest element of residual vector :  0.44513422E-06.
 Largest element of DIIS residual   :  0.16700965E-06.
 Convergence information after    14 iterations: 
 Largest element of residual vector :  0.17675572E-06.
 Largest element of DIIS residual   :  0.75665753E-07.
 Perturbed amplitude equations converged in    14 iterations.
  Dominant contributions to perturbed wavefunction:
    7    7  141   28   0.2384190155 ABAB
    7    7   28  141   0.2384190155 ABAB
    7    7  141   37  -0.1877359723 ABAB
    7    7   37  141  -0.1877359723 ABAB
    7    7  141   39   0.1703617464 ABAB
    7    7   39  141   0.1703617464 ABAB
    7    7  140   28   0.1588139901 ABAB
    7    7   28  140   0.1588139901 ABAB
    7    6   28   90   0.1547919307 ABAB
    6    7   90   28   0.1547919307 ABAB
    7    7  141   45   0.1397833348 ABAB
    7    7   45  141   0.1397833348 ABAB
    7    7  141   53  -0.1311207711 ABAB
    7    7   53  141  -0.1311207711 ABAB
    7    0   45    0  -0.1308287726 AA  
    7    7  141   55   0.1276296681 ABAB
    7    7   55  141   0.1276296681 ABAB
    7    7  141   20   0.1274460000 ABAB
    7    7   20  141   0.1274460000 ABAB
    7    7  141   19  -0.1226960622 ABAB
  norm of converged amps    2.24804988630219     
 Starting iterative solution of the perturbed Lambda equations.
 The DIIS procedure is used to accelerate convergence.
 Convergence criterion is 10**(-7).
 Maximum number of iterations is 100.
 Convergence information after     1 iterations: 
 Largest element of residual vector :  0.62945332E-01.
 Largest element of DIIS residual   :  0.62945332E-01.
 Convergence information after     2 iterations: 
 Largest element of residual vector : -0.91963069E-02.
 Largest element of DIIS residual   : -0.56485365E-02.
 Convergence information after     3 iterations: 
 Largest element of residual vector : -0.49825142E-02.
 Largest element of DIIS residual   : -0.43759348E-02.
 Convergence information after     4 iterations: 
 Largest element of residual vector : -0.30886744E-02.
 Largest element of DIIS residual   : -0.25115334E-02.
 Convergence information after     5 iterations: 
 Largest element of residual vector : -0.19383689E-02.
 Largest element of DIIS residual   : -0.96627051E-03.
 Convergence information after     6 iterations: 
 Largest element of residual vector : -0.66258153E-03.
 Largest element of DIIS residual   : -0.18107918E-03.
 Convergence information after     7 iterations: 
 Largest element of residual vector : -0.16067664E-03.
 Largest element of DIIS residual   :  0.65535612E-04.
 Convergence information after     8 iterations: 
 Largest element of residual vector :  0.39689357E-04.
 Largest element of DIIS residual   : -0.26543006E-04.
 Convergence information after     9 iterations: 
 Largest element of residual vector : -0.10351984E-04.
 Largest element of DIIS residual   : -0.63999955E-05.
 Convergence information after    10 iterations: 
 Largest element of residual vector : -0.56005890E-05.
 Largest element of DIIS residual   : -0.44479951E-05.
 Convergence information after    11 iterations: 
 Largest element of residual vector : -0.24626379E-05.
 Largest element of DIIS residual   : -0.93165351E-06.
 Convergence information after    12 iterations: 
 Largest element of residual vector : -0.12710294E-05.
 Largest element of DIIS residual   :  0.82258811E-06.
 Convergence information after    13 iterations: 
 Largest element of residual vector :  0.62939073E-06.
 Largest element of DIIS residual   :  0.37792871E-06.
 Convergence information after    14 iterations: 
 Largest element of residual vector :  0.34009309E-06.
 Largest element of DIIS residual   :  0.16628806E-06.
 Convergence information after    15 iterations: 
 Largest element of residual vector :  0.10984264E-06.
 Largest element of DIIS residual   :  0.51487318E-07.
 Perturbed Lambda equations converged in    15 iterations.
  Dominant contributions to perturbed wavefunction:
    7    7  141   28   0.2223875554 ABAB
    7    7   28  141   0.2223875554 ABAB
    7    7  141   37  -0.1765423982 ABAB
    7    7   37  141  -0.1765423982 ABAB
    7    7  141   39   0.1573283764 ABAB
    7    7   39  141   0.1573283764 ABAB
    7    7  140   28   0.1490643145 ABAB
    7    7   28  140   0.1490643145 ABAB
    7    6   28   90   0.1421857504 ABAB
    6    7   90   28   0.1421857504 ABAB
    7    7  141   45   0.1266011560 ABAB
    7    7   45  141   0.1266011560 ABAB
    7    7  141   53  -0.1210523315 ABAB
    7    7   53  141  -0.1210523315 ABAB
    7    7  141   55   0.1174777088 ABAB
    7    7   55  141   0.1174777088 ABAB
    7    7  141   20   0.1167810256 ABAB
    7    7   20  141   0.1167810256 ABAB
    5    5  141   45   0.1167025521 ABAB
    5    5   45  141   0.1167025521 ABAB
        The DBOC first-order density matrix is being calculated 
             (Symmetry block 3, perturbation   2)
 term   5.84970799748524     
 final tnorm  0.876626820646982     
  norm contr. I: |<0|L dT/dx|0>|^2   0.000000000000000E+000
  norm contr. II: <0|[nabla(1+L)e-T][nabla e^T]|0>   5.84970799748524     
  total norm contribution   5.84970799748524     
 oo  1.032422947298051E-002
 vv  -43.8946066236041     
 vo  5.557301237788144E-002
  Correlated perturbed 1-el contribution to DBOC  -43.8287093817533       cm**-1
  SUM_I |dc_I/dx|^2 contribution to DBOC   22.0224518986991       cm**-1
 
 
  The total diagonal Born-Oppenheimer correction (DBOC) is:      0.0040085531 a.u.
  The total diagonal Born-Oppenheimer correction (DBOC) is:        879.775711 cm-1
 
 Total CC energy including DBOC  -113.266989795938     
 First-order density matrix is being calculated  (Symmetry block 3, perturbation   2)
 Calculation of the contributions of <pq||rs> to dI(i,j)/dx required   1.4 seconds.
 Calculation of the contributions of <pq||rs> to dI(a,b)/dx required  13.1 seconds.
 Calculation of the contributions of <pq||rs> to dI(i,a)/dx required   8.9 seconds.
 First-order Z-vector equations are solved for 1 perturbation.
 Convergence reached after  18 iterations.
        U*G(pq,rs) contribution is being calculated
             (Symmetry block 3, perturbation   2)

 CCSD contribution to force constants 

        0.0000000000        0.0000000000        0.0000000000
        0.0000000000        0.0000000000        0.0000000000
        0.0000000000        0.0000000000        0.0000000000
        0.0000000000        0.0000000000        0.0000000000
        0.0000000000        0.0000000000        0.0000000000
        0.0000000000        0.0000000000        0.0000000000
        0.0000000000        0.0000000000        0.0000000000
        0.0000000000        0.0000000000        0.0000000000
        0.0000000000        0.0000000000        0.0000000000
        0.0000000000        0.0000000000        0.0000000000
        0.0000000000        0.0000000000        0.0000000000
        0.0000000000        0.7647829434       -0.7647829434

 CCSD contribution to dipole derivatives 

        0.0000000000        0.0000000000        0.0000000000
        0.0000000000        0.0000000000        0.0000000000
        0.0000000000        0.0000000000        0.0000000000
        0.0000000000        0.0000000000       -0.0479922353
        0.0000000000        0.0000000000        0.0000000000
        0.0000000000        0.0000000000        0.0000000000
 @CHECKOUT-I, Total execution time (CPU/WALL):      943.74/     194.16 seconds.
--executable xsdcc finished with status     0 in      194.21 seconds (walltime).
 --invoking executable--
/nfs/workspaces/public/cfour_mpi/bin/xanti
 @GETMEM-I,  Allocated    3814 MB of main memory.
 CCSD MO derivative gammas will be sorted to Mulliken order.
 @CHECKOUT-I, Total execution time (CPU/WALL):        8.79/      12.62 seconds.
--executable xanti finished with status     0 in       12.65 seconds (walltime).
 --invoking executable--
/nfs/workspaces/public/cfour_mpi/bin/xbcktrn
 @GETMEM-I,  Allocated    3814 MB of main memory.
 CCSD MO derivative gammas will be transformed to the AO basis.
 @CHECKOUT-I, Total execution time (CPU/WALL):       16.65/       3.29 seconds.
--executable xbcktrn finished with status     0 in        3.32 seconds (walltime).
 --invoking executable--
/nfs/workspaces/public/cfour_mpi/bin/xvdint
 @GETMEM-I,  Allocated    3814 MB of main memory.
 One- and two-electron integral derivatives are calculated
 for RHF-CC/MBPT hessians and dipole derivatives.
 Spherical gaussians are used.
  magnet F F
                    8722  records have been written to the Sort file.
  Total length of Sort file :             178609116  words.
 Evaluation of 2el integral derivatives

                      Two-electron integral gradient
                      ------------------------------

                         C #1 z     0.0000000000
                         O #2 z     0.0000000000


 C #1       0.0000000000           -0.3900666713            0.0000000000
 O #2       0.0000000000            0.3900666713            0.0000000000


 Evaluation of 2e integral derivatives required  280.61 seconds.
  contribution to Hessian
        0.0000000000        0.0000000000        0.0000000000
        0.0000000000       -0.3900666713        0.3900666713
 @CHECKOUT-I, Total execution time (CPU/WALL):      280.60/      63.07 seconds.
--executable xvdint finished with status     0 in       63.10 seconds (walltime).
 --invoking executable--
/nfs/workspaces/public/cfour_mpi/bin/xanti
 @GETMEM-I,  Allocated    3814 MB of main memory.
 CCSD MO gammas will be sorted to Mulliken order.
 @CHECKOUT-I, Total execution time (CPU/WALL):       10.38/       8.93 seconds.
--executable xanti finished with status     0 in        8.96 seconds (walltime).
 --invoking executable--
/nfs/workspaces/public/cfour_mpi/bin/xbcktrn
 @GETMEM-I,  Allocated    3814 MB of main memory.
 CCSD MO gammas will be transformed to the AO basis.
 @CHECKOUT-I, Total execution time (CPU/WALL):       23.56/       4.56 seconds.
--executable xbcktrn finished with status     0 in        4.59 seconds (walltime).
 --invoking executable--
/nfs/workspaces/public/cfour_mpi/bin/xvdint
 @GETMEM-I,  Allocated    3814 MB of main memory.
 One- and two-electron integral derivatives are calculated
 for RHF-CC/MBPT hessians and dipole derivatives.
 Spherical gaussians are used.
  magnet F F

                     Kinetic energy integral gradient
                     --------------------------------

                         C #1 z    -1.2638276202
                         O #2 z     1.2638276202


 C #1       0.0000000000            0.0000000000           -1.2638276202
 O #2       0.0000000000            0.0000000000            1.2638276202



                   Nuclear attraction integral gradient
                   ------------------------------------

                         C #1 z    21.5070423604
                         O #2 z   -21.5070423604


 C #1       0.0000000000            0.0000000000           21.5070423604
 O #2       0.0000000000            0.0000000000          -21.5070423604



                      Reorthonormalization gradient
                      -----------------------------

                         C #1 z     0.0000000000
                         O #2 z     0.0000000000


 C #1       0.0000000000            0.0000000000            0.0000000000
 O #2       0.0000000000            0.0000000000            0.0000000000



                     Kinetic energy integral Hessian
                     -------------------------------


           Symmetry 1

           C #1 z      O #2 z

 C #1 z    1.069958
 O #2 z   -1.069958    1.069958


           Symmetry 2

           C #1 x      O #2 x

 C #1 x   -1.492862
 O #2 x    1.492862   -1.492862


           Symmetry 3

           C #1 y      O #2 y

 C #1 y   -1.492862
 O #2 y    1.492862   -1.492862




           C #1 x      C #1 y      C #1 z      O #2 x      O #2 y      O #2 z

 C #1 x   -1.492862
 C #1 y    0.000000   -1.492862
 C #1 z    0.000000    0.000000    1.069958

 O #2 x    1.492862    0.000000    0.000000   -1.492862
 O #2 y    0.000000    1.492862    0.000000    0.000000   -1.492862
 O #2 z    0.000000    0.000000   -1.069958    0.000000    0.000000    1.069958




                   Nuclear attraction integral Hessian
                   -----------------------------------


           Symmetry 1

           C #1 z      O #2 z

 C #1 z  -12.761519
 O #2 z   12.761519  -12.761519


           Symmetry 2

           C #1 x      O #2 x

 C #1 x   17.321974
 O #2 x  -17.321974   17.321974


           Symmetry 3

           C #1 y      O #2 y

 C #1 y   17.321974
 O #2 y  -17.321974   17.321974




           C #1 x      C #1 y      C #1 z      O #2 x      O #2 y      O #2 z

 C #1 x   17.321974
 C #1 y    0.000000   17.321974
 C #1 z    0.000000    0.000000  -12.761519

 O #2 x  -17.321974    0.000000    0.000000   17.321974
 O #2 y    0.000000  -17.321974    0.000000    0.000000   17.321974
 O #2 z    0.000000    0.000000   12.761519    0.000000    0.000000  -12.761519




                Highest order reorthonormalization Hessian
                ------------------------------------------


           Symmetry 1

           C #1 z      O #2 z

 C #1 z    0.000000
 O #2 z    0.000000    0.000000


           Symmetry 2

           C #1 x      O #2 x

 C #1 x    0.000000
 O #2 x    0.000000    0.000000


           Symmetry 3

           C #1 y      O #2 y

 C #1 y    0.000000
 O #2 y    0.000000    0.000000




           C #1 x      C #1 y      C #1 z      O #2 x      O #2 y      O #2 z




                Electronic contributions to dipole moment
                -----------------------------------------

                               au             Debye

                    z      0.69317519      1.76187589

  Conversion factor used: 1 a.u. =   2.54174691 Debye 



   Electronic contributions to static part of dipole moment derivatives
   --------------------------------------------------------------------


                     Total dipole moment derivatives
                     -------------------------------


           Symmetry 1
                              Ez

               C #1 z    -5.71605270
               O #2 z    -8.28394730

           Symmetry 2
                              Ex

               C #1 x    -5.74850437
               O #2 x    -8.25149563

           Symmetry 3
                              Ey

               C #1 y    -5.74850437
               O #2 y    -8.25149563



                       Ex          Ey          Ez

      C #1    x   -5.748504    0.000000    0.000000
      C #1    y    0.000000   -5.748504    0.000000
      C #1    z    0.000000    0.000000   -5.716053

      O #2    x   -8.251496    0.000000    0.000000
      O #2    y    0.000000   -8.251496    0.000000
      O #2    z    0.000000    0.000000   -8.283947

 Evaluation of 1e integral derivatives required    1.68 seconds.
                    8815  records have been written to the Sort file.
  Total length of Sort file :             180513570  words.
 Evaluation of 2el integral derivatives

                      Two-electron integral gradient
                      ------------------------------

                         C #1 z   -10.4626523122
                         O #2 z    10.4626523122


 C #1       0.0000000000            0.0000000000          -10.4626523122
 O #2       0.0000000000            0.0000000000           10.4626523122


 Evaluation of 2e integral derivatives required  535.78 seconds.

                            Molecular gradient
                            ------------------

                         C #1 z     0.6051607844
                         O #2 z    -0.6051607844


 C #1       0.0000000000            0.0000000000            0.6051607844
 O #2       0.0000000000            0.0000000000           -0.6051607844


  Molecular gradient norm 0.856E+00

                            Molecular hessian
                            -----------------


           Symmetry 1

           C #1 z      O #2 z

 C #1 z   52.850657
 O #2 z  -52.850657   52.850657


           Symmetry 2

           C #1 x      O #2 x

 C #1 x   -0.140047
 O #2 x    0.140047   -0.140047


           Symmetry 3

           C #1 y      O #2 y

 C #1 y   -0.140047
 O #2 y    0.140047   -0.140047




           C #1 x      C #1 y      C #1 z      O #2 x      O #2 y      O #2 z

 C #1 x   -0.140047
 C #1 y    0.000000   -0.140047
 C #1 z    0.000000    0.000000   52.850657

 O #2 x    0.140047    0.000000    0.000000   -0.140047
 O #2 y    0.000000    0.140047    0.000000    0.000000   -0.140047
 O #2 z    0.000000    0.000000  -52.850657    0.000000    0.000000   52.850657




                           Total dipole moment
                           -------------------

                               au             Debye

                    z      0.05765658      0.14654844

  Conversion factor used: 1 a.u. =   2.54174691 Debye 



                     Total dipole moment derivatives
                     -------------------------------


           Symmetry 1
                              Ez

               C #1 z     0.71795811
               O #2 z    -0.71795811

           Symmetry 2
                              Ex

               C #1 x     0.02292675
               O #2 x    -0.02292675

           Symmetry 3
                              Ey

               C #1 y     0.02292675
               O #2 y    -0.02292675



                       Ex          Ey          Ez

      C #1    x    0.022927    0.000000    0.000000
      C #1    y    0.000000    0.022927    0.000000
      C #1    z    0.000000    0.000000    0.717958

      O #2    x   -0.022927    0.000000    0.000000
      O #2    y    0.000000   -0.022927    0.000000
      O #2    z    0.000000    0.000000   -0.717958

 @CHECKOUT-I, Total execution time (CPU/WALL):      537.45/      91.97 seconds.
--executable xvdint finished with status     0 in       92.00 seconds (walltime).
 --invoking executable--
/nfs/workspaces/public/cfour_mpi/bin/xjoda
  @GTFLGS-I, Hessian will be transformed to curvilinear coordinates.
  @GTFLGS-I, Hessian will be transformed to curvilinear coordinates.
  igrd and ihes are                      0                     1
  gradient from JOBARC 
   0.000000000000000   0.000000000000000   0.605160784352295
   0.000000000000000   0.000000000000000  -0.605160784352295
 
  @PROJFCM-I, Projecting force constant matrix onto totally symmetric subspace.
  Largest difference between matrix elements of symmetrized
  and unsymmetrized FCM :    -0.4693248568E-10.
  read isotopes from ZMAT file 
 
  Summary of diagonal Born-Oppenheimer correction at the correlated level
  The total diagonal Born-Oppenheimer correction (DBOC) is:      0.0040085531 a.u.
  The total diagonal Born-Oppenheimer correction (DBOC) is:        879.775711 cm-1
  The total diagonal Born-Oppenheimer correction (DBOC) is:            10.524 kJ/mole
  hellooooooo 
  readis is  F
 
 @CHECKOUT-I, Total execution time (CPU/WALL):        0.01/       0.01 seconds.
--executable xjoda finished with status     0 in        0.03 seconds (walltime).
  The final electronic energy is      -113.266989795937988 a.u. 
  This computation required                         2048.51 seconds (walltime).
