 --invoking executable--
/nfs/workspaces/public/cfour_mpi/bin/xjoda


   *************************************************************************
         <<<     CCCCCC     CCCCCC   |||     CCCCCC     CCCCCC   >>>
       <<<      CCC        CCC       |||    CCC        CCC         >>>
      <<<      CCC        CCC        |||   CCC        CCC            >>>
    <<<        CCC        CCC        |||   CCC        CCC              >>>
      <<<      CCC        CCC        |||   CCC        CCC            >>>
       <<<      CCC        CCC       |||    CCC        CCC         >>>
         <<<     CCCCCC     CCCCCC   |||     CCCCCC     CCCCCC   >>>
   *************************************************************************

     ****************************************************************
     * CFOUR Coupled-Cluster techniques for Computational Chemistry *
     ****************************************************************
 

   Department of Chemistry                Institut fuer Physikalische Chemie
   University of Florida                  Universitaet Mainz
   Gainesville, FL 32611, USA             D-55099 Mainz, Germany

   Department of Chemistry                Fakultaet fuer Chemie und Biowiss.
   Johns Hopkins University               Karlsruher Institut fuer Technologie
   Baltimore, MD 21218, USA               D-76131 Karlsruhe, Germany

   Department of Chemistry                Department of Physical Chemistry
   Southern Methodist University          Eotvos Lorand University
   Dallas, TX 75275, USA                  H-1053 Budapest, Hungary

 
                       Version 2.1
 
                     vincent.theory.phys.ucl.ac.uk                     
                     Wed 26 Feb 15:29:38 GMT 2025                      
                     integer*8 version is running
 
********************************************************************************
*                          Input from ZMAT file                                *
********************************************************************************
Carbon Monoxide DBOC calculation                                                
C                                                                               
O 1 r                                                                           
                                                                                
r=0.9620689655172414                                                            
                                                                                
                                                                                
*CFOUR(CALC=CCSD,BASIS=AUG-PCVQZ,SCF_CONV=10                                    
CC_CONV=14,DBOC=ON,MEMORY=500000000                                             
ZFIELD=-200)                                                                    
                                                                                
%isotopes                                                                       
13                                                                              
16                                                                              
********************************************************************************
  @GTFLGS-I, Hessian will be transformed to curvilinear coordinates.
    -------------------------------------------------------------------
                    CFOUR Control Parameters 
    -------------------------------------------------------------------
        External           Internal           Value            Units
          Name               Name
    -------------------------------------------------------------------
       ABCDTYPE             IABCDT         STANDARD    [  0]    ***   
       ANHARMONIC           IANHAR         OFF         [  0]    ***   
       ANH_ALGORIT          IANALG         STANDARD    [  0]    ***   
       ANH_DERIVAT          IANDER         SECOND      [  1]    ***   
       ANH_MODE             ANHMOD         VIBRATION   [  0]    ***   
       ANH_STEPSIZ          ICUBST             50000          x 10-6  
       ANH_SYMMETR          IANHSM         ABELIAN     [  0]    ***   
       AO_LADDERS           IAOLAD         SINGLEPASS  [  1]    ***   
       AV_SCF               IAVSCF         OFF         [  0]    ***   
       BASIS                IBASIS         AUG-PCVQZ   [ 52]    ***   
       BOTHVECTORS          BOTHVC         OFF         [  0]    ***   
       BOX_POTENT           IPIAB          OFF         [  0]    ***   
       BREIT                IBREIT         OFF         [  0]    ***   
       BRUCK_CONV           IBRTOL          10D-  4             ***   
       BRUECKNER            IBRKNR         OFF         [  0]    ***   
       BUFFERSIZE           IBUFFS              4096            ***   
       CACHE_RECS           ICHREC             10               ***   
       CALCLEVEL            ICLLVL         CCSD        [ 10]    ***   
       CCORBOPT             ICCORB         OFF         [  0]  x 0.01  
       CC_CONV              ICCCNV          10D- 14             ***   
       CC_EXPORDER          ICCEOR              5               ***   
       CC_EXTRAPOL          ICCEXT         DIIS        [  1]    ***   
       CC_GUESS             ICCGES         MP2         [  0]    ***   
       CC_MAXCYC            ICCCYC            100              cycles 
       CC_PROGRAM           ICCPRO         VCC         [  0]    ***   
       CHARGE               ICHRGE              0               ***   
       CHOLESKY             ICHOLE         OFF         [  0]    ***   
       CIS_CONV             ICISTL              5               ***   
       COMM_SIZE            IPSIZE            ***               ***   
       CONSTANT             ICONST         OLD         [  1]    ***   
       CONTINUUM            ICONTU         NONE        [  0]    ***   
       CONTRACTION          ICNTYP         GENERAL     [  1]    ***   
       COORDINATES          ICOORD         INTERNAL    [  0]    ***   
       CPHF_CONVER          ICPHFT          10D- 16             ***   
       CPHF_MAXCYC          ICPHFC             64              cycles 
       CUBIC                ICUBIC         OFF         [  0]    ***   
       CURVILINEAR          ICURVY         ON          [  1]    ***   
       DBOC                 IDBOC          ON          [  1]    ***   
       DCT                  IDCT           OFF         [  0]    ***   
       DERIV_LEV            IDRLVL         SECOND      [  2]    ***   
       DEVMEM_SIZE          IDVMEM          50000000           MByte  
       DIAG_MRCC            IEOMST          10D-  0             ***   
       DIFF_TYPE            IDIFTY         RELAXED     [  0]    ***   
       DIRECT               IDIRCT         OFF         [  0]    ***   
       DROPMO               IDRPMO      NONE         
       ECP                  IECP           OFF         [  0]    ***   
       EIGENVECTOR          IVEC                1               ***   
       EL_ANHARM            IELANH         OFF         [  0]    ***   
       EOMFOLLOW            IEOMSR         ENERGY      [  0]    ***   
       EOMIP                IEOMIP         OFF         [  0]    ***   
       EOMLEVEL             HBARFM         SAME        [  0]    ***   
       EOM_MRCC             IMRCCE         NEW         [  1]    ***   
       EOM_NONIT            EOMNON         OFF         [  0]    ***   
       EOM_NSING            IEOMSI          10D-  0             ***   
       EOM_NSTATES          IMRCCD         DAVIDSON    [  0]    ***   
       EOM_NTRIP            IEOMTR          10D-  0             ***   
       EOM_ORDER            IEXORD         ENERGY      [  0]    ***   
       EOM_PROPSTA          IEOMST              0               ***   
       ESTATE_CONV          IEXTOL          10D-  5             ***   
       ESTATE_DIAG          IEXDIG         ITERATIVE   [  0]    ***   
       ESTATE_LOCK          IESLOC         ON          [  1]    ***   
       ESTATE_MAXC          IEXMXC             40               ***   
       ESTATE_PROP          IEXPRP         OFF         [  0]    ***   
       EVAL_HESS            IRECAL              0            # of cyc.
       EXCITATION           IEXCIT              0               ***   
       EXCITE               IEXCIT         NONE        [  0]    ***   
       EXTERN_POT           IEXPOT         OFF         [  0]    ***   
       FCGRADNEW            IFCGNW         OFF         [  0]    ***   
       FC_FIELD             IFINFC              0             x 10-6  
       FD_CALTYPE           IFDCAL         GRADONLY    [  0]    ***   
       FD_PROJECT           IFDPRJ         OFF         [  1]    ***   
       FD_STEPSIZE          IDISFD              0            10-4 bohr
       FD_USEGROUP          IFDGRP         FULL        [  0]    ***   
       FILE_RECSIZ          IFLREC              4096           words  
       FINITE_PERT          IFIPER              0             x 10-6  
       FIXGEOM              IFIXGM         OFF         [  0]    ***   
       FOCK                 IFOCK          AO          [  1]    ***   
       FREQ_ALGORI          IVIALG         STANDARD    [  0]    ***   
       FROZEN_CORE          IFROCO         OFF         [  0]    ***   
       GAMMA_ABCD           IGABCD         STORE       [  0]    ***   
       GAMMA_ABCI           IGABCI         STORE       [  0]    ***   
       GENBAS_1             IGNBS1              0               ***   
       GENBAS_2             IGNBS2              0               ***   
       GENBAS_3             IGNBS3              0               ***   
       GENBAS_4             IGNBS4              0               ***   
       GEO_CONV             ICONTL              5              H/bohr 
       GEO_MAXCYC           IOPTCY             50               ***   
       GEO_MAXSTEP          IMXSTP            300            millibohr
       GEO_METHOD           INR            SINGLE_POINT[  5]    ***   
       GIAO                 IGIAO          OFF         [  1]    ***   
       GIMIC                IGIMIC         OFF         [  0]    ***   
       GRID                 IGRID          OFF         [  0]    ***   
       GRID_ALGO            IGALGO         SERIAL      [  0]    ***   
       GUESS                IGUESS         MOREAD      [  0]    ***   
       HBAR                 IHBAR          OFF         [  0]    ***   
       HESS_TYPE            IHESTP         SCF         [  0]    ***   
       HF2_FILE             IHF2Fl         USE         [  1]    ***   
       HFSTABILITY          ISTABL         OFF         [  0]    ***   
       INCORE               INCORE         OFF         [  0]    ***   
       INPUT_MRCC           IMRCC          ON          [  1]    ***   
       INTEGRALS            INTTYP         VMOL        [  1]    ***   
       JODA_PRINT           IJPRNT              0               ***   
       KEYWORD_OUT          IDMPKW         NO          [  0]    ***   
       LINDEP_TOL           ILINDP              8               ***   
       LINEQ_CONV           IZTACN          10D-  7           cycles  
       LINEQ_EXPOR          ILMAXD              5               ***   
       LINEQ_MAXCY          ILMAXC            100               ***   
       LINEQ_TYPE           ILTYPE         DIIS        [  1]    ***   
       LOCK_ORBOCC          ILOCOC         OFF         [  0]    ***   
       MEMORY_SIZE          IMEMSZ         500000000           words  
       MEM_UNIT             IMEMU          INTEGERWORDS[  0]    ***   
       MRCC                 IMRCCC         OFF         [  0]    ***   
       MULTIPLICTY          IMULTP              1               ***   
       NACOUPLING           IVCOUP         OFF         [  0]    ***   
       NEGEVAL              IDIE           ABORT       [  0]    ***   
       NEWNORM              INEWNO         OFF         [  0]    ***   
       NON-HF               INONHF         OFF         [  0]    ***   
       NTOP_TAMP            ITOPT2             15               ***   
       NUC_MODEL            INUCMO         POINT       [  0]    ***   
       OCCUPATION           IOCCU   ESTIMATED BY SCF 
       OPEN-SHELL           IOPEN          SPIN-ORBITAL[  0]    ***   
       OPTVIB               IOPTVB         OFF         [  0]    ***   
       ORBITALS             IORBTP         STANDARD    [  0]    ***   
       PARALLEL             IPARAL         ON          [  1]    ***   
       PARA_INT             IPINTS         ON          [  1]    ***   
       PARA_PRINT           IPPRIN              0               ***   
       PERT_ORB             IPTORB         STANDARD    [  0]    ***   
       POINTS               IGRDFD              0               ***   
       PRINT                IPRNT               0               ***   
       PROPS                IPROPS         OFF         [  0]    ***   
       PROP_INTEGR          IINTYP         INTERNAL    [  0]    ***   
       PSI                  IPSI           OFF         [  0]    ***   
       QC_ALG               IQCALG         FLM         [  0]    ***   
       QC_LINALG            IQCLIN         TRIDIAG     [  2]    ***   
       QC_MAXCYC            IQCMAX          10D-100           cycles  
       QC_MAXSCFCY          IQCMSC          10D- 15           cycles  
       QC_RTRUST            IQCRTR          10D-  0           x 10-3  
       QC_SKIPSCF           IQCSKI         OFF         [  0]    ***   
       QC_START             IQCSTA          10D-  1             ***   
       QRHFGUESS            IQGUES         OFF         [  0]    ***   
       QUARTIC              IQUART         OFF         [  0]    ***   
       RAMAN_INT            IRAMIN         OFF         [  0]    ***   
       RAMAN_ORB            IRAMRE         UNRELAXED   [  0]    ***   
       RDO                  IRDOFM         ON          [  1]    ***   
       REDUCE_REPR          REDREP         Ir          [  0]    ***   
       REFERENCE            IREFNC         RHF         [  0]    ***   
       RELATIVIST           IRELAT         OFF         [  0]    ***   
       RELAX_DENS           IRDENS         ON          [  1]    ***   
       RESET_FLAGS          IRESET         OFF         [  0]    ***   
       RESTART_CC           ICCRES         OFF         [  0]    ***   
       ROT_EVEC             ROTVEC              0               ***   
       SAVE_INTS            ISVINT         OFF         [  0]    ***   
       SCALE_ON             ISTCRT              0               ***   
       SCF_CONV             ISCFCV          10D- 10             ***   
       SCF_DAMPING          IDAMP               0             x 10-3  
       SCF_EXPORDE          IRPPOR              6               ***   
       SCF_EXPSTAR          IRPPLS              8               ***   
       SCF_EXTRAPO          IRPP           ON          [  1]    ***   
       SCF_MAXCYC           ISCFCY            150              cycles 
       SCF_NOSTOP           ISCFST         OFF         [  0]    ***   
       SCF_PRINT            ISCFPR              0               ***   
       SCF_PROG             ISCFPR         SCF         [  0]    ***   
       SD_FIELD             IFINSD              0             x 10-6  
       SOPERT               IPERSO         OFF         [  0]    ***   
       SPHERICAL            IDFGHI         ON          [  1]    ***   
       SPINORBIT            ISOCAL         OFF         [  0]    ***   
       SPINROTATIO          ISRCON         OFF         [  0]    ***   
       SPIN_FLIP            ISPFLP         OFF         [  0]    ***   
       SPIN_ORBIT           ISPORB         OFF         [  0]    ***   
       SPIN_SCAL            ISCSMP         OFF         [  0]    ***   
       STEEPSCALE           ISTPSC              1000          x 10-3  
       SUBGROUP             ISUBGP         DEFAULT     [  0]    ***   
       SUBGRPAXIS           ISBXYZ         X           [  0]    ***   
       SYMMETRY             ISYM           ON          [  0]    ***   
       SYM_CHECK            ISYMCK         OVERRIDE    [  1]    ***   
       T3_EXTRAPOL          IT3EXT         OFF         [  0]    ***   
       T4_EXTRAPOL          IT4EXP         OFF         [  0]    ***   
       TAMP_SUM             IEVERY              5               ***   
       TESTSUITE            ITESTS         OFF         [  0]    ***   
       THERMOCH             ITHERM         OFF         [  0]    ***   
       TOL_CHOLESK          ITOLCH          10D-  4             ***   
       TRANGRAD             IRESRM         OFF         [  0]    ***   
       TRANS_INV            ITRAIN         IGNORE      [  1]    ***   
       TREAT_PERT           ITREAT         SIMULTANEOUS[  0]    ***   
       TRIP_ALGORI          ITRALG         NORMAL      [  0]    ***   
       UIJ_THRESHO          IUIJTH              1               ***   
       UNITS                IUNITS         ANGSTROM    [  0]    ***   
       UNOS                 IUNOS          OFF         [  0]    ***   
       UPDATE_HESS          IHUPDT         ON          [  1]    ***   
       VIBPHASE             ISETPH         STANDARD    [  0]    ***   
       VIBRATION            IVIB           ANALYTIC    [  1]    ***   
       VIB_ALGORIT          IGEALG         STANDARD    [  0]    ***   
       VNATORB              IVNORB         OFF         [  0]    ***   
       VTRAN                IVTRAN         FULL/PARTIAL[  0]    ***   
       XFIELD               IXEFLD              0             x 10-6  
       XFORM_TOL            IXFTOL          10D- 11             ***   
       YFIELD               IYEFLD              0             x 10-6  
       ZFIELD               IZEFLD            ***             x 10-6  
       ZSCALE_EXP           IZEXPS         OFF         [  0]    ***   
    -------------------------------------------------------------------
   2 entries found in Z-matrix 
   Job Title : Carbon Monoxide DBOC calculation                                                
   There are  1 unique internal coordinates.
   Of these,  0 will be optimized.
   User supplied Z-matrix: 
--------------------------------------------------------------------------------
       SYMBOL    BOND      LENGTH    ANGLE     ANGLE     DIHED     ANGLE
                  TO      (ANGST)    WRT      (DEG)      WRT      (DEG)
--------------------------------------------------------------------------------
        C    
        O          1         r    
                  *Initial values for internal coordinates* 
                      Name             Value
                        r               0.9620689655
--------------------------------------------------------------------------------
  read isotopes from ZMAT file 
   Rotational constants (in cm-1): 
          2.5393284920             2.5393284920
   Rotational constants (in MHz): 
      76127.1636936908         76127.1636936908
********************************************************************************
   The full molecular point group is CXv .
   The largest Abelian subgroup of the full molecular point group is C2v .
   The computational point group is C2v .
********************************************************************************
--------------------------------------------------------------------------------
   Analysis of internal coordinates specified by Z-matrix 
--------------------------------------------------------------------------------
   *The nuclear repulsion energy is   26.401954236559135 a.u.
   *There is   1 degree of freedom within the tot. symm. molecular subspace.
   *Z-matrix requests optimization of   0 coordinates.
   *The optimization is constrained.
   *The following   1 parameters can have non-zero 
    derivatives within the totally symmetric subspace:
             r    [ 1]
   *The following   0 parameters are to be optimized:

   *The following coordinates must be varied in an  unconstrained optimization.
             r    [ 1]
--------------------------------------------------------------------------------


 ----------------------------------------------------------------
         Coordinates used in calculation (QCOMP) 
 ----------------------------------------------------------------
 Z-matrix   Atomic            Coordinates (in bohr)
  Symbol    Number           X              Y              Z
 ----------------------------------------------------------------
     C         6        -0.00000000     0.00000000     1.00280158
     O         8         0.00000000     0.00000000    -0.81524566
 ----------------------------------------------------------------
 
   Interatomic distance matrix (Angstroms) 
 
                 C             O    
                [ 1]        [ 2]
  C    [ 1]     0.00000
  O    [ 2]     0.96207     0.00000
 rotcon2
   Rotational constants (in cm-1): 
          2.5393284920             0.0000000000
   Rotational constants (in MHz): 
      76127.1636936908             0.0000000000
  ECPDATA file not present.   Using default ECPDATA. 
  @GTFLGS-I, Hessian will be transformed to curvilinear coordinates.
  There are  218 basis functions.
 @CHECKOUT-I, Total execution time (CPU/WALL):        0.09/       0.11 seconds.
--executable xjoda finished with status     0 in        0.12 seconds (walltime).
 --invoking executable--
/nfs/workspaces/public/cfour_mpi/bin/xvmol
 SERIAL VERSION OF MOLECULE STARTED
********************************************************************************
                    INPUT FROM MOL FILE
********************************************************************************
INTGRL        1    0    1    0    0    0    0    0    0                         
         *** CFOUR Program System (Release V0.1) ***                            
Carbon Monoxide DBOC calculation                                                
    2    2 X  Y       0.10E-08              0    0                              
   9999.00      3.00                                                            
          6.00000000    1    5    1    1    1    1    1                         
C #1  -0.000000000000000   0.000000000000000   1.002801578308798                
   16    9                                                                      
   33980.0000000000       9.100000000000000E-005 -1.900000000000000E-005        
  0.000000000000000E+000  0.000000000000000E+000  0.000000000000000E+000        
  0.000000000000000E+000  0.000000000000000E+000  0.000000000000000E+000        
  0.000000000000000E+000                                                        
   5089.00000000000       7.040000000000000E-004 -1.510000000000000E-004        
  0.000000000000000E+000  0.000000000000000E+000  0.000000000000000E+000        
  0.000000000000000E+000  0.000000000000000E+000  0.000000000000000E+000        
  0.000000000000000E+000                                                        
   1157.00000000000       3.693000000000000E-003 -7.850000000000000E-004        
  0.000000000000000E+000  0.000000000000000E+000  0.000000000000000E+000        
  0.000000000000000E+000  0.000000000000000E+000  0.000000000000000E+000        
  0.000000000000000E+000                                                        
   326.600000000000       1.536000000000000E-002 -3.324000000000000E-003        
  0.000000000000000E+000  0.000000000000000E+000  0.000000000000000E+000        
  0.000000000000000E+000  0.000000000000000E+000  0.000000000000000E+000        
  0.000000000000000E+000                                                        
   106.100000000000       5.292900000000000E-002 -1.151200000000000E-002        
  0.000000000000000E+000  0.000000000000000E+000  0.000000000000000E+000        
  0.000000000000000E+000  0.000000000000000E+000  0.000000000000000E+000        
  0.000000000000000E+000                                                        
   38.1100000000000       0.147043000000000      -3.416000000000000E-002        
  0.000000000000000E+000  0.000000000000000E+000  0.000000000000000E+000        
  0.000000000000000E+000  0.000000000000000E+000  0.000000000000000E+000        
  0.000000000000000E+000                                                        
   14.7500000000000       0.305631000000000      -7.717300000000001E-002        
  0.000000000000000E+000  0.000000000000000E+000  0.000000000000000E+000        
  0.000000000000000E+000  0.000000000000000E+000  0.000000000000000E+000        
  0.000000000000000E+000                                                        
   6.03500000000000       0.399345000000000      -0.141493000000000             
  0.000000000000000E+000  0.000000000000000E+000  0.000000000000000E+000        
  0.000000000000000E+000  0.000000000000000E+000  0.000000000000000E+000        
  0.000000000000000E+000                                                        
   2.53000000000000       0.217051000000000      -0.118019000000000             
  0.000000000000000E+000  0.000000000000000E+000  0.000000000000000E+000        
  0.000000000000000E+000  0.000000000000000E+000  0.000000000000000E+000        
  0.000000000000000E+000                                                        
  0.735500000000000       1.589400000000000E-002  0.273806000000000             
   1.00000000000000       0.000000000000000E+000  0.000000000000000E+000        
  0.000000000000000E+000  0.000000000000000E+000  0.000000000000000E+000        
  0.000000000000000E+000                                                        
  0.290500000000000      -3.084000000000000E-003  0.586510000000000             
  0.000000000000000E+000   1.00000000000000       0.000000000000000E+000        
  0.000000000000000E+000  0.000000000000000E+000  0.000000000000000E+000        
  0.000000000000000E+000                                                        
  0.111100000000000       9.779999999999999E-004  0.285430000000000             
  0.000000000000000E+000  0.000000000000000E+000   1.00000000000000             
  0.000000000000000E+000  0.000000000000000E+000  0.000000000000000E+000        
  0.000000000000000E+000                                                        
   7.21600000000000       0.000000000000000E+000  0.000000000000000E+000        
  0.000000000000000E+000  0.000000000000000E+000  0.000000000000000E+000        
   1.00000000000000       0.000000000000000E+000  0.000000000000000E+000        
  0.000000000000000E+000                                                        
   19.5700000000000       0.000000000000000E+000  0.000000000000000E+000        
  0.000000000000000E+000  0.000000000000000E+000  0.000000000000000E+000        
  0.000000000000000E+000   1.00000000000000       0.000000000000000E+000        
  0.000000000000000E+000                                                        
   53.0730000000000       0.000000000000000E+000  0.000000000000000E+000        
  0.000000000000000E+000  0.000000000000000E+000  0.000000000000000E+000        
  0.000000000000000E+000  0.000000000000000E+000   1.00000000000000             
  0.000000000000000E+000                                                        
  4.145000000000000E-002  0.000000000000000E+000  0.000000000000000E+000        
  0.000000000000000E+000  0.000000000000000E+000  0.000000000000000E+000        
  0.000000000000000E+000  0.000000000000000E+000  0.000000000000000E+000        
   1.00000000000000                                                             
   10    8                                                                      
   34.5100000000000       5.378000000000000E-003  0.000000000000000E+000        
  0.000000000000000E+000  0.000000000000000E+000  0.000000000000000E+000        
  0.000000000000000E+000  0.000000000000000E+000  0.000000000000000E+000        
   7.91500000000000       3.613200000000000E-002  0.000000000000000E+000        
  0.000000000000000E+000  0.000000000000000E+000  0.000000000000000E+000        
  0.000000000000000E+000  0.000000000000000E+000  0.000000000000000E+000        
   2.36800000000000       0.142493000000000       0.000000000000000E+000        
  0.000000000000000E+000  0.000000000000000E+000  0.000000000000000E+000        
  0.000000000000000E+000  0.000000000000000E+000  0.000000000000000E+000        
  0.813200000000000       0.342150000000000        1.00000000000000             
  0.000000000000000E+000  0.000000000000000E+000  0.000000000000000E+000        
  0.000000000000000E+000  0.000000000000000E+000  0.000000000000000E+000        
  0.289000000000000       0.463864000000000       0.000000000000000E+000        
   1.00000000000000       0.000000000000000E+000  0.000000000000000E+000        
  0.000000000000000E+000  0.000000000000000E+000  0.000000000000000E+000        
  0.100700000000000       0.250028000000000       0.000000000000000E+000        
  0.000000000000000E+000   1.00000000000000       0.000000000000000E+000        
  0.000000000000000E+000  0.000000000000000E+000  0.000000000000000E+000        
   8.18200000000000       0.000000000000000E+000  0.000000000000000E+000        
  0.000000000000000E+000  0.000000000000000E+000   1.00000000000000             
  0.000000000000000E+000  0.000000000000000E+000  0.000000000000000E+000        
   24.1860000000000       0.000000000000000E+000  0.000000000000000E+000        
  0.000000000000000E+000  0.000000000000000E+000  0.000000000000000E+000        
   1.00000000000000       0.000000000000000E+000  0.000000000000000E+000        
   71.4940000000000       0.000000000000000E+000  0.000000000000000E+000        
  0.000000000000000E+000  0.000000000000000E+000  0.000000000000000E+000        
  0.000000000000000E+000   1.00000000000000       0.000000000000000E+000        
  3.218000000000000E-002  0.000000000000000E+000  0.000000000000000E+000        
  0.000000000000000E+000  0.000000000000000E+000  0.000000000000000E+000        
  0.000000000000000E+000  0.000000000000000E+000   1.00000000000000             
    6    6                                                                      
   1.84800000000000        1.00000000000000       0.000000000000000E+000        
  0.000000000000000E+000  0.000000000000000E+000  0.000000000000000E+000        
  0.000000000000000E+000                                                        
  0.649000000000000       0.000000000000000E+000   1.00000000000000             
  0.000000000000000E+000  0.000000000000000E+000  0.000000000000000E+000        
  0.000000000000000E+000                                                        
  0.228000000000000       0.000000000000000E+000  0.000000000000000E+000        
   1.00000000000000       0.000000000000000E+000  0.000000000000000E+000        
  0.000000000000000E+000                                                        
   8.65600000000000       0.000000000000000E+000  0.000000000000000E+000        
  0.000000000000000E+000   1.00000000000000       0.000000000000000E+000        
  0.000000000000000E+000                                                        
   33.2130000000000       0.000000000000000E+000  0.000000000000000E+000        
  0.000000000000000E+000  0.000000000000000E+000   1.00000000000000             
  0.000000000000000E+000                                                        
  7.660000000000000E-002  0.000000000000000E+000  0.000000000000000E+000        
  0.000000000000000E+000  0.000000000000000E+000  0.000000000000000E+000        
   1.00000000000000                                                             
    4    4                                                                      
   1.41900000000000        1.00000000000000       0.000000000000000E+000        
  0.000000000000000E+000  0.000000000000000E+000                                
  0.485000000000000       0.000000000000000E+000   1.00000000000000             
  0.000000000000000E+000  0.000000000000000E+000                                
   24.6940000000000       0.000000000000000E+000  0.000000000000000E+000        
   1.00000000000000       0.000000000000000E+000                                
  0.187000000000000       0.000000000000000E+000  0.000000000000000E+000        
  0.000000000000000E+000   1.00000000000000                                     
    2    2                                                                      
   1.01100000000000        1.00000000000000       0.000000000000000E+000        
  0.424000000000000       0.000000000000000E+000   1.00000000000000             
          8.00000000    1    5    1    1    1    1    1                         
O #2   0.000000000000000   0.000000000000000  -0.815245660540429                
   16    9                                                                      
   61420.0000000000       9.000000000000001E-005 -2.000000000000000E-005        
  0.000000000000000E+000  0.000000000000000E+000  0.000000000000000E+000        
  0.000000000000000E+000  0.000000000000000E+000  0.000000000000000E+000        
  0.000000000000000E+000                                                        
   9199.00000000000       6.980000000000001E-004 -1.590000000000000E-004        
  0.000000000000000E+000  0.000000000000000E+000  0.000000000000000E+000        
  0.000000000000000E+000  0.000000000000000E+000  0.000000000000000E+000        
  0.000000000000000E+000                                                        
   2091.00000000000       3.664000000000000E-003 -8.290000000000000E-004        
  0.000000000000000E+000  0.000000000000000E+000  0.000000000000000E+000        
  0.000000000000000E+000  0.000000000000000E+000  0.000000000000000E+000        
  0.000000000000000E+000                                                        
   590.900000000000       1.521800000000000E-002 -3.508000000000000E-003        
  0.000000000000000E+000  0.000000000000000E+000  0.000000000000000E+000        
  0.000000000000000E+000  0.000000000000000E+000  0.000000000000000E+000        
  0.000000000000000E+000                                                        
   192.300000000000       5.242300000000000E-002 -1.215600000000000E-002        
  0.000000000000000E+000  0.000000000000000E+000  0.000000000000000E+000        
  0.000000000000000E+000  0.000000000000000E+000  0.000000000000000E+000        
  0.000000000000000E+000                                                        
   69.3200000000000       0.145921000000000      -3.626100000000000E-002        
  0.000000000000000E+000  0.000000000000000E+000  0.000000000000000E+000        
  0.000000000000000E+000  0.000000000000000E+000  0.000000000000000E+000        
  0.000000000000000E+000                                                        
   26.9700000000000       0.305258000000000      -8.299200000000000E-002        
  0.000000000000000E+000  0.000000000000000E+000  0.000000000000000E+000        
  0.000000000000000E+000  0.000000000000000E+000  0.000000000000000E+000        
  0.000000000000000E+000                                                        
   11.1000000000000       0.398508000000000      -0.152090000000000             
  0.000000000000000E+000  0.000000000000000E+000  0.000000000000000E+000        
  0.000000000000000E+000  0.000000000000000E+000  0.000000000000000E+000        
  0.000000000000000E+000                                                        
   4.68200000000000       0.216980000000000      -0.115331000000000             
  0.000000000000000E+000  0.000000000000000E+000  0.000000000000000E+000        
  0.000000000000000E+000  0.000000000000000E+000  0.000000000000000E+000        
  0.000000000000000E+000                                                        
   1.42800000000000       1.759400000000000E-002  0.288979000000000             
   1.00000000000000       0.000000000000000E+000  0.000000000000000E+000        
  0.000000000000000E+000  0.000000000000000E+000  0.000000000000000E+000        
  0.000000000000000E+000                                                        
  0.554700000000000      -2.502000000000000E-003  0.586128000000000             
  0.000000000000000E+000   1.00000000000000       0.000000000000000E+000        
  0.000000000000000E+000  0.000000000000000E+000  0.000000000000000E+000        
  0.000000000000000E+000                                                        
  0.206700000000000       9.540000000000000E-004  0.277624000000000             
  0.000000000000000E+000  0.000000000000000E+000   1.00000000000000             
  0.000000000000000E+000  0.000000000000000E+000  0.000000000000000E+000        
  0.000000000000000E+000                                                        
   12.9740000000000       0.000000000000000E+000  0.000000000000000E+000        
  0.000000000000000E+000  0.000000000000000E+000  0.000000000000000E+000        
   1.00000000000000       0.000000000000000E+000  0.000000000000000E+000        
  0.000000000000000E+000                                                        
   34.9000000000000       0.000000000000000E+000  0.000000000000000E+000        
  0.000000000000000E+000  0.000000000000000E+000  0.000000000000000E+000        
  0.000000000000000E+000   1.00000000000000       0.000000000000000E+000        
  0.000000000000000E+000                                                        
   93.8810000000000       0.000000000000000E+000  0.000000000000000E+000        
  0.000000000000000E+000  0.000000000000000E+000  0.000000000000000E+000        
  0.000000000000000E+000  0.000000000000000E+000   1.00000000000000             
  0.000000000000000E+000                                                        
  6.959000000000000E-002  0.000000000000000E+000  0.000000000000000E+000        
  0.000000000000000E+000  0.000000000000000E+000  0.000000000000000E+000        
  0.000000000000000E+000  0.000000000000000E+000  0.000000000000000E+000        
   1.00000000000000                                                             
   10    8                                                                      
   63.4200000000000       6.044000000000000E-003  0.000000000000000E+000        
  0.000000000000000E+000  0.000000000000000E+000  0.000000000000000E+000        
  0.000000000000000E+000  0.000000000000000E+000  0.000000000000000E+000        
   14.6600000000000       4.179900000000000E-002  0.000000000000000E+000        
  0.000000000000000E+000  0.000000000000000E+000  0.000000000000000E+000        
  0.000000000000000E+000  0.000000000000000E+000  0.000000000000000E+000        
   4.45900000000000       0.161143000000000       0.000000000000000E+000        
  0.000000000000000E+000  0.000000000000000E+000  0.000000000000000E+000        
  0.000000000000000E+000  0.000000000000000E+000  0.000000000000000E+000        
   1.53100000000000       0.356731000000000        1.00000000000000             
  0.000000000000000E+000  0.000000000000000E+000  0.000000000000000E+000        
  0.000000000000000E+000  0.000000000000000E+000  0.000000000000000E+000        
  0.530200000000000       0.448309000000000       0.000000000000000E+000        
   1.00000000000000       0.000000000000000E+000  0.000000000000000E+000        
  0.000000000000000E+000  0.000000000000000E+000  0.000000000000000E+000        
  0.175000000000000       0.244940000000000       0.000000000000000E+000        
  0.000000000000000E+000   1.00000000000000       0.000000000000000E+000        
  0.000000000000000E+000  0.000000000000000E+000  0.000000000000000E+000        
   14.4750000000000       0.000000000000000E+000  0.000000000000000E+000        
  0.000000000000000E+000  0.000000000000000E+000   1.00000000000000             
  0.000000000000000E+000  0.000000000000000E+000  0.000000000000000E+000        
   42.7300000000000       0.000000000000000E+000  0.000000000000000E+000        
  0.000000000000000E+000  0.000000000000000E+000  0.000000000000000E+000        
   1.00000000000000       0.000000000000000E+000  0.000000000000000E+000        
   126.140000000000       0.000000000000000E+000  0.000000000000000E+000        
  0.000000000000000E+000  0.000000000000000E+000  0.000000000000000E+000        
  0.000000000000000E+000   1.00000000000000       0.000000000000000E+000        
  5.348000000000000E-002  0.000000000000000E+000  0.000000000000000E+000        
  0.000000000000000E+000  0.000000000000000E+000  0.000000000000000E+000        
  0.000000000000000E+000  0.000000000000000E+000   1.00000000000000             
    6    6                                                                      
   3.77500000000000        1.00000000000000       0.000000000000000E+000        
  0.000000000000000E+000  0.000000000000000E+000  0.000000000000000E+000        
  0.000000000000000E+000                                                        
   1.30000000000000       0.000000000000000E+000   1.00000000000000             
  0.000000000000000E+000  0.000000000000000E+000  0.000000000000000E+000        
  0.000000000000000E+000                                                        
  0.444000000000000       0.000000000000000E+000  0.000000000000000E+000        
   1.00000000000000       0.000000000000000E+000  0.000000000000000E+000        
  0.000000000000000E+000                                                        
   14.9270000000000       0.000000000000000E+000  0.000000000000000E+000        
  0.000000000000000E+000   1.00000000000000       0.000000000000000E+000        
  0.000000000000000E+000                                                        
   57.5440000000000       0.000000000000000E+000  0.000000000000000E+000        
  0.000000000000000E+000  0.000000000000000E+000   1.00000000000000             
  0.000000000000000E+000                                                        
  0.154000000000000       0.000000000000000E+000  0.000000000000000E+000        
  0.000000000000000E+000  0.000000000000000E+000  0.000000000000000E+000        
   1.00000000000000                                                             
    4    4                                                                      
   2.66600000000000        1.00000000000000       0.000000000000000E+000        
  0.000000000000000E+000  0.000000000000000E+000                                
  0.859000000000000       0.000000000000000E+000   1.00000000000000             
  0.000000000000000E+000  0.000000000000000E+000                                
   26.4830000000000       0.000000000000000E+000  0.000000000000000E+000        
   1.00000000000000       0.000000000000000E+000                                
  0.324000000000000       0.000000000000000E+000  0.000000000000000E+000        
  0.000000000000000E+000   1.00000000000000                                     
    2    2                                                                      
   1.84600000000000        1.00000000000000       0.000000000000000E+000        
  0.714000000000000       0.000000000000000E+000   1.00000000000000             
FINISH                                                                          
 
********************************************************************************
 ONE- AND TWO-ELECTRON INTEGRALS OVER SYMMETRY-ADAPTED AOS ARE CALCULATED.

  SPHERICAL HARMONICS ARE USED.
  
  INTEGRALS LESS THAN  0.10E-13 ARE NEGLECTED.

  NUCLEAR REPULSION ENERGY :   26.4019542366 A.U.
  @MOLECU-I, ONE ELECTRON INTEGRALS (CPU/WALL):        0.08/       0.09 SECONDS.
  @TWOEL-I,    4689670 INTEGRALS OF SYMMETRY TYPE  I I I I
  @TWOEL-I,   20066131 INTEGRALS OF SYMMETRY TYPE  I J I J
  @TWOEL-I,   10577989 INTEGRALS OF SYMMETRY TYPE  I I J J
  @TWOEL-I,   14816758 INTEGRALS OF SYMMETRY TYPE  I J K L
  @TWOEL-I, TOTAL NUMBER OF 2-E INTEGRALS   50150548.
  @MOLECU-I, TWO ELECTRON INTEGRALS (CPU/WALL):      183.81/      26.89 SECONDS.
 @CHECKOUT-I, Total execution time (CPU/WALL):      183.90/      26.99 seconds.

Running with 14 threads/proc

--executable xvmol finished with status     0 in       27.01 seconds (walltime).
 --invoking executable--
/nfs/workspaces/public/cfour_mpi/bin/xvmol2ja
 @GETMEM-I,  Allocated    3814 MB of main memory.
 @CHECKOUT-I, Total execution time (CPU/WALL):        0.21/       0.07 seconds.
--executable xvmol2ja finished with status     0 in        0.08 seconds (walltime).
 --invoking executable--
/nfs/workspaces/public/cfour_mpi/bin/xvprop
 @GETMEM-I,  Allocated    3814 MB of main memory.
   Property integrals will be calculated.
    --------------------------------------------------------------
                                   Property evaluated at 
    Property type                X             Y             Z
    --------------------------------------------------------------
    Dipole moment               ----          ----          ----  
    Quadrupole moment           ----          ----          ----  
    Octopole moment             ----          ----          ----  
    Relativisitic corr.         ----          ----          ----  
    Second moment            0.0000000     0.0000000     0.0000000
    Electron density         0.0000000     0.0000000     1.0028016
    Electron density         0.0000000     0.0000000    -0.8152457
    Field gradient           0.0000000     0.0000000     1.0028016
    Field gradient           0.0000000     0.0000000    -0.8152457
    Potential                0.0000000     0.0000000     1.0028016
    Potential                0.0000000     0.0000000    -0.8152457
    --------------------------------------------------------------
 @CHECKOUT-I, Total execution time (CPU/WALL):        1.36/       1.39 seconds.
--executable xvprop finished with status     0 in        1.40 seconds (walltime).
 --invoking executable--
/nfs/workspaces/public/cfour_mpi/bin/xvscf
  There are  218 functions in the AO basis.

  There are 4 irreducible representations.

       Irrep        # of functions
         1                 86
         2                 52
         3                 52
         4                 28


  Parameters for SCF calculation: 
        SCF reference function:  RHF  
  Maximum number of iterations:  150
     Full symmetry point group: CXv 
     Computational point group: C2v 
        Initial density matrix: MOREAD                 
     SCF convergence tolerance: 10**(-10)
  DIIS convergence acceleration:  ON
          Latest start for DIIS:   8
                     DIIS order:   6

  Memory information:    2523578 words required.
  Fock matrices are constructed from AO integral file.
 @GETMEM-I,  Allocated      19 MB of main memory.
  Initialization and symmetry analysis required      0.001 seconds.

  Adding electric field perturbation to one-electron Hamiltonian.
  Field direction     : Z
  Field strength      : -0.0002000 a.u.

  @INITGES-I, Occupancies from core Hamiltonian:

          Alpha population by irrep:   5    1    1    0
           Beta population by irrep:   5    1    1    0


 total no. of electrons in initial guess :  0.000000000000000E+000
  --------------------------------------------------------------------
  Iteration         Total Energy            Largest Density Difference
  --------------------------------------------------------------------
       0            26.401853205396502              0.0000000000D+00
   current occupation vector 
     5  1  1  0
     5  1  1  0
       1           -90.117248260413717              0.2023699336D+02
   current occupation vector 
     5  1  1  0
     5  1  1  0
       2           -92.352050749852751              0.1105182138D+03
   current occupation vector 
     5  1  1  0
     5  1  1  0
       3          -104.307560791392561              0.1105322673D+03
   current occupation vector 
     4  1  2  0
     4  1  2  0
       4          -102.296165440062182              0.1563032155D+02
   current occupation vector 
     5  1  1  0
     5  1  1  0
       5          -106.355380046334645              0.1562901511D+02
   current occupation vector 
     4  1  2  0
     4  1  2  0
       6          -103.713355408508207              0.1142613197D+02
   current occupation vector 
     5  1  1  0
     5  1  1  0
       7          -105.090816100149752              0.1114932432D+02
   current occupation vector 
     5  1  1  0
     5  1  1  0
       8          -102.540684196696034              0.4935667904D+01
   current occupation vector 
     5  1  1  0
     5  1  1  0
       9          -112.064073536718624              0.3255536209D+01
   current occupation vector 
     5  1  1  0
     5  1  1  0
      10          -112.619902837512612              0.7056811752D+00
   current occupation vector 
     5  1  1  0
     5  1  1  0
      11          -112.714402457128742              0.2309683735D+00
   current occupation vector 
     5  1  1  0
     5  1  1  0
      12          -112.716653200828816              0.4560977347D-01
   current occupation vector 
     5  1  1  0
     5  1  1  0
      13          -112.716750984629257              0.1351997839D-01
   current occupation vector 
     5  1  1  0
     5  1  1  0
      14          -112.716759228424834              0.3913543839D-02
   current occupation vector 
     5  1  1  0
     5  1  1  0
      15          -112.716760635792539              0.2053294647D-02
   current occupation vector 
     5  1  1  0
     5  1  1  0
      16          -112.716760749730057              0.5579326630D-03
   current occupation vector 
     5  1  1  0
     5  1  1  0
      17          -112.716760753845662              0.1252418878D-03
   current occupation vector 
     5  1  1  0
     5  1  1  0
      18          -112.716760753943120              0.1347318863D-04
   current occupation vector 
     5  1  1  0
     5  1  1  0
      19          -112.716760753946929              0.1995686433D-05
   current occupation vector 
     5  1  1  0
     5  1  1  0
      20          -112.716760753947383              0.6224886953D-06
   current occupation vector 
     5  1  1  0
     5  1  1  0
      21          -112.716760753947753              0.1053167291D-06
   current occupation vector 
     5  1  1  0
     5  1  1  0
      22          -112.716760753947611              0.2540965327D-07
   current occupation vector 
     5  1  1  0
     5  1  1  0
      23          -112.716760753946502              0.5865108843D-08
   current occupation vector 
     5  1  1  0
     5  1  1  0
      24          -112.716760753947327              0.1994043597D-08
   current occupation vector 
     5  1  1  0
     5  1  1  0
      25          -112.716760753947867              0.9524996347D-09
   current occupation vector 
     5  1  1  0
     5  1  1  0
      26          -112.716760753946929              0.2086439910D-09
   current occupation vector 
     5  1  1  0
     5  1  1  0
      27          -112.716760753946900              0.1352589152D-09
   current occupation vector 
     5  1  1  0
     5  1  1  0
      28          -112.716760753946502              0.4808274612D-09
   current occupation vector 
     5  1  1  0
     5  1  1  0
      29          -112.716760753947298              0.3357514822D-09
   current occupation vector 
     5  1  1  0
     5  1  1  0
      30          -112.716760753948520              0.1951987738D-08
   current occupation vector 
     5  1  1  0
     5  1  1  0
      31          -112.716760753947241              0.2008550881D-08
   current occupation vector 
     5  1  1  0
     5  1  1  0
      32          -112.716760753947810              0.1272936756D-09
   current occupation vector 
     5  1  1  0
     5  1  1  0

  SCF has converged.

 Density matrix saved to file den.dat
 total electron number:   14.0000000000001     
     E(SCF)=      -112.716760753946559              0.6316860923D-10

  Eigenvector printing suppressed.

 @PUTMOS-I, Writing converged MOs to NEWMOS. 
 @PUTMOS-I, Symmetry   1 Full Blocks 21 Partial Blocksize   2
 @PUTMOS-I, Symmetry   2 Full Blocks 13 Partial Blocksize   0
 @PUTMOS-I, Symmetry   3 Full Blocks 13 Partial Blocksize   0
 @PUTMOS-I, Symmetry   4 Full Blocks  7 Partial Blocksize   0
 @PUTFOCK-I, Writing converged Fock matrix to NEWFOCK. 
 @PUTFOCK-I, Symmetry   1 Full Blocks 21 Partial Blocksize   2
 @PUTFOCK-I, Symmetry   2 Full Blocks 13 Partial Blocksize   0
 @PUTFOCK-I, Symmetry   3 Full Blocks 13 Partial Blocksize   0
 @PUTFOCK-I, Symmetry   4 Full Blocks  7 Partial Blocksize   0


 
  ORBITAL EIGENVALUES (ALPHA)  (1H = 27.2113834 eV)

       MO #        E(hartree)               E(eV)           FULLSYM    COMPSYM
       ----   --------------------   --------------------   -------   ---------
    1     1         -20.6524965739        -561.9830024383     SG+        A1 (1)
    2     2         -11.2846393812        -307.0706487313     SG+        A1 (1)
    3     3          -1.6396013308         -44.6158204346     SG+        A1 (1)
    4     4          -0.8187248227         -22.2786350485     SG+        A1 (1)
    5   139          -0.7239787084         -19.7004622069      PI        B2 (3)
    6    87          -0.7239787084         -19.7004622068      PI        B1 (2)
    7     5          -0.5308989679         -14.4464953635     SG+        A1 (1)
  +++++++++++++++++++++++++++++++++++++++++++++++++++++++++++++++++++++++++++++
    8     6           0.0575741861           1.5666732527     SG+        A1 (1)
    9   140           0.0645022140           1.7551944754      PI        B2 (3)
   10    88           0.0645022140           1.7551944754      PI        B1 (2)
   11     7           0.0759115930           2.0656594605     SG+        A1 (1)
   12    89           0.1550208606           4.2183320739      PI        B1 (2)
   13   141           0.1550208606           4.2183320739      PI        B2 (3)
   14     8           0.1566152167           4.2617167082     SG+        A1 (1)
   15   142           0.1985625460           5.4031615670      PI        B2 (3)
   16    90           0.1985625460           5.4031615670      PI        B1 (2)
   17     9           0.2268852012           6.1738601963     SG+        A1 (1)
   18    10           0.2270958065           6.1795910585      DE        A1 (1)
   19   191           0.2270958065           6.1795910585      DE        A2 (4)
   20    11           0.3019960981           8.2177316117     SG+        A1 (1)
   21    91           0.3418135915           9.3012206900      PI        B1 (2)
   22   143           0.3418135915           9.3012206901      PI        B2 (3)
   23    12           0.3980292661          10.8309269648     SG+        A1 (1)
   24    92           0.4050390314          11.0216723755      PI        B1 (2)
   25   144           0.4050390314          11.0216723756      PI        B2 (3)
   26    13           0.5080158999          13.8238154249     SG+        A1 (1)
   27   192           0.5218168385          14.1993580571      DE        A2 (4)
   28    14           0.5218168385          14.1993580572      DE        A1 (1)
   29   145           0.6182159762          16.8225119513      PI        B2 (3)
   30    93           0.6182159762          16.8225119513      PI        B1 (2)
   31    15           0.6613623876          17.9965854950     SG+        A1 (1)
   32    94           0.7500176209          20.4090170401      PH        B1 (2)
   33   146           0.7500176209          20.4090170401      PH        B2 (3)
   34   193           0.7699486676          20.9513683928      DE        A2 (4)
   35    16           0.7699486676          20.9513683928      DE        A1 (1)
   36    17           0.7930356614          21.5795974328     SG+        A1 (1)
   37    95           0.8448445264          22.9893883221      PI        B1 (2)
   38   147           0.8448445264          22.9893883222      PI        B2 (3)
   39    96           0.8707952700          23.6955439535      PI        B1 (2)
   40   148           0.8707952700          23.6955439539      PI        B2 (3)
   41    18           0.8784187158          23.9029884616     SG+        A1 (1)
   42   194           0.9057817988          24.6475758046      DE        A2 (4)
   43    19           0.9057817988          24.6475758046      DE        A1 (1)
   44    20           0.9610275026          26.1508878323     SG+        A1 (1)
   45    97           1.1220968901          30.5338086879      PI        B1 (2)
   46   149           1.1220968901          30.5338086879      PI        B2 (3)
   47    21           1.3425641727          36.5330284428     SG+        A1 (1)
   48    98           1.4584101622          39.6853580776      PH        B1 (2)
   49   150           1.4584101622          39.6853580776      PH        B2 (3)
   50   195           1.4977345906          40.7554301761      DE        A2 (4)
   51    22           1.4977345906          40.7554301761      DE        A1 (1)
   52   151           1.5277282748          41.5715998166      PI        B2 (3)
   53    99           1.5277282748          41.5715998166      PI        B1 (2)
   54    23           1.5592837343          42.4302675234     SG+        A1 (1)
   55    24           1.6568145790          45.0842167322     SG+        A1 (1)
   56    25           1.7634514738          47.9859541608     SG+        A1 (1)
   57   196           1.7753813733          48.3105832289      DE        A2 (4)
   58    26           1.7753813733          48.3105832290      DE        A1 (1)
   59   100           1.8641922722          50.7272506495      PI        B1 (2)
   60   152           1.8641922722          50.7272506503      PI        B2 (3)
   61   101           1.9923399657          54.2143266709      PI        B1 (2)
   62   153           1.9923399657          54.2143266709      PI        B2 (3)
   63   197           2.1149082724          57.5495798555      PI        A2 (4)
   64    27           2.1149082724          57.5495798555      PI        A1 (1)
   65    28           2.2266327600          60.5897577245     SG+        A1 (1)
   66    29           2.2353214800          60.8261898154      DE        A1 (1)
   67   198           2.2353214800          60.8261898154      DE        A2 (4)
   68   102           2.2631514668          61.5834822551      PH        B1 (2)
   69   154           2.2631514668          61.5834822551      PH        B2 (3)
   70    30           2.3440990404          63.7861777157     SG+        A1 (1)
   71   155           2.3542577938          64.0626114508      PI        B2 (3)
   72   103           2.3542577938          64.0626114508      PI        B1 (2)
   73   199           2.3886677794          64.9989547593      DE        A2 (4)
   74    31           2.3886677794          64.9989547593      DE        A1 (1)
   75   104           2.4275454177          66.0568690816      PH        B1 (2)
   76   156           2.4275454177          66.0568690816      PH        B2 (3)
   77    32           2.6045159710          70.8724826587     SG+        A1 (1)
   78   157           2.6111368289          71.0526453617      PI        B2 (3)
   79   105           2.6111368289          71.0526453617      PI        B1 (2)
   80   106           3.0239121209          82.2848320885      PI        B1 (2)
   81   158           3.0239121209          82.2848320886      PI        B2 (3)
   82   200           3.1392111817          85.4222790387      DE        A2 (4)
   83    33           3.1392111817          85.4222790391      DE        A1 (1)
   84    34           3.1543065350          85.8330444850     SG+        A1 (1)
   85    35           3.3752840603          91.8461486480     SG+        A1 (1)
   86   107           3.7497415961         102.0356562224      PI        B1 (2)
   87   159           3.7497415961         102.0356562234      PI        B2 (3)
   88   201           3.7679127559         102.5301186196      PI        A2 (4)
   89    36           3.7679127559         102.5301186196      PI        A1 (1)
   90    37           3.9987878147         108.8125483601     SG+        A1 (1)
   91   108           4.0636470599         110.5774581481      PH        B1 (2)
   92   160           4.0636470599         110.5774581481      PH        B2 (3)
   93   202           4.1809412074         113.7691941673      DE        A2 (4)
   94    38           4.1809412074         113.7691941673      DE        A1 (1)
   95   109           4.2144698635         114.6815552841      PI        B1 (2)
   96   161           4.2144698635         114.6815552841      PI        B2 (3)
   97    39           4.3401030579         118.1002083039     SG+        A1 (1)
   98   203           4.4573052077         121.2894409374      DE        A2 (4)
   99    40           4.4573052077         121.2894409375      DE        A1 (1)
  100   110           4.4859428993         122.0687121426      PH        B1 (2)
  101   162           4.4859428993         122.0687121426      PH        B2 (3)
  102    41           4.6986334093         127.8563151570     SG+        A1 (1)
  103   111           4.8902746046         133.0711371976      PI        B1 (2)
  104   163           4.8902746046         133.0711371980      PI        B2 (3)
  105    42           5.1002202105         138.7840475719     SG+        A1 (1)
  106   204           5.2034400529         141.5928022786      DE        A2 (4)
  107    43           5.2034400529         141.5928022787      DE        A1 (1)
  108   112           5.3282529155         144.9891329368      PI        B1 (2)
  109   164           5.3282529155         144.9891329369      PI        B2 (3)
  110   205           5.9267678882         161.2755533292      PI        A2 (4)
  111    44           5.9267678882         161.2755533292      PI        A1 (1)
  112   113           5.9942860864         163.1128169077      PI        B1 (2)
  113   165           5.9942860865         163.1128169082      PI        B2 (3)
  114    45           6.1585326341         167.5821926868     SG+        A1 (1)
  115   114           6.3010303333         171.4597522137      PH        B1 (2)
  116   166           6.3010303333         171.4597522137      PH        B2 (3)
  117    46           6.3364593390         172.4238244713     SG+        A1 (1)
  118   206           6.3414446991         172.5594830175      DE        A2 (4)
  119    47           6.3414446991         172.5594830176      DE        A1 (1)
  120   115           6.4027038275         174.2264286470      PI        B1 (2)
  121   167           6.4027038275         174.2264286471      PI        B2 (3)
  122   116           6.5219820834         177.4721550003      PH        B1 (2)
  123   168           6.5219820834         177.4721550003      PH        B2 (3)
  124   207           6.7463586704         183.5777523343      DE        A2 (4)
  125    48           6.7463586704         183.5777523346      DE        A1 (1)
  126    49           7.1475380072         194.4943970788     SG+        A1 (1)
  127   117           7.9276119728         215.7212888376      PI        B1 (2)
  128   169           7.9276119728         215.7212888379      PI        B2 (3)
  129   208           8.0685488003         219.5563748861      DE        A2 (4)
  130    50           8.0685488003         219.5563748864      DE        A1 (1)
  131    51           8.5011698530         231.3285922181     SG+        A1 (1)
  132    52           8.8397434436         240.5416480005     SG+        A1 (1)
  133   118           8.9511836506         243.5740902006      PI        B1 (2)
  134   170           8.9511836507         243.5740902018      PI        B2 (3)
  135    53           9.8635096853         268.3997437160     SG+        A1 (1)
  136   119          10.1830874546         277.0958969228      PI        B1 (2)
  137   171          10.1830874546         277.0958969230      PI        B2 (3)
  138   209          10.6056005715         288.5930633384      PI        A2 (4)
  139    54          10.6056005715         288.5930633384      PI        A1 (1)
  140   172          11.0399585936         300.4125460115      PH        B2 (3)
  141   120          11.0399585936         300.4125460115      PH        B1 (2)
  142   210          11.3398987624         308.5743329404      DE        A2 (4)
  143    55          11.3398987624         308.5743329404      DE        A1 (1)
  144    56          11.3762806522         309.5643344939     SG+        A1 (1)
  145   121          11.4582826616         311.7957226097      PI        B1 (2)
  146   173          11.4582826616         311.7957226098      PI        B2 (3)
  147   122          11.8721874586         323.0586447313      PH        B1 (2)
  148   174          11.8721874586         323.0586447313      PH        B2 (3)
  149   211          12.4606893158         339.0725944003      DE        A2 (4)
  150    57          12.4606893158         339.0725944011      DE        A1 (1)
  151    58          12.7894676466         348.0191076147     SG+        A1 (1)
  152   212          13.1245313046         357.1366532753      DE        A2 (4)
  153    59          13.1245313046         357.1366532754      DE        A1 (1)
  154   123          13.1856417437         358.7995528626      PI        B1 (2)
  155   175          13.1856417437         358.7995528627      PI        B2 (3)
  156    60          14.1115289874         383.9942256368     SG+        A1 (1)
  157   124          15.1317275287         411.7552392870      PI        B1 (2)
  158   176          15.1317275287         411.7552392877      PI        B2 (3)
  159    61          15.6587682684         426.0967469226     SG+        A1 (1)
  160    62          18.8619847516         513.2606987610     SG+        A1 (1)
  161   125          19.6763621262         535.4210337338      PI        B1 (2)
  162   177          19.6763621263         535.4210337348      PI        B2 (3)
  163    63          21.5453974780         586.2800712797     SG+        A1 (1)
  164   213          26.7481938701         727.8553586562      DE        A2 (4)
  165    64          26.7481938701         727.8553586564      DE        A1 (1)
  166   126          27.7475327392         755.0487517696      PI        B1 (2)
  167   178          27.7475327392         755.0487517696      PI        B2 (3)
  168    65          29.0021510048         789.1886504159     SG+        A1 (1)
  169   179          33.9855663584         924.7942762449      PI        B2 (3)
  170   127          33.9855663584         924.7942762450      PI        B1 (2)
  171    66          36.0615249255         981.2839807364     SG+        A1 (1)
  172    67          37.4620848469        1019.3951537321     SG+        A1 (1)
  173    68          47.2132513898        1284.7378851291      DE        A1 (1)
  174   214          47.2132513898        1284.7378851291      DE        A2 (4)
  175   128          48.1712889733        1310.8074131259      PI        B1 (2)
  176   180          48.1712889734        1310.8074131261      PI        B2 (3)
  177    69          48.8086274669        1328.1502752290     SG+        A1 (1)
  178    70          64.8973763392        1765.9473892196     SG+        A1 (1)
  179   129          67.1077218033        1826.0939470891      PI        B1 (2)
  180   181          67.1077218033        1826.0939470895      PI        B2 (3)
  181    71          68.5261187043        1864.6904889762     SG+        A1 (1)
  182   182          98.7649493224        2687.5309024946      PH        B2 (3)
  183   130          98.7649493224        2687.5309024946      PH        B1 (2)
  184    72          98.8127034386        2688.8303580573      DE        A1 (1)
  185   215          98.8127034386        2688.8303580573      DE        A2 (4)
  186   131          98.8745548626        2690.5134208708      PI        B1 (2)
  187   183          98.8745548626        2690.5134208708      PI        B2 (3)
  188    73          98.9237491219        2691.8520647207     SG+        A1 (1)
  189   184         103.3006718404        2810.9541869265      PH        B2 (3)
  190   132         103.3006718404        2810.9541869265      PH        B1 (2)
  191    74         103.3705817987        2812.8565336067      DE        A1 (1)
  192   216         103.3705817988        2812.8565336083      DE        A2 (4)
  193   133         103.4488256419        2814.9856568228      PI        B1 (2)
  194   185         103.4488256419        2814.9856568228      PI        B2 (3)
  195    75         103.5551629850        2817.8792430340     SG+        A1 (1)
  196   217         115.3467798294        3138.7454498944      DE        A2 (4)
  197    76         115.3467798294        3138.7454498944      DE        A1 (1)
  198   134         115.8362622677        3152.0649441887      PI        B1 (2)
  199   186         115.8362622677        3152.0649441887      PI        B2 (3)
  200    77         116.3376404549        3165.7081382693     SG+        A1 (1)
  201   187         117.2113788624        3189.4837690665      PI        B2 (3)
  202   135         117.2113788624        3189.4837690667      PI        B1 (2)
  203    78         119.1027791802        3240.9513882779     SG+        A1 (1)
  204    79         123.3905407382        3357.6273119610     SG+        A1 (1)
  205   218         198.6444420062        5405.3900717103      DE        A2 (4)
  206    80         198.6444420062        5405.3900717104      DE        A1 (1)
  207   136         199.1738977286        5419.7972943647      PI        B1 (2)
  208   188         199.1738977286        5419.7972943650      PI        B2 (3)
  209    81         199.5279816795        5429.4324085080     SG+        A1 (1)
  210    82         217.3069496500        5913.2227224096     SG+        A1 (1)
  211   137         225.4998487840        6136.1628419039      PI        B1 (2)
  212   189         225.4998487840        6136.1628419042      PI        B2 (3)
  213    83         226.6440882481        6167.2991806635     SG+        A1 (1)
  214   138         395.6325462211       10765.7089007419      PI        B1 (2)
  215   190         395.6325462212       10765.7089007420      PI        B2 (3)
  216    84         397.0043868035       10803.0385807930     SG+        A1 (1)
  217    85         509.8194485559       13872.8924794322     SG+        A1 (1)
  218    86         896.1761135462       24386.1918196273     SG+        A1 (1)


  VSCF finished.

 @CHECKOUT-I, Total execution time (CPU/WALL):       59.82/      12.32 seconds.
--executable xvscf finished with status     0 in       12.34 seconds (walltime).
 --invoking executable--
/nfs/workspaces/public/cfour_mpi/bin/xvtran
 @GETMEM-I,  Allocated    3814 MB of main memory.
  Full RHF integral transformation
  Transformation of IIII integrals :
  1 pass through the AO integral file was required.
     4689670 AO integrals were read.
     8927130 MO integrals were written to HF2.
  Transformation of IIJJ integrals :
  1 pass through the AO integral file was required.
    10577989 AO integrals were read.
    14766227 MO integrals were written to HF2.
  Transformation of IJIJ integrals :
  1 pass through the AO integral file was required.
    20066131 AO integrals were read.
    28227396 MO integrals were written to HF2.
  Transformation of IJKL integrals :
  1 pass through the AO integral file was required.
    14816758 AO integrals were read.
    19145146 MO integrals were written to HF2.
  Summary of active molecular orbitals: 
------------------------------------------------------------------------
 
  Index      Eigenvalue    Symmetry    Index      Eigenvalue    Symmetry
------------------------------------------------------------------------
     1       -20.6524966        1       110         4.2144699        2
     2       -11.2846394        1       111         4.4859429        2
     3        -1.6396013        1       112         4.8902746        2
     4        -0.8187248        1       113         5.3282529        2
     5        -0.5308990        1       114         5.9942861        2
     6        -0.7239787        2       115         6.3010303        2
     7        -0.7239787        3       116         6.4027038        2
     8         0.0575742        1       117         6.5219821        2
     9         0.0759116        1       118         7.9276120        2
    10         0.1566152        1       119         8.9511837        2
    11         0.2268852        1       120        10.1830875        2
    12         0.2270958        1       121        11.0399586        2
    13         0.3019961        1       122        11.4582827        2
    14         0.3980293        1       123        11.8721875        2
    15         0.5080159        1       124        13.1856417        2
    16         0.5218168        1       125        15.1317275        2
    17         0.6613624        1       126        19.6763621        2
    18         0.7699487        1       127        27.7475327        2
    19         0.7930357        1       128        33.9855664        2
    20         0.8784187        1       129        48.1712890        2
    21         0.9057818        1       130        67.1077218        2
    22         0.9610275        1       131        98.7649493        2
    23         1.3425642        1       132        98.8745549        2
    24         1.4977346        1       133       103.3006718        2
    25         1.5592837        1       134       103.4488256        2
    26         1.6568146        1       135       115.8362623        2
    27         1.7634515        1       136       117.2113789        2
    28         1.7753814        1       137       199.1738977        2
    29         2.1149083        1       138       225.4998488        2
    30         2.2266328        1       139       395.6325462        2
    31         2.2353215        1       140         0.0645022        3
    32         2.3440990        1       141         0.1550209        3
    33         2.3886678        1       142         0.1985625        3
    34         2.6045160        1       143         0.3418136        3
    35         3.1392112        1       144         0.4050390        3
    36         3.1543065        1       145         0.6182160        3
    37         3.3752841        1       146         0.7500176        3
    38         3.7679128        1       147         0.8448445        3
    39         3.9987878        1       148         0.8707953        3
    40         4.1809412        1       149         1.1220969        3
    41         4.3401031        1       150         1.4584102        3
    42         4.4573052        1       151         1.5277283        3
    43         4.6986334        1       152         1.8641923        3
    44         5.1002202        1       153         1.9923400        3
    45         5.2034401        1       154         2.2631515        3
    46         5.9267679        1       155         2.3542578        3
    47         6.1585326        1       156         2.4275454        3
    48         6.3364593        1       157         2.6111368        3
    49         6.3414447        1       158         3.0239121        3
    50         6.7463587        1       159         3.7497416        3
    51         7.1475380        1       160         4.0636471        3
    52         8.0685488        1       161         4.2144699        3
    53         8.5011699        1       162         4.4859429        3
    54         8.8397434        1       163         4.8902746        3
    55         9.8635097        1       164         5.3282529        3
    56        10.6056006        1       165         5.9942861        3
    57        11.3398988        1       166         6.3010303        3
    58        11.3762807        1       167         6.4027038        3
    59        12.4606893        1       168         6.5219821        3
    60        12.7894676        1       169         7.9276120        3
    61        13.1245313        1       170         8.9511837        3
    62        14.1115290        1       171        10.1830875        3
    63        15.6587683        1       172        11.0399586        3
    64        18.8619848        1       173        11.4582827        3
    65        21.5453975        1       174        11.8721875        3
    66        26.7481939        1       175        13.1856417        3
    67        29.0021510        1       176        15.1317275        3
    68        36.0615249        1       177        19.6763621        3
    69        37.4620848        1       178        27.7475327        3
    70        47.2132514        1       179        33.9855664        3
    71        48.8086275        1       180        48.1712890        3
    72        64.8973763        1       181        67.1077218        3
    73        68.5261187        1       182        98.7649493        3
    74        98.8127034        1       183        98.8745549        3
    75        98.9237491        1       184       103.3006718        3
    76       103.3705818        1       185       103.4488256        3
    77       103.5551630        1       186       115.8362623        3
    78       115.3467798        1       187       117.2113789        3
    79       116.3376405        1       188       199.1738977        3
    80       119.1027792        1       189       225.4998488        3
    81       123.3905407        1       190       395.6325462        3
    82       198.6444420        1       191         0.2270958        4
    83       199.5279817        1       192         0.5218168        4
    84       217.3069496        1       193         0.7699487        4
    85       226.6440882        1       194         0.9057818        4
    86       397.0043868        1       195         1.4977346        4
    87       509.8194486        1       196         1.7753814        4
    88       896.1761135        1       197         2.1149083        4
    89         0.0645022        2       198         2.2353215        4
    90         0.1550209        2       199         2.3886678        4
    91         0.1985625        2       200         3.1392112        4
    92         0.3418136        2       201         3.7679128        4
    93         0.4050390        2       202         4.1809412        4
    94         0.6182160        2       203         4.4573052        4
    95         0.7500176        2       204         5.2034401        4
    96         0.8448445        2       205         5.9267679        4
    97         0.8707953        2       206         6.3414447        4
    98         1.1220969        2       207         6.7463587        4
    99         1.4584102        2       208         8.0685488        4
   100         1.5277283        2       209        10.6056006        4
   101         1.8641923        2       210        11.3398988        4
   102         1.9923400        2       211        12.4606893        4
   103         2.2631515        2       212        13.1245313        4
   104         2.3542578        2       213        26.7481939        4
   105         2.4275454        2       214        47.2132514        4
   106         2.6111368        2       215        98.8127034        4
   107         3.0239121        2       216       103.3705818        4
   108         3.7497416        2       217       115.3467798        4
   109         4.0636471        2       218       198.6444420        4
------------------------------------------------------------------------
  -20.6524965738521       -11.2846393811529       -1.63960133076485     
 -0.818724822658543      -0.530898967948264      -0.723978708364848     
 -0.723978708368693       5.757418612776415E-002  7.591159295790875E-002
  0.156615216712633       0.226885201152530       0.227095806472962     
  0.301996098137357       0.398029266117927       0.508015899878402     
  0.521816838505798       0.661362387588403       0.769948667616024     
  0.793035661420898       0.878418715810206       0.905781798827266     
  0.961027502641494        1.34256417271341        1.49773459059581     
   1.55928373429905        1.65681457901053        1.76345147379720     
   1.77538137326193        2.11490827237636        2.22663276004041     
   2.23532148003049        2.34409904039191        2.38866777935741     
   2.60451597101618        3.13921118171133        3.15430653500085     
[...]
 Convergence information after     6 iterations: 
 Largest element of residual vector : -0.37762822E-03.
 Largest element of DIIS residual   : -0.96485675E-04.
 Convergence information after     7 iterations: 
 Largest element of residual vector : -0.65803384E-04.
 Largest element of DIIS residual   : -0.29114203E-04.
 Convergence information after     8 iterations: 
 Largest element of residual vector : -0.17936221E-04.
 Largest element of DIIS residual   :  0.11420470E-04.
 Convergence information after     9 iterations: 
 Largest element of residual vector :  0.57676347E-05.
 Largest element of DIIS residual   :  0.27032455E-05.
 Convergence information after    10 iterations: 
 Largest element of residual vector :  0.21474004E-05.
 Largest element of DIIS residual   :  0.11932243E-05.
 Convergence information after    11 iterations: 
 Largest element of residual vector :  0.61341584E-06.
 Largest element of DIIS residual   :  0.33701047E-06.
 Convergence information after    12 iterations: 
 Largest element of residual vector :  0.24916808E-06.
 Largest element of DIIS residual   :  0.16338762E-06.
 Convergence information after    13 iterations: 
 Largest element of residual vector :  0.10373204E-06.
 Largest element of DIIS residual   :  0.81294215E-07.
 Perturbed amplitude equations converged in    13 iterations.
  Dominant contributions to perturbed wavefunction:
    7    7  142   37   0.2588233018 ABAB
    7    7   37  142   0.2588233018 ABAB
    7    7  142   63   0.2093114696 ABAB
    7    7   63  142   0.2093114696 ABAB
    5    5  142   43   0.1874101682 ABAB
    5    5   43  142   0.1874101682 ABAB
    7    7  142   48   0.1845860564 ABAB
    7    7   48  142   0.1845860564 ABAB
    7    7  142   27   0.1804222883 ABAB
    7    7   27  142   0.1804222883 ABAB
    7    6   37   91   0.1777976872 ABAB
    6    7   91   37   0.1777976872 ABAB
    5    5  142   54   0.1666633524 ABAB
    5    5   54  142   0.1666633524 ABAB
    7    7  142   43   0.1618321019 ABAB
    7    7   43  142   0.1618321019 ABAB
    7    7  143   37   0.1599999313 ABAB
    7    7   37  143   0.1599999313 ABAB
    5    5  142   30  -0.1526515040 ABAB
    5    5   30  142  -0.1526515040 ABAB
  norm of converged amps    2.92884424816211     
 Starting iterative solution of the perturbed Lambda equations.
 The DIIS procedure is used to accelerate convergence.
 Convergence criterion is 10**(-7).
 Maximum number of iterations is 100.
 Convergence information after     1 iterations: 
 Largest element of residual vector : -0.59782730E-01.
 Largest element of DIIS residual   : -0.59782730E-01.
 Convergence information after     2 iterations: 
 Largest element of residual vector :  0.56388715E-02.
 Largest element of DIIS residual   :  0.62789529E-02.
 Convergence information after     3 iterations: 
 Largest element of residual vector : -0.35663538E-02.
 Largest element of DIIS residual   : -0.31723664E-02.
 Convergence information after     4 iterations: 
 Largest element of residual vector : -0.22075211E-02.
 Largest element of DIIS residual   : -0.16490572E-02.
 Convergence information after     5 iterations: 
 Largest element of residual vector : -0.11486506E-02.
 Largest element of DIIS residual   : -0.50943059E-03.
 Convergence information after     6 iterations: 
 Largest element of residual vector : -0.35096417E-03.
 Largest element of DIIS residual   : -0.86031103E-04.
 Convergence information after     7 iterations: 
 Largest element of residual vector : -0.58585672E-04.
 Largest element of DIIS residual   : -0.24158194E-04.
 Convergence information after     8 iterations: 
 Largest element of residual vector : -0.14496631E-04.
 Largest element of DIIS residual   :  0.99778878E-05.
 Convergence information after     9 iterations: 
 Largest element of residual vector :  0.51217665E-05.
 Largest element of DIIS residual   :  0.23655373E-05.
 Convergence information after    10 iterations: 
 Largest element of residual vector :  0.18751741E-05.
 Largest element of DIIS residual   :  0.10670375E-05.
 Convergence information after    11 iterations: 
 Largest element of residual vector :  0.56245156E-06.
 Largest element of DIIS residual   :  0.32105694E-06.
 Convergence information after    12 iterations: 
 Largest element of residual vector :  0.23241623E-06.
 Largest element of DIIS residual   :  0.15122325E-06.
 Convergence information after    13 iterations: 
 Largest element of residual vector :  0.96702934E-07.
 Largest element of DIIS residual   :  0.73543382E-07.
 Perturbed Lambda equations converged in    13 iterations.
  Dominant contributions to perturbed wavefunction:
    7    7  142   37   0.2491407069 ABAB
    7    7   37  142   0.2491407069 ABAB
    7    7  142   63   0.2012573980 ABAB
    7    7   63  142   0.2012573980 ABAB
    5    5  142   43   0.1799666305 ABAB
    5    5   43  142   0.1799666305 ABAB
    7    7  142   48   0.1776550656 ABAB
    7    7   48  142   0.1776550656 ABAB
    7    7  142   27   0.1730341964 ABAB
    7    7   27  142   0.1730341964 ABAB
    7    6   37   91   0.1694555241 ABAB
    6    7   91   37   0.1694555241 ABAB
    5    5  142   54   0.1599935341 ABAB
    5    5   54  142   0.1599935341 ABAB
    7    7  143   37   0.1546587002 ABAB
    7    7   37  143   0.1546587002 ABAB
    7    7  142   43   0.1543566071 ABAB
    7    7   43  142   0.1543566071 ABAB
    5    5  142   30  -0.1467871567 ABAB
    5    5   30  142  -0.1467871567 ABAB
        The DBOC first-order density matrix is being calculated 
             (Symmetry block 3, perturbation   2)
 term   10.2727005790847     
 final tnorm  0.906353939740014     
  norm contr. I: |<0|L dT/dx|0>|^2   0.000000000000000E+000
  norm contr. II: <0|[nabla(1+L)e-T][nabla e^T]|0>   10.2727005790847     
  total norm contribution   10.2727005790847     
 oo  1.367097733169690E-002
 vv  -77.1795907063618     
 vo  1.380755832653576E-002
  Correlated perturbed 1-el contribution to DBOC  -77.1521121707036       cm**-1
  SUM_I |dc_I/dx|^2 contribution to DBOC   38.6737345641673       cm**-1
 
 
  The total diagonal Born-Oppenheimer correction (DBOC) is:      0.0040289114 a.u.
  The total diagonal Born-Oppenheimer correction (DBOC) is:        884.243840 cm-1
 
 Total CC energy including DBOC  -113.193712651969     
 First-order density matrix is being calculated  (Symmetry block 3, perturbation   2)
 Calculation of the contributions of <pq||rs> to dI(i,j)/dx required   2.0 seconds.
 Calculation of the contributions of <pq||rs> to dI(a,b)/dx required  15.4 seconds.
 Calculation of the contributions of <pq||rs> to dI(i,a)/dx required   9.3 seconds.
 First-order Z-vector equations are solved for 1 perturbation.
 Convergence reached after  17 iterations.
        U*G(pq,rs) contribution is being calculated
             (Symmetry block 3, perturbation   2)

 CCSD contribution to force constants 

        0.0000000000        0.0000000000        0.0000000000
        0.0000000000        0.0000000000        0.0000000000
        0.0000000000        0.0000000000        0.0000000000
        0.0000000000        0.0000000000        0.0000000000
        0.0000000000        0.0000000000        0.0000000000
        0.0000000000        0.0000000000        0.0000000000
        0.0000000000        0.0000000000        0.0000000000
        0.0000000000        0.0000000000        0.0000000000
        0.0000000000        0.0000000000        0.0000000000
        0.0000000000        0.0000000000        0.0000000000
        0.0000000000        0.0000000000        0.0000000000
        0.0000000000      -13.9637786161       13.9637786161

 CCSD contribution to dipole derivatives 

        0.0000000000        0.0000000000        0.0000000000
        0.0000000000        0.0000000000        0.0000000000
        0.0000000000        0.0000000000        0.0000000000
        0.0000000000        0.0000000000       -0.0373880052
        0.0000000000        0.0000000000        0.0000000000
        0.0000000000        0.0000000000        0.0000000000
 @CHECKOUT-I, Total execution time (CPU/WALL):      962.80/     262.28 seconds.
--executable xsdcc finished with status     0 in      262.31 seconds (walltime).
 --invoking executable--
/nfs/workspaces/public/cfour_mpi/bin/xanti
 @GETMEM-I,  Allocated    3814 MB of main memory.
 CCSD MO derivative gammas will be sorted to Mulliken order.
 @CHECKOUT-I, Total execution time (CPU/WALL):        9.67/      15.03 seconds.
--executable xanti finished with status     0 in       15.05 seconds (walltime).
 --invoking executable--
/nfs/workspaces/public/cfour_mpi/bin/xbcktrn
 @GETMEM-I,  Allocated    3814 MB of main memory.
 CCSD MO derivative gammas will be transformed to the AO basis.
 @CHECKOUT-I, Total execution time (CPU/WALL):       29.11/       5.35 seconds.
--executable xbcktrn finished with status     0 in        5.36 seconds (walltime).
 --invoking executable--
/nfs/workspaces/public/cfour_mpi/bin/xvdint
 @GETMEM-I,  Allocated    3814 MB of main memory.
 One- and two-electron integral derivatives are calculated
 for RHF-CC/MBPT hessians and dipole derivatives.
 Spherical gaussians are used.
  magnet F F
                    8722  records have been written to the Sort file.
  Total length of Sort file :             178609116  words.
 Evaluation of 2el integral derivatives

                      Two-electron integral gradient
                      ------------------------------

                         C #1 z     0.0000000000
                         O #2 z     0.0000000000


 C #1       0.0000000000           -1.7497897582            0.0000000000
 O #2       0.0000000000            1.7497897582            0.0000000000


 Evaluation of 2e integral derivatives required  345.19 seconds.
  contribution to Hessian
        0.0000000000        0.0000000000        0.0000000000
        0.0000000000       -1.7497897582        1.7497897582
 @CHECKOUT-I, Total execution time (CPU/WALL):      345.19/      69.24 seconds.
--executable xvdint finished with status     0 in       69.26 seconds (walltime).
 --invoking executable--
/nfs/workspaces/public/cfour_mpi/bin/xanti
 @GETMEM-I,  Allocated    3814 MB of main memory.
 CCSD MO gammas will be sorted to Mulliken order.
 @CHECKOUT-I, Total execution time (CPU/WALL):       12.03/      10.65 seconds.
--executable xanti finished with status     0 in       10.67 seconds (walltime).
 --invoking executable--
/nfs/workspaces/public/cfour_mpi/bin/xbcktrn
 @GETMEM-I,  Allocated    3814 MB of main memory.
 CCSD MO gammas will be transformed to the AO basis.
 @CHECKOUT-I, Total execution time (CPU/WALL):       26.76/       5.06 seconds.
--executable xbcktrn finished with status     0 in        5.07 seconds (walltime).
 --invoking executable--
/nfs/workspaces/public/cfour_mpi/bin/xvdint
 @GETMEM-I,  Allocated    3814 MB of main memory.
 One- and two-electron integral derivatives are calculated
 for RHF-CC/MBPT hessians and dipole derivatives.
 Spherical gaussians are used.
  magnet F F

                     Kinetic energy integral gradient
                     --------------------------------

                         C #1 z    -1.9706364564
                         O #2 z     1.9706364564


 C #1       0.0000000000            0.0000000000           -1.9706364564
 O #2       0.0000000000            0.0000000000            1.9706364564



                   Nuclear attraction integral gradient
                   ------------------------------------

                         C #1 z    27.8634712376
                         O #2 z   -27.8634712376


 C #1       0.0000000000            0.0000000000           27.8634712376
 O #2       0.0000000000            0.0000000000          -27.8634712376



                      Reorthonormalization gradient
                      -----------------------------

                         C #1 z     0.0000000000
                         O #2 z     0.0000000000


 C #1       0.0000000000            0.0000000000            0.0000000000
 O #2       0.0000000000            0.0000000000            0.0000000000



                     Kinetic energy integral Hessian
                     -------------------------------


           Symmetry 1

           C #1 z      O #2 z

 C #1 z    0.517817
 O #2 z   -0.517817    0.517817


           Symmetry 2

           C #1 x      O #2 x

 C #1 x   -3.613839
 O #2 x    3.613839   -3.613839


           Symmetry 3

           C #1 y      O #2 y

 C #1 y   -3.613839
 O #2 y    3.613839   -3.613839




           C #1 x      C #1 y      C #1 z      O #2 x      O #2 y      O #2 z

 C #1 x   -3.613839
 C #1 y    0.000000   -3.613839
 C #1 z    0.000000    0.000000    0.517817

 O #2 x    3.613839    0.000000    0.000000   -3.613839
 O #2 y    0.000000    3.613839    0.000000    0.000000   -3.613839
 O #2 z    0.000000    0.000000   -0.517817    0.000000    0.000000    0.517817




                   Nuclear attraction integral Hessian
                   -----------------------------------


           Symmetry 1

           C #1 z      O #2 z

 C #1 z  -12.400823
 O #2 z   12.400823  -12.400823


           Symmetry 2

           C #1 x      O #2 x

 C #1 x   32.207288
 O #2 x  -32.207288   32.207288


           Symmetry 3

           C #1 y      O #2 y

 C #1 y   32.207288
 O #2 y  -32.207288   32.207288




           C #1 x      C #1 y      C #1 z      O #2 x      O #2 y      O #2 z

 C #1 x   32.207288
 C #1 y    0.000000   32.207288
 C #1 z    0.000000    0.000000  -12.400823

 O #2 x  -32.207288    0.000000    0.000000   32.207288
 O #2 y    0.000000  -32.207288    0.000000    0.000000   32.207288
 O #2 z    0.000000    0.000000   12.400823    0.000000    0.000000  -12.400823




                Highest order reorthonormalization Hessian
                ------------------------------------------


           Symmetry 1

           C #1 z      O #2 z

 C #1 z    0.000000
 O #2 z    0.000000    0.000000


           Symmetry 2

           C #1 x      O #2 x

 C #1 x    0.000000
 O #2 x    0.000000    0.000000


           Symmetry 3

           C #1 y      O #2 y

 C #1 y    0.000000
 O #2 y    0.000000    0.000000




           C #1 x      C #1 y      C #1 z      O #2 x      O #2 y      O #2 z




                Electronic contributions to dipole moment
                -----------------------------------------

                               au             Debye

                    z      0.24425799      0.62084199

  Conversion factor used: 1 a.u. =   2.54174691 Debye 



   Electronic contributions to static part of dipole moment derivatives
   --------------------------------------------------------------------


                     Total dipole moment derivatives
                     -------------------------------


           Symmetry 1
                              Ez

               C #1 z    -5.84404472
               O #2 z    -8.15595528

           Symmetry 2
                              Ex

               C #1 x    -5.89687821
               O #2 x    -8.10312179

           Symmetry 3
                              Ey

               C #1 y    -5.89687821
               O #2 y    -8.10312179



                       Ex          Ey          Ez

      C #1    x   -5.896878    0.000000    0.000000
      C #1    y    0.000000   -5.896878    0.000000
      C #1    z    0.000000    0.000000   -5.844045

      O #2    x   -8.103122    0.000000    0.000000
      O #2    y    0.000000   -8.103122    0.000000
      O #2    z    0.000000    0.000000   -8.155955

 Evaluation of 1e integral derivatives required    1.70 seconds.
                    8815  records have been written to the Sort file.
  Total length of Sort file :             180513570  words.
 Evaluation of 2el integral derivatives

                      Two-electron integral gradient
                      ------------------------------

                         C #1 z   -11.8341378535
                         O #2 z    11.8341378535


 C #1       0.0000000000            0.0000000000          -11.8341378535
 O #2       0.0000000000            0.0000000000           11.8341378535


 Evaluation of 2e integral derivatives required  673.73 seconds.

                            Molecular gradient
                            ------------------

                         C #1 z    -0.4634528120
                         O #2 z     0.4634528120


 C #1       0.0000000000            0.0000000000           -0.4634528120
 O #2       0.0000000000            0.0000000000            0.4634528120


  Molecular gradient norm 0.655E+00

                            Molecular hessian
                            -----------------


           Symmetry 1

           C #1 z      O #2 z

 C #1 z  102.501248
 O #2 z -102.501248  102.501248


           Symmetry 2

           C #1 x      O #2 x

 C #1 x   14.758862
 O #2 x  -14.758862   14.758862


           Symmetry 3

           C #1 y      O #2 y

 C #1 y   14.758862
 O #2 y  -14.758862   14.758862




           C #1 x      C #1 y      C #1 z      O #2 x      O #2 y      O #2 z

 C #1 x   14.758862
 C #1 y    0.000000   14.758862
 C #1 z    0.000000    0.000000  102.501248

 O #2 x  -14.758862    0.000000    0.000000   14.758862
 O #2 y    0.000000  -14.758862    0.000000    0.000000   14.758862
 O #2 z    0.000000    0.000000 -102.501248    0.000000    0.000000  102.501248




                           Total dipole moment
                           -------------------

                               au             Debye

                    z     -0.26089782     -0.66313624

  Conversion factor used: 1 a.u. =   2.54174691 Debye 



                     Total dipole moment derivatives
                     -------------------------------


           Symmetry 1
                              Ez

               C #1 z     0.65187807
               O #2 z    -0.65187807

           Symmetry 2
                              Ex

               C #1 x    -0.14449661
               O #2 x     0.14449661

           Symmetry 3
                              Ey

               C #1 y    -0.14449661
               O #2 y     0.14449661



                       Ex          Ey          Ez

      C #1    x   -0.144497    0.000000    0.000000
      C #1    y    0.000000   -0.144497    0.000000
      C #1    z    0.000000    0.000000    0.651878

      O #2    x    0.144497    0.000000    0.000000
      O #2    y    0.000000    0.144497    0.000000
      O #2    z    0.000000    0.000000   -0.651878

 @CHECKOUT-I, Total execution time (CPU/WALL):      675.43/     113.15 seconds.
--executable xvdint finished with status     0 in      113.17 seconds (walltime).
 --invoking executable--
/nfs/workspaces/public/cfour_mpi/bin/xjoda
  @GTFLGS-I, Hessian will be transformed to curvilinear coordinates.
  @GTFLGS-I, Hessian will be transformed to curvilinear coordinates.
  igrd and ihes are                      0                     1
  gradient from JOBARC 
   0.000000000000000   0.000000000000000  -0.463452812047077
   0.000000000000000   0.000000000000000   0.463452812047077
 
  @PROJFCM-I, Projecting force constant matrix onto totally symmetric subspace.
  Largest difference between matrix elements of symmetrized
  and unsymmetrized FCM :    -0.3016005223E-09.
  read isotopes from ZMAT file 
 
  Summary of diagonal Born-Oppenheimer correction at the correlated level
  The total diagonal Born-Oppenheimer correction (DBOC) is:      0.0040289114 a.u.
  The total diagonal Born-Oppenheimer correction (DBOC) is:        884.243840 cm-1
  The total diagonal Born-Oppenheimer correction (DBOC) is:            10.578 kJ/mole
  hellooooooo 
  readis is  F
 
 @CHECKOUT-I, Total execution time (CPU/WALL):        0.01/       0.06 seconds.
--executable xjoda finished with status     0 in        0.10 seconds (walltime).
  The final electronic energy is      -113.193712651969477 a.u. 
  This computation required                         2709.07 seconds (walltime).
