 --invoking executable--
/nfs/workspaces/public/cfour_mpi/bin/xjoda


   *************************************************************************
         <<<     CCCCCC     CCCCCC   |||     CCCCCC     CCCCCC   >>>
       <<<      CCC        CCC       |||    CCC        CCC         >>>
      <<<      CCC        CCC        |||   CCC        CCC            >>>
    <<<        CCC        CCC        |||   CCC        CCC              >>>
      <<<      CCC        CCC        |||   CCC        CCC            >>>
       <<<      CCC        CCC       |||    CCC        CCC         >>>
         <<<     CCCCCC     CCCCCC   |||     CCCCCC     CCCCCC   >>>
   *************************************************************************

     ****************************************************************
     * CFOUR Coupled-Cluster techniques for Computational Chemistry *
     ****************************************************************
 

   Department of Chemistry                Institut fuer Physikalische Chemie
   University of Florida                  Universitaet Mainz
   Gainesville, FL 32611, USA             D-55099 Mainz, Germany

   Department of Chemistry                Fakultaet fuer Chemie und Biowiss.
   Johns Hopkins University               Karlsruher Institut fuer Technologie
   Baltimore, MD 21218, USA               D-76131 Karlsruhe, Germany

   Department of Chemistry                Department of Physical Chemistry
   Southern Methodist University          Eotvos Lorand University
   Dallas, TX 75275, USA                  H-1053 Budapest, Hungary

 
                       Version 2.1
 
                     vincent.theory.phys.ucl.ac.uk                     
                     Tue  4 Mar 11:14:02 GMT 2025                      
                     integer*8 version is running
 
********************************************************************************
*                          Input from ZMAT file                                *
********************************************************************************
Carbon Monoxide DBOC calculation                                                
C                                                                               
O 1 r                                                                           
                                                                                
r=1.7689655172413794                                                            
                                                                                
                                                                                
*CFOUR(CALC=CCSD,BASIS=AUG-PCVQZ,SCF_CONV=10                                    
CC_CONV=14,DBOC=ON,MEMORY=500000000                                             
ZFIELD=200)                                                                     
                                                                                
%isotopes                                                                       
13                                                                              
16                                                                              
********************************************************************************
  @GTFLGS-I, Hessian will be transformed to curvilinear coordinates.
    -------------------------------------------------------------------
                    CFOUR Control Parameters 
    -------------------------------------------------------------------
        External           Internal           Value            Units
          Name               Name
    -------------------------------------------------------------------
       ABCDTYPE             IABCDT         STANDARD    [  0]    ***   
       ANHARMONIC           IANHAR         OFF         [  0]    ***   
       ANH_ALGORIT          IANALG         STANDARD    [  0]    ***   
       ANH_DERIVAT          IANDER         SECOND      [  1]    ***   
       ANH_MODE             ANHMOD         VIBRATION   [  0]    ***   
       ANH_STEPSIZ          ICUBST             50000          x 10-6  
       ANH_SYMMETR          IANHSM         ABELIAN     [  0]    ***   
       AO_LADDERS           IAOLAD         SINGLEPASS  [  1]    ***   
       AV_SCF               IAVSCF         OFF         [  0]    ***   
       BASIS                IBASIS         AUG-PCVQZ   [ 52]    ***   
       BOTHVECTORS          BOTHVC         OFF         [  0]    ***   
       BOX_POTENT           IPIAB          OFF         [  0]    ***   
       BREIT                IBREIT         OFF         [  0]    ***   
       BRUCK_CONV           IBRTOL          10D-  4             ***   
       BRUECKNER            IBRKNR         OFF         [  0]    ***   
       BUFFERSIZE           IBUFFS              4096            ***   
       CACHE_RECS           ICHREC             10               ***   
       CALCLEVEL            ICLLVL         CCSD        [ 10]    ***   
       CCORBOPT             ICCORB         OFF         [  0]  x 0.01  
       CC_CONV              ICCCNV          10D- 14             ***   
       CC_EXPORDER          ICCEOR              5               ***   
       CC_EXTRAPOL          ICCEXT         DIIS        [  1]    ***   
       CC_GUESS             ICCGES         MP2         [  0]    ***   
       CC_MAXCYC            ICCCYC            100              cycles 
       CC_PROGRAM           ICCPRO         VCC         [  0]    ***   
       CHARGE               ICHRGE              0               ***   
       CHOLESKY             ICHOLE         OFF         [  0]    ***   
       CIS_CONV             ICISTL              5               ***   
       COMM_SIZE            IPSIZE            ***               ***   
       CONSTANT             ICONST         OLD         [  1]    ***   
       CONTINUUM            ICONTU         NONE        [  0]    ***   
       CONTRACTION          ICNTYP         GENERAL     [  1]    ***   
       COORDINATES          ICOORD         INTERNAL    [  0]    ***   
       CPHF_CONVER          ICPHFT          10D- 16             ***   
       CPHF_MAXCYC          ICPHFC             64              cycles 
       CUBIC                ICUBIC         OFF         [  0]    ***   
       CURVILINEAR          ICURVY         ON          [  1]    ***   
       DBOC                 IDBOC          ON          [  1]    ***   
       DCT                  IDCT           OFF         [  0]    ***   
       DERIV_LEV            IDRLVL         SECOND      [  2]    ***   
       DEVMEM_SIZE          IDVMEM          50000000           MByte  
       DIAG_MRCC            IEOMST          10D-  0             ***   
       DIFF_TYPE            IDIFTY         RELAXED     [  0]    ***   
       DIRECT               IDIRCT         OFF         [  0]    ***   
       DROPMO               IDRPMO      NONE         
       ECP                  IECP           OFF         [  0]    ***   
       EIGENVECTOR          IVEC                1               ***   
       EL_ANHARM            IELANH         OFF         [  0]    ***   
       EOMFOLLOW            IEOMSR         ENERGY      [  0]    ***   
       EOMIP                IEOMIP         OFF         [  0]    ***   
       EOMLEVEL             HBARFM         SAME        [  0]    ***   
       EOM_MRCC             IMRCCE         NEW         [  1]    ***   
       EOM_NONIT            EOMNON         OFF         [  0]    ***   
       EOM_NSING            IEOMSI          10D-  0             ***   
       EOM_NSTATES          IMRCCD         DAVIDSON    [  0]    ***   
       EOM_NTRIP            IEOMTR          10D-  0             ***   
       EOM_ORDER            IEXORD         ENERGY      [  0]    ***   
       EOM_PROPSTA          IEOMST              0               ***   
       ESTATE_CONV          IEXTOL          10D-  5             ***   
       ESTATE_DIAG          IEXDIG         ITERATIVE   [  0]    ***   
       ESTATE_LOCK          IESLOC         ON          [  1]    ***   
       ESTATE_MAXC          IEXMXC             40               ***   
       ESTATE_PROP          IEXPRP         OFF         [  0]    ***   
       EVAL_HESS            IRECAL              0            # of cyc.
       EXCITATION           IEXCIT              0               ***   
       EXCITE               IEXCIT         NONE        [  0]    ***   
       EXTERN_POT           IEXPOT         OFF         [  0]    ***   
       FCGRADNEW            IFCGNW         OFF         [  0]    ***   
       FC_FIELD             IFINFC              0             x 10-6  
       FD_CALTYPE           IFDCAL         GRADONLY    [  0]    ***   
       FD_PROJECT           IFDPRJ         OFF         [  1]    ***   
       FD_STEPSIZE          IDISFD              0            10-4 bohr
       FD_USEGROUP          IFDGRP         FULL        [  0]    ***   
       FILE_RECSIZ          IFLREC              4096           words  
       FINITE_PERT          IFIPER              0             x 10-6  
       FIXGEOM              IFIXGM         OFF         [  0]    ***   
       FOCK                 IFOCK          AO          [  1]    ***   
       FREQ_ALGORI          IVIALG         STANDARD    [  0]    ***   
       FROZEN_CORE          IFROCO         OFF         [  0]    ***   
       GAMMA_ABCD           IGABCD         STORE       [  0]    ***   
       GAMMA_ABCI           IGABCI         STORE       [  0]    ***   
       GENBAS_1             IGNBS1              0               ***   
       GENBAS_2             IGNBS2              0               ***   
       GENBAS_3             IGNBS3              0               ***   
       GENBAS_4             IGNBS4              0               ***   
       GEO_CONV             ICONTL              5              H/bohr 
       GEO_MAXCYC           IOPTCY             50               ***   
       GEO_MAXSTEP          IMXSTP            300            millibohr
       GEO_METHOD           INR            SINGLE_POINT[  5]    ***   
       GIAO                 IGIAO          OFF         [  1]    ***   
       GIMIC                IGIMIC         OFF         [  0]    ***   
       GRID                 IGRID          OFF         [  0]    ***   
       GRID_ALGO            IGALGO         SERIAL      [  0]    ***   
       GUESS                IGUESS         MOREAD      [  0]    ***   
       HBAR                 IHBAR          OFF         [  0]    ***   
       HESS_TYPE            IHESTP         SCF         [  0]    ***   
       HF2_FILE             IHF2Fl         USE         [  1]    ***   
       HFSTABILITY          ISTABL         OFF         [  0]    ***   
       INCORE               INCORE         OFF         [  0]    ***   
       INPUT_MRCC           IMRCC          ON          [  1]    ***   
       INTEGRALS            INTTYP         VMOL        [  1]    ***   
       JODA_PRINT           IJPRNT              0               ***   
       KEYWORD_OUT          IDMPKW         NO          [  0]    ***   
       LINDEP_TOL           ILINDP              8               ***   
       LINEQ_CONV           IZTACN          10D-  7           cycles  
       LINEQ_EXPOR          ILMAXD              5               ***   
       LINEQ_MAXCY          ILMAXC            100               ***   
       LINEQ_TYPE           ILTYPE         DIIS        [  1]    ***   
       LOCK_ORBOCC          ILOCOC         OFF         [  0]    ***   
       MEMORY_SIZE          IMEMSZ         500000000           words  
       MEM_UNIT             IMEMU          INTEGERWORDS[  0]    ***   
       MRCC                 IMRCCC         OFF         [  0]    ***   
       MULTIPLICTY          IMULTP              1               ***   
       NACOUPLING           IVCOUP         OFF         [  0]    ***   
       NEGEVAL              IDIE           ABORT       [  0]    ***   
       NEWNORM              INEWNO         OFF         [  0]    ***   
       NON-HF               INONHF         OFF         [  0]    ***   
       NTOP_TAMP            ITOPT2             15               ***   
       NUC_MODEL            INUCMO         POINT       [  0]    ***   
       OCCUPATION           IOCCU   ESTIMATED BY SCF 
       OPEN-SHELL           IOPEN          SPIN-ORBITAL[  0]    ***   
       OPTVIB               IOPTVB         OFF         [  0]    ***   
       ORBITALS             IORBTP         STANDARD    [  0]    ***   
       PARALLEL             IPARAL         ON          [  1]    ***   
       PARA_INT             IPINTS         ON          [  1]    ***   
       PARA_PRINT           IPPRIN              0               ***   
       PERT_ORB             IPTORB         STANDARD    [  0]    ***   
       POINTS               IGRDFD              0               ***   
       PRINT                IPRNT               0               ***   
       PROPS                IPROPS         OFF         [  0]    ***   
       PROP_INTEGR          IINTYP         INTERNAL    [  0]    ***   
       PSI                  IPSI           OFF         [  0]    ***   
       QC_ALG               IQCALG         FLM         [  0]    ***   
       QC_LINALG            IQCLIN         TRIDIAG     [  2]    ***   
       QC_MAXCYC            IQCMAX          10D-100           cycles  
       QC_MAXSCFCY          IQCMSC          10D- 15           cycles  
       QC_RTRUST            IQCRTR          10D-  0           x 10-3  
       QC_SKIPSCF           IQCSKI         OFF         [  0]    ***   
       QC_START             IQCSTA          10D-  1             ***   
       QRHFGUESS            IQGUES         OFF         [  0]    ***   
       QUARTIC              IQUART         OFF         [  0]    ***   
       RAMAN_INT            IRAMIN         OFF         [  0]    ***   
       RAMAN_ORB            IRAMRE         UNRELAXED   [  0]    ***   
       RDO                  IRDOFM         ON          [  1]    ***   
       REDUCE_REPR          REDREP         Ir          [  0]    ***   
       REFERENCE            IREFNC         RHF         [  0]    ***   
       RELATIVIST           IRELAT         OFF         [  0]    ***   
       RELAX_DENS           IRDENS         ON          [  1]    ***   
       RESET_FLAGS          IRESET         OFF         [  0]    ***   
       RESTART_CC           ICCRES         OFF         [  0]    ***   
       ROT_EVEC             ROTVEC              0               ***   
       SAVE_INTS            ISVINT         OFF         [  0]    ***   
       SCALE_ON             ISTCRT              0               ***   
       SCF_CONV             ISCFCV          10D- 10             ***   
       SCF_DAMPING          IDAMP               0             x 10-3  
       SCF_EXPORDE          IRPPOR              6               ***   
       SCF_EXPSTAR          IRPPLS              8               ***   
       SCF_EXTRAPO          IRPP           ON          [  1]    ***   
       SCF_MAXCYC           ISCFCY            150              cycles 
       SCF_NOSTOP           ISCFST         OFF         [  0]    ***   
       SCF_PRINT            ISCFPR              0               ***   
       SCF_PROG             ISCFPR         SCF         [  0]    ***   
       SD_FIELD             IFINSD              0             x 10-6  
       SOPERT               IPERSO         OFF         [  0]    ***   
       SPHERICAL            IDFGHI         ON          [  1]    ***   
       SPINORBIT            ISOCAL         OFF         [  0]    ***   
       SPINROTATIO          ISRCON         OFF         [  0]    ***   
       SPIN_FLIP            ISPFLP         OFF         [  0]    ***   
       SPIN_ORBIT           ISPORB         OFF         [  0]    ***   
       SPIN_SCAL            ISCSMP         OFF         [  0]    ***   
       STEEPSCALE           ISTPSC              1000          x 10-3  
       SUBGROUP             ISUBGP         DEFAULT     [  0]    ***   
       SUBGRPAXIS           ISBXYZ         X           [  0]    ***   
       SYMMETRY             ISYM           ON          [  0]    ***   
       SYM_CHECK            ISYMCK         OVERRIDE    [  1]    ***   
       T3_EXTRAPOL          IT3EXT         OFF         [  0]    ***   
       T4_EXTRAPOL          IT4EXP         OFF         [  0]    ***   
       TAMP_SUM             IEVERY              5               ***   
       TESTSUITE            ITESTS         OFF         [  0]    ***   
       THERMOCH             ITHERM         OFF         [  0]    ***   
       TOL_CHOLESK          ITOLCH          10D-  4             ***   
       TRANGRAD             IRESRM         OFF         [  0]    ***   
       TRANS_INV            ITRAIN         IGNORE      [  1]    ***   
       TREAT_PERT           ITREAT         SIMULTANEOUS[  0]    ***   
       TRIP_ALGORI          ITRALG         NORMAL      [  0]    ***   
       UIJ_THRESHO          IUIJTH              1               ***   
       UNITS                IUNITS         ANGSTROM    [  0]    ***   
       UNOS                 IUNOS          OFF         [  0]    ***   
       UPDATE_HESS          IHUPDT         ON          [  1]    ***   
       VIBPHASE             ISETPH         STANDARD    [  0]    ***   
       VIBRATION            IVIB           ANALYTIC    [  1]    ***   
       VIB_ALGORIT          IGEALG         STANDARD    [  0]    ***   
       VNATORB              IVNORB         OFF         [  0]    ***   
       VTRAN                IVTRAN         FULL/PARTIAL[  0]    ***   
       XFIELD               IXEFLD              0             x 10-6  
       XFORM_TOL            IXFTOL          10D- 11             ***   
       YFIELD               IYEFLD              0             x 10-6  
       ZFIELD               IZEFLD            200             x 10-6  
       ZSCALE_EXP           IZEXPS         OFF         [  0]    ***   
    -------------------------------------------------------------------
   2 entries found in Z-matrix 
   Job Title : Carbon Monoxide DBOC calculation                                                
   There are  1 unique internal coordinates.
   Of these,  0 will be optimized.
   User supplied Z-matrix: 
--------------------------------------------------------------------------------
       SYMBOL    BOND      LENGTH    ANGLE     ANGLE     DIHED     ANGLE
                  TO      (ANGST)    WRT      (DEG)      WRT      (DEG)
--------------------------------------------------------------------------------
        C    
        O          1         r    
                  *Initial values for internal coordinates* 
                      Name             Value
                        r               1.7689655172
--------------------------------------------------------------------------------
  read isotopes from ZMAT file 
   Rotational constants (in cm-1): 
          0.7510910067             0.7510910067
   Rotational constants (in MHz): 
      22517.1450629846         22517.1450629846
********************************************************************************
   The full molecular point group is CXv .
   The largest Abelian subgroup of the full molecular point group is C2v .
   The computational point group is C2v .
********************************************************************************
--------------------------------------------------------------------------------
   Analysis of internal coordinates specified by Z-matrix 
--------------------------------------------------------------------------------
   *The nuclear repulsion energy is   14.358957567251460 a.u.
   *There is   1 degree of freedom within the tot. symm. molecular subspace.
   *Z-matrix requests optimization of   0 coordinates.
   *The optimization is constrained.
   *The following   1 parameters can have non-zero 
    derivatives within the totally symmetric subspace:
             r    [ 1]
   *The following   0 parameters are to be optimized:

   *The following coordinates must be varied in an  unconstrained optimization.
             r    [ 1]
--------------------------------------------------------------------------------


 ----------------------------------------------------------------
         Coordinates used in calculation (QCOMP) 
 ----------------------------------------------------------------
 Z-matrix   Atomic            Coordinates (in bohr)
  Symbol    Number           X              Y              Z
 ----------------------------------------------------------------
     C         6        -0.00000000     0.00000000     1.84386097
     O         8         0.00000000     0.00000000    -1.49900009
 ----------------------------------------------------------------
 
   Interatomic distance matrix (Angstroms) 
 
                 C             O    
                [ 1]        [ 2]
  C    [ 1]     0.00000
  O    [ 2]     1.76897     0.00000
 rotcon2
   Rotational constants (in cm-1): 
          0.7510910067             0.0000000000
   Rotational constants (in MHz): 
      22517.1450629846             0.0000000000
  ECPDATA file not present.   Using default ECPDATA. 
  @GTFLGS-I, Hessian will be transformed to curvilinear coordinates.
  There are  218 basis functions.
 @CHECKOUT-I, Total execution time (CPU/WALL):        0.22/       0.46 seconds.
--executable xjoda finished with status     0 in        0.54 seconds (walltime).
 --invoking executable--
/nfs/workspaces/public/cfour_mpi/bin/xvmol
 SERIAL VERSION OF MOLECULE STARTED
********************************************************************************
                    INPUT FROM MOL FILE
********************************************************************************
INTGRL        1    0    1    0    0    0    0    0    0                         
         *** CFOUR Program System (Release V0.1) ***                            
Carbon Monoxide DBOC calculation                                                
    2    2 X  Y       0.10E-08              0    0                              
   9999.00      3.00                                                            
          6.00000000    1    5    1    1    1    1    1                         
C #1  -0.000000000000000   0.000000000000000   1.843860966567790                
   16    9                                                                      
   33980.0000000000       9.100000000000000E-005 -1.900000000000000E-005        
  0.000000000000000E+000  0.000000000000000E+000  0.000000000000000E+000        
  0.000000000000000E+000  0.000000000000000E+000  0.000000000000000E+000        
  0.000000000000000E+000                                                        
   5089.00000000000       7.040000000000000E-004 -1.510000000000000E-004        
  0.000000000000000E+000  0.000000000000000E+000  0.000000000000000E+000        
  0.000000000000000E+000  0.000000000000000E+000  0.000000000000000E+000        
  0.000000000000000E+000                                                        
   1157.00000000000       3.693000000000000E-003 -7.850000000000000E-004        
  0.000000000000000E+000  0.000000000000000E+000  0.000000000000000E+000        
  0.000000000000000E+000  0.000000000000000E+000  0.000000000000000E+000        
  0.000000000000000E+000                                                        
   326.600000000000       1.536000000000000E-002 -3.324000000000000E-003        
  0.000000000000000E+000  0.000000000000000E+000  0.000000000000000E+000        
  0.000000000000000E+000  0.000000000000000E+000  0.000000000000000E+000        
  0.000000000000000E+000                                                        
   106.100000000000       5.292900000000000E-002 -1.151200000000000E-002        
  0.000000000000000E+000  0.000000000000000E+000  0.000000000000000E+000        
  0.000000000000000E+000  0.000000000000000E+000  0.000000000000000E+000        
  0.000000000000000E+000                                                        
   38.1100000000000       0.147043000000000      -3.416000000000000E-002        
  0.000000000000000E+000  0.000000000000000E+000  0.000000000000000E+000        
  0.000000000000000E+000  0.000000000000000E+000  0.000000000000000E+000        
  0.000000000000000E+000                                                        
   14.7500000000000       0.305631000000000      -7.717300000000001E-002        
  0.000000000000000E+000  0.000000000000000E+000  0.000000000000000E+000        
  0.000000000000000E+000  0.000000000000000E+000  0.000000000000000E+000        
  0.000000000000000E+000                                                        
   6.03500000000000       0.399345000000000      -0.141493000000000             
  0.000000000000000E+000  0.000000000000000E+000  0.000000000000000E+000        
  0.000000000000000E+000  0.000000000000000E+000  0.000000000000000E+000        
  0.000000000000000E+000                                                        
   2.53000000000000       0.217051000000000      -0.118019000000000             
  0.000000000000000E+000  0.000000000000000E+000  0.000000000000000E+000        
  0.000000000000000E+000  0.000000000000000E+000  0.000000000000000E+000        
  0.000000000000000E+000                                                        
  0.735500000000000       1.589400000000000E-002  0.273806000000000             
   1.00000000000000       0.000000000000000E+000  0.000000000000000E+000        
  0.000000000000000E+000  0.000000000000000E+000  0.000000000000000E+000        
  0.000000000000000E+000                                                        
  0.290500000000000      -3.084000000000000E-003  0.586510000000000             
  0.000000000000000E+000   1.00000000000000       0.000000000000000E+000        
  0.000000000000000E+000  0.000000000000000E+000  0.000000000000000E+000        
  0.000000000000000E+000                                                        
  0.111100000000000       9.779999999999999E-004  0.285430000000000             
  0.000000000000000E+000  0.000000000000000E+000   1.00000000000000             
  0.000000000000000E+000  0.000000000000000E+000  0.000000000000000E+000        
  0.000000000000000E+000                                                        
   7.21600000000000       0.000000000000000E+000  0.000000000000000E+000        
  0.000000000000000E+000  0.000000000000000E+000  0.000000000000000E+000        
   1.00000000000000       0.000000000000000E+000  0.000000000000000E+000        
  0.000000000000000E+000                                                        
   19.5700000000000       0.000000000000000E+000  0.000000000000000E+000        
  0.000000000000000E+000  0.000000000000000E+000  0.000000000000000E+000        
  0.000000000000000E+000   1.00000000000000       0.000000000000000E+000        
  0.000000000000000E+000                                                        
   53.0730000000000       0.000000000000000E+000  0.000000000000000E+000        
  0.000000000000000E+000  0.000000000000000E+000  0.000000000000000E+000        
  0.000000000000000E+000  0.000000000000000E+000   1.00000000000000             
  0.000000000000000E+000                                                        
  4.145000000000000E-002  0.000000000000000E+000  0.000000000000000E+000        
  0.000000000000000E+000  0.000000000000000E+000  0.000000000000000E+000        
  0.000000000000000E+000  0.000000000000000E+000  0.000000000000000E+000        
   1.00000000000000                                                             
   10    8                                                                      
   34.5100000000000       5.378000000000000E-003  0.000000000000000E+000        
  0.000000000000000E+000  0.000000000000000E+000  0.000000000000000E+000        
  0.000000000000000E+000  0.000000000000000E+000  0.000000000000000E+000        
   7.91500000000000       3.613200000000000E-002  0.000000000000000E+000        
  0.000000000000000E+000  0.000000000000000E+000  0.000000000000000E+000        
  0.000000000000000E+000  0.000000000000000E+000  0.000000000000000E+000        
   2.36800000000000       0.142493000000000       0.000000000000000E+000        
  0.000000000000000E+000  0.000000000000000E+000  0.000000000000000E+000        
  0.000000000000000E+000  0.000000000000000E+000  0.000000000000000E+000        
  0.813200000000000       0.342150000000000        1.00000000000000             
  0.000000000000000E+000  0.000000000000000E+000  0.000000000000000E+000        
  0.000000000000000E+000  0.000000000000000E+000  0.000000000000000E+000        
  0.289000000000000       0.463864000000000       0.000000000000000E+000        
   1.00000000000000       0.000000000000000E+000  0.000000000000000E+000        
  0.000000000000000E+000  0.000000000000000E+000  0.000000000000000E+000        
  0.100700000000000       0.250028000000000       0.000000000000000E+000        
  0.000000000000000E+000   1.00000000000000       0.000000000000000E+000        
  0.000000000000000E+000  0.000000000000000E+000  0.000000000000000E+000        
   8.18200000000000       0.000000000000000E+000  0.000000000000000E+000        
  0.000000000000000E+000  0.000000000000000E+000   1.00000000000000             
  0.000000000000000E+000  0.000000000000000E+000  0.000000000000000E+000        
   24.1860000000000       0.000000000000000E+000  0.000000000000000E+000        
  0.000000000000000E+000  0.000000000000000E+000  0.000000000000000E+000        
   1.00000000000000       0.000000000000000E+000  0.000000000000000E+000        
   71.4940000000000       0.000000000000000E+000  0.000000000000000E+000        
  0.000000000000000E+000  0.000000000000000E+000  0.000000000000000E+000        
  0.000000000000000E+000   1.00000000000000       0.000000000000000E+000        
  3.218000000000000E-002  0.000000000000000E+000  0.000000000000000E+000        
  0.000000000000000E+000  0.000000000000000E+000  0.000000000000000E+000        
  0.000000000000000E+000  0.000000000000000E+000   1.00000000000000             
    6    6                                                                      
   1.84800000000000        1.00000000000000       0.000000000000000E+000        
  0.000000000000000E+000  0.000000000000000E+000  0.000000000000000E+000        
  0.000000000000000E+000                                                        
  0.649000000000000       0.000000000000000E+000   1.00000000000000             
  0.000000000000000E+000  0.000000000000000E+000  0.000000000000000E+000        
  0.000000000000000E+000                                                        
  0.228000000000000       0.000000000000000E+000  0.000000000000000E+000        
   1.00000000000000       0.000000000000000E+000  0.000000000000000E+000        
  0.000000000000000E+000                                                        
   8.65600000000000       0.000000000000000E+000  0.000000000000000E+000        
  0.000000000000000E+000   1.00000000000000       0.000000000000000E+000        
  0.000000000000000E+000                                                        
   33.2130000000000       0.000000000000000E+000  0.000000000000000E+000        
  0.000000000000000E+000  0.000000000000000E+000   1.00000000000000             
  0.000000000000000E+000                                                        
  7.660000000000000E-002  0.000000000000000E+000  0.000000000000000E+000        
  0.000000000000000E+000  0.000000000000000E+000  0.000000000000000E+000        
   1.00000000000000                                                             
    4    4                                                                      
   1.41900000000000        1.00000000000000       0.000000000000000E+000        
  0.000000000000000E+000  0.000000000000000E+000                                
  0.485000000000000       0.000000000000000E+000   1.00000000000000             
  0.000000000000000E+000  0.000000000000000E+000                                
   24.6940000000000       0.000000000000000E+000  0.000000000000000E+000        
   1.00000000000000       0.000000000000000E+000                                
  0.187000000000000       0.000000000000000E+000  0.000000000000000E+000        
  0.000000000000000E+000   1.00000000000000                                     
    2    2                                                                      
   1.01100000000000        1.00000000000000       0.000000000000000E+000        
  0.424000000000000       0.000000000000000E+000   1.00000000000000             
          8.00000000    1    5    1    1    1    1    1                         
O #2   0.000000000000000   0.000000000000000  -1.499000085509822                
   16    9                                                                      
   61420.0000000000       9.000000000000001E-005 -2.000000000000000E-005        
  0.000000000000000E+000  0.000000000000000E+000  0.000000000000000E+000        
  0.000000000000000E+000  0.000000000000000E+000  0.000000000000000E+000        
  0.000000000000000E+000                                                        
   9199.00000000000       6.980000000000001E-004 -1.590000000000000E-004        
  0.000000000000000E+000  0.000000000000000E+000  0.000000000000000E+000        
  0.000000000000000E+000  0.000000000000000E+000  0.000000000000000E+000        
  0.000000000000000E+000                                                        
   2091.00000000000       3.664000000000000E-003 -8.290000000000000E-004        
  0.000000000000000E+000  0.000000000000000E+000  0.000000000000000E+000        
  0.000000000000000E+000  0.000000000000000E+000  0.000000000000000E+000        
  0.000000000000000E+000                                                        
   590.900000000000       1.521800000000000E-002 -3.508000000000000E-003        
  0.000000000000000E+000  0.000000000000000E+000  0.000000000000000E+000        
  0.000000000000000E+000  0.000000000000000E+000  0.000000000000000E+000        
  0.000000000000000E+000                                                        
   192.300000000000       5.242300000000000E-002 -1.215600000000000E-002        
  0.000000000000000E+000  0.000000000000000E+000  0.000000000000000E+000        
  0.000000000000000E+000  0.000000000000000E+000  0.000000000000000E+000        
  0.000000000000000E+000                                                        
   69.3200000000000       0.145921000000000      -3.626100000000000E-002        
  0.000000000000000E+000  0.000000000000000E+000  0.000000000000000E+000        
  0.000000000000000E+000  0.000000000000000E+000  0.000000000000000E+000        
  0.000000000000000E+000                                                        
   26.9700000000000       0.305258000000000      -8.299200000000000E-002        
  0.000000000000000E+000  0.000000000000000E+000  0.000000000000000E+000        
  0.000000000000000E+000  0.000000000000000E+000  0.000000000000000E+000        
  0.000000000000000E+000                                                        
   11.1000000000000       0.398508000000000      -0.152090000000000             
  0.000000000000000E+000  0.000000000000000E+000  0.000000000000000E+000        
  0.000000000000000E+000  0.000000000000000E+000  0.000000000000000E+000        
  0.000000000000000E+000                                                        
   4.68200000000000       0.216980000000000      -0.115331000000000             
  0.000000000000000E+000  0.000000000000000E+000  0.000000000000000E+000        
  0.000000000000000E+000  0.000000000000000E+000  0.000000000000000E+000        
  0.000000000000000E+000                                                        
   1.42800000000000       1.759400000000000E-002  0.288979000000000             
   1.00000000000000       0.000000000000000E+000  0.000000000000000E+000        
  0.000000000000000E+000  0.000000000000000E+000  0.000000000000000E+000        
  0.000000000000000E+000                                                        
  0.554700000000000      -2.502000000000000E-003  0.586128000000000             
  0.000000000000000E+000   1.00000000000000       0.000000000000000E+000        
  0.000000000000000E+000  0.000000000000000E+000  0.000000000000000E+000        
  0.000000000000000E+000                                                        
  0.206700000000000       9.540000000000000E-004  0.277624000000000             
  0.000000000000000E+000  0.000000000000000E+000   1.00000000000000             
  0.000000000000000E+000  0.000000000000000E+000  0.000000000000000E+000        
  0.000000000000000E+000                                                        
   12.9740000000000       0.000000000000000E+000  0.000000000000000E+000        
  0.000000000000000E+000  0.000000000000000E+000  0.000000000000000E+000        
   1.00000000000000       0.000000000000000E+000  0.000000000000000E+000        
  0.000000000000000E+000                                                        
   34.9000000000000       0.000000000000000E+000  0.000000000000000E+000        
  0.000000000000000E+000  0.000000000000000E+000  0.000000000000000E+000        
  0.000000000000000E+000   1.00000000000000       0.000000000000000E+000        
  0.000000000000000E+000                                                        
   93.8810000000000       0.000000000000000E+000  0.000000000000000E+000        
  0.000000000000000E+000  0.000000000000000E+000  0.000000000000000E+000        
  0.000000000000000E+000  0.000000000000000E+000   1.00000000000000             
  0.000000000000000E+000                                                        
  6.959000000000000E-002  0.000000000000000E+000  0.000000000000000E+000        
  0.000000000000000E+000  0.000000000000000E+000  0.000000000000000E+000        
  0.000000000000000E+000  0.000000000000000E+000  0.000000000000000E+000        
   1.00000000000000                                                             
   10    8                                                                      
   63.4200000000000       6.044000000000000E-003  0.000000000000000E+000        
  0.000000000000000E+000  0.000000000000000E+000  0.000000000000000E+000        
  0.000000000000000E+000  0.000000000000000E+000  0.000000000000000E+000        
   14.6600000000000       4.179900000000000E-002  0.000000000000000E+000        
  0.000000000000000E+000  0.000000000000000E+000  0.000000000000000E+000        
  0.000000000000000E+000  0.000000000000000E+000  0.000000000000000E+000        
   4.45900000000000       0.161143000000000       0.000000000000000E+000        
  0.000000000000000E+000  0.000000000000000E+000  0.000000000000000E+000        
  0.000000000000000E+000  0.000000000000000E+000  0.000000000000000E+000        
   1.53100000000000       0.356731000000000        1.00000000000000             
  0.000000000000000E+000  0.000000000000000E+000  0.000000000000000E+000        
  0.000000000000000E+000  0.000000000000000E+000  0.000000000000000E+000        
  0.530200000000000       0.448309000000000       0.000000000000000E+000        
   1.00000000000000       0.000000000000000E+000  0.000000000000000E+000        
  0.000000000000000E+000  0.000000000000000E+000  0.000000000000000E+000        
  0.175000000000000       0.244940000000000       0.000000000000000E+000        
  0.000000000000000E+000   1.00000000000000       0.000000000000000E+000        
  0.000000000000000E+000  0.000000000000000E+000  0.000000000000000E+000        
   14.4750000000000       0.000000000000000E+000  0.000000000000000E+000        
  0.000000000000000E+000  0.000000000000000E+000   1.00000000000000             
  0.000000000000000E+000  0.000000000000000E+000  0.000000000000000E+000        
   42.7300000000000       0.000000000000000E+000  0.000000000000000E+000        
  0.000000000000000E+000  0.000000000000000E+000  0.000000000000000E+000        
   1.00000000000000       0.000000000000000E+000  0.000000000000000E+000        
   126.140000000000       0.000000000000000E+000  0.000000000000000E+000        
  0.000000000000000E+000  0.000000000000000E+000  0.000000000000000E+000        
  0.000000000000000E+000   1.00000000000000       0.000000000000000E+000        
  5.348000000000000E-002  0.000000000000000E+000  0.000000000000000E+000        
  0.000000000000000E+000  0.000000000000000E+000  0.000000000000000E+000        
  0.000000000000000E+000  0.000000000000000E+000   1.00000000000000             
    6    6                                                                      
   3.77500000000000        1.00000000000000       0.000000000000000E+000        
  0.000000000000000E+000  0.000000000000000E+000  0.000000000000000E+000        
  0.000000000000000E+000                                                        
   1.30000000000000       0.000000000000000E+000   1.00000000000000             
  0.000000000000000E+000  0.000000000000000E+000  0.000000000000000E+000        
  0.000000000000000E+000                                                        
  0.444000000000000       0.000000000000000E+000  0.000000000000000E+000        
   1.00000000000000       0.000000000000000E+000  0.000000000000000E+000        
  0.000000000000000E+000                                                        
   14.9270000000000       0.000000000000000E+000  0.000000000000000E+000        
  0.000000000000000E+000   1.00000000000000       0.000000000000000E+000        
  0.000000000000000E+000                                                        
   57.5440000000000       0.000000000000000E+000  0.000000000000000E+000        
  0.000000000000000E+000  0.000000000000000E+000   1.00000000000000             
  0.000000000000000E+000                                                        
  0.154000000000000       0.000000000000000E+000  0.000000000000000E+000        
  0.000000000000000E+000  0.000000000000000E+000  0.000000000000000E+000        
   1.00000000000000                                                             
    4    4                                                                      
   2.66600000000000        1.00000000000000       0.000000000000000E+000        
  0.000000000000000E+000  0.000000000000000E+000                                
  0.859000000000000       0.000000000000000E+000   1.00000000000000             
  0.000000000000000E+000  0.000000000000000E+000                                
   26.4830000000000       0.000000000000000E+000  0.000000000000000E+000        
   1.00000000000000       0.000000000000000E+000                                
  0.324000000000000       0.000000000000000E+000  0.000000000000000E+000        
  0.000000000000000E+000   1.00000000000000                                     
    2    2                                                                      
   1.84600000000000        1.00000000000000       0.000000000000000E+000        
  0.714000000000000       0.000000000000000E+000   1.00000000000000             
FINISH                                                                          
 
********************************************************************************
 ONE- AND TWO-ELECTRON INTEGRALS OVER SYMMETRY-ADAPTED AOS ARE CALCULATED.

  SPHERICAL HARMONICS ARE USED.
  
  INTEGRALS LESS THAN  0.10E-13 ARE NEGLECTED.

  NUCLEAR REPULSION ENERGY :   14.3589575673 A.U.
  @MOLECU-I, ONE ELECTRON INTEGRALS (CPU/WALL):        0.06/       0.07 SECONDS.
  @TWOEL-I,    4364111 INTEGRALS OF SYMMETRY TYPE  I I I I
  @TWOEL-I,   18829929 INTEGRALS OF SYMMETRY TYPE  I J I J
  @TWOEL-I,    9917301 INTEGRALS OF SYMMETRY TYPE  I I J J
  @TWOEL-I,   13891433 INTEGRALS OF SYMMETRY TYPE  I J K L
  @TWOEL-I, TOTAL NUMBER OF 2-E INTEGRALS   47002774.
  @MOLECU-I, TWO ELECTRON INTEGRALS (CPU/WALL):      238.52/      32.21 SECONDS.
 @CHECKOUT-I, Total execution time (CPU/WALL):      238.61/      32.32 seconds.

Running with 14 threads/proc

--executable xvmol finished with status     0 in       32.37 seconds (walltime).
 --invoking executable--
/nfs/workspaces/public/cfour_mpi/bin/xvmol2ja
 @GETMEM-I,  Allocated    3814 MB of main memory.
 @CHECKOUT-I, Total execution time (CPU/WALL):        0.23/       0.06 seconds.
--executable xvmol2ja finished with status     0 in        0.11 seconds (walltime).
 --invoking executable--
/nfs/workspaces/public/cfour_mpi/bin/xvprop
 @GETMEM-I,  Allocated    3814 MB of main memory.
   Property integrals will be calculated.
    --------------------------------------------------------------
                                   Property evaluated at 
    Property type                X             Y             Z
    --------------------------------------------------------------
    Dipole moment               ----          ----          ----  
    Quadrupole moment           ----          ----          ----  
    Octopole moment             ----          ----          ----  
    Relativisitic corr.         ----          ----          ----  
    Second moment            0.0000000     0.0000000     0.0000000
    Electron density         0.0000000     0.0000000     1.8438610
    Electron density         0.0000000     0.0000000    -1.4990001
    Field gradient           0.0000000     0.0000000     1.8438610
    Field gradient           0.0000000     0.0000000    -1.4990001
    Potential                0.0000000     0.0000000     1.8438610
    Potential                0.0000000     0.0000000    -1.4990001
    --------------------------------------------------------------
 @CHECKOUT-I, Total execution time (CPU/WALL):        1.33/       1.35 seconds.
--executable xvprop finished with status     0 in        1.40 seconds (walltime).
 --invoking executable--
/nfs/workspaces/public/cfour_mpi/bin/xvscf
  There are  218 functions in the AO basis.

  There are 4 irreducible representations.

       Irrep        # of functions
         1                 86
         2                 52
         3                 52
         4                 28


  Parameters for SCF calculation: 
        SCF reference function:  RHF  
  Maximum number of iterations:  150
     Full symmetry point group: CXv 
     Computational point group: C2v 
        Initial density matrix: MOREAD                 
     SCF convergence tolerance: 10**(-10)
  DIIS convergence acceleration:  ON
          Latest start for DIIS:   8
                     DIIS order:   6

  Memory information:    2523578 words required.
  Fock matrices are constructed from AO integral file.
 @GETMEM-I,  Allocated      19 MB of main memory.
  Initialization and symmetry analysis required      0.002 seconds.

  Adding electric field perturbation to one-electron Hamiltonian.
  Field direction     : Z
  Field strength      :  0.0002000 a.u.

  @INITGES-I, Occupancies from core Hamiltonian:

          Alpha population by irrep:   5    1    1    0
           Beta population by irrep:   5    1    1    0


 total no. of electrons in initial guess :  0.000000000000000E+000
  --------------------------------------------------------------------
  Iteration         Total Energy            Largest Density Difference
  --------------------------------------------------------------------
       0            14.359143334227923              0.0000000000D+00
   current occupation vector 
     5  1  1  0
     5  1  1  0
       1           -93.748679696597051              0.1756541003D+02
   current occupation vector 
     5  1  1  0
     5  1  1  0
       2           -97.576546852791552              0.1756540456D+02
   current occupation vector 
     5  1  1  0
     5  1  1  0
       3           -99.752991650401384              0.6998951451D+01
   current occupation vector 
     5  1  1  0
     5  1  1  0
       4           -94.152271432703401              0.6997474471D+01
   current occupation vector 
     5  1  1  0
     5  1  1  0
       5           -99.775563560352666              0.7075001266D+01
   current occupation vector 
     5  1  1  0
     5  1  1  0
       6           -94.061669989601242              0.7075012661D+01
   current occupation vector 
     5  1  1  0
     5  1  1  0
       7           -99.773498366250465              0.7078243528D+01
   current occupation vector 
     5  1  1  0
     5  1  1  0
       8           -94.059659408967065              0.7078244603D+01
   current occupation vector 
     5  1  1  0
     5  1  1  0
       9          -106.750860809469785              0.6127518669D+01
   current occupation vector 
     5  1  1  0
     5  1  1  0
      10          -110.508398624993603              0.1340402876D+01
   current occupation vector 
     5  1  1  0
     5  1  1  0
      11          -112.136455606802002              0.9542816002D+00
   current occupation vector 
     5  1  1  0
     5  1  1  0
      12          -112.305961132918299              0.7473793265D+00
   current occupation vector 
     5  1  1  0
     5  1  1  0
      13          -112.411820099875285              0.1637645323D+00
   current occupation vector 
     5  1  1  0
     5  1  1  0
      14          -112.438930999091440              0.1519083865D+00
   current occupation vector 
     5  1  1  0
     5  1  1  0
      15          -112.440938881309862              0.5603199274D-01
   current occupation vector 
     5  1  1  0
     5  1  1  0
      16          -112.443294712853856              0.9449087414D-01
   current occupation vector 
     5  1  1  0
     5  1  1  0
      17          -112.445016741048320              0.1064579971D+00
   current occupation vector 
     5  1  1  0
     5  1  1  0
      18          -112.445372348900946              0.6187633232D-01
   current occupation vector 
     5  1  1  0
     5  1  1  0
      19          -112.445374071635371              0.2353450380D-02
   current occupation vector 
     5  1  1  0
     5  1  1  0
      20          -112.445374416149789              0.2812446784D-02
   current occupation vector 
     5  1  1  0
     5  1  1  0
      21          -112.445374442026136              0.7894498922D-03
   current occupation vector 
     5  1  1  0
     5  1  1  0
      22          -112.445374445002443              0.1994480230D-03
   current occupation vector 
     5  1  1  0
     5  1  1  0
      23          -112.445374445016341              0.1512412542D-04
   current occupation vector 
     5  1  1  0
     5  1  1  0
      24          -112.445374445017364              0.1116300849D-05
   current occupation vector 
     5  1  1  0
     5  1  1  0
      25          -112.445374445018686              0.1091223437D-06
   current occupation vector 
     5  1  1  0
     5  1  1  0
      26          -112.445374445017407              0.3927708536D-07
   current occupation vector 
     5  1  1  0
     5  1  1  0
      27          -112.445374445017109              0.1067074873D-07
   current occupation vector 
     5  1  1  0
     5  1  1  0
      28          -112.445374445016768              0.1851506282D-07
   current occupation vector 
     5  1  1  0
     5  1  1  0
      29          -112.445374445016782              0.4397821662D-08
   current occupation vector 
     5  1  1  0
     5  1  1  0
      30          -112.445374445018871              0.9746781160D-09
   current occupation vector 
     5  1  1  0
     5  1  1  0
      31          -112.445374445017677              0.2344104910D-09
   current occupation vector 
     5  1  1  0
     5  1  1  0

  SCF has converged.

 Density matrix saved to file den.dat
 total electron number:   14.0000000000000     
     E(SCF)=      -112.445374445016967              0.9423373193D-10

  Eigenvector printing suppressed.

 @PUTMOS-I, Writing converged MOs to NEWMOS. 
 @PUTMOS-I, Symmetry   1 Full Blocks 21 Partial Blocksize   2
 @PUTMOS-I, Symmetry   2 Full Blocks 13 Partial Blocksize   0
 @PUTMOS-I, Symmetry   3 Full Blocks 13 Partial Blocksize   0
 @PUTMOS-I, Symmetry   4 Full Blocks  7 Partial Blocksize   0
 @PUTFOCK-I, Writing converged Fock matrix to NEWFOCK. 
 @PUTFOCK-I, Symmetry   1 Full Blocks 21 Partial Blocksize   2
 @PUTFOCK-I, Symmetry   2 Full Blocks 13 Partial Blocksize   0
 @PUTFOCK-I, Symmetry   3 Full Blocks 13 Partial Blocksize   0
 @PUTFOCK-I, Symmetry   4 Full Blocks  7 Partial Blocksize   0


 
  ORBITAL EIGENVALUES (ALPHA)  (1H = 27.2113834 eV)

       MO #        E(hartree)               E(eV)           FULLSYM    COMPSYM
       ----   --------------------   --------------------   -------   ---------
    1     1         -20.6243234684        -561.2163732656     SG+        A1 (1)
    2     2         -11.5349660434        -313.8823835126     SG+        A1 (1)
    3     3          -1.2260921960         -33.3636648289     SG+        A1 (1)
    4     4          -0.8138198011         -22.1451626253     SG+        A1 (1)
    5     5          -0.4890669594         -13.3081885414     SG+        A1 (1)
    6   139          -0.4777005975         -12.9988941085      PI        B2 (3)
    7    87          -0.4777005975         -12.9988941085      PI        B1 (2)
  +++++++++++++++++++++++++++++++++++++++++++++++++++++++++++++++++++++++++++++
    8   140          -0.0269898646          -0.7344315523      PI        B2 (3)
    9    88          -0.0269898646          -0.7344315523      PI        B1 (2)
   10     6           0.0574651913           1.5637073515     SG+        A1 (1)
   11     7           0.0684644528           1.8630124747     SG+        A1 (1)
   12    89           0.0812720868           2.2115259136      PI        B1 (2)
   13   141           0.0812720868           2.2115259136      PI        B2 (3)
   14     8           0.1479921796           4.0270719406     SG+        A1 (1)
   15     9           0.1623393058           4.4174770920     SG+        A1 (1)
   16   142           0.1837233269           4.9993658877      PI        B2 (3)
   17    90           0.1837233269           4.9993658877      PI        B1 (2)
   18   191           0.2193047752           5.9675863205      DE        A2 (4)
   19    10           0.2193047752           5.9675863205      DE        A1 (1)
   20   143           0.2789544348           7.5907360767      PI        B2 (3)
   21    91           0.2789544348           7.5907360767      PI        B1 (2)
   22    11           0.2861061386           7.7853438318     SG+        A1 (1)
   23    12           0.3055962892           8.3156977917     SG+        A1 (1)
   24    13           0.4085145506          11.1162460605     SG+        A1 (1)
   25   144           0.4113600072          11.1936748713      PI        B2 (3)
   26    92           0.4113600072          11.1936748713      PI        B1 (2)
   27    14           0.5166631128          14.0591180508     SG+        A1 (1)
   28   192           0.5504569904          14.9786962108      DE        A2 (4)
   29    15           0.5504569904          14.9786962108      DE        A1 (1)
   30   145           0.6242795619          16.9875105084      PI        B2 (3)
   31    93           0.6242795619          16.9875105084      PI        B1 (2)
   32    16           0.6961521300          18.9432625155     SG+        A1 (1)
   33    94           0.7236658017          19.6919475833      PH        B1 (2)
   34   146           0.7236658017          19.6919475833      PH        B2 (3)
   35   193           0.7301718434          19.8689859781      DE        A2 (4)
   36    17           0.7301718434          19.8689859781      DE        A1 (1)
   37   147           0.7657792405          20.8379125141      PI        B2 (3)
   38    95           0.7657792405          20.8379125141      PI        B1 (2)
   39    18           0.8036312959          21.8679193063     SG+        A1 (1)
   40    19           0.8443283497          22.9753424394      DE        A1 (1)
   41   194           0.8443283497          22.9753424394      DE        A2 (4)
   42   148           0.8575064053          23.3339355639      PI        B2 (3)
   43    96           0.8575064053          23.3339355639      PI        B1 (2)
   44    20           0.9121634193          24.8212285249     SG+        A1 (1)
   45   149           1.0605865919          28.8600283808      PI        B2 (3)
   46    97           1.0605865919          28.8600283808      PI        B1 (2)
   47    21           1.1562578332          31.4633752074     SG+        A1 (1)
   48    22           1.3106719525          35.6651970116     SG+        A1 (1)
   49   150           1.4177929328          38.5801070757      PH        B2 (3)
   50    98           1.4177929328          38.5801070757      PH        B1 (2)
   51   151           1.4474668167          39.3875745093      PI        B2 (3)
   52    99           1.4474668167          39.3875745093      PI        B1 (2)
   53    23           1.5757313864          42.8778308917     SG+        A1 (1)
   54   195           1.5841746158          43.1075828437      DE        A2 (4)
   55    24           1.5841746158          43.1075828437      DE        A1 (1)
   56   152           1.6424686358          44.6938437703      PI        B2 (3)
   57   100           1.6424686358          44.6938437703      PI        B1 (2)
   58   196           1.6545003238          45.0212426457      DE        A2 (4)
   59    25           1.6545003238          45.0212426458      DE        A1 (1)
   60    26           1.8389837454          50.0412917613     SG+        A1 (1)
   61    27           1.9229446089          52.3259830110     SG+        A1 (1)
   62   153           2.0005646736          54.4381323492      PI        B2 (3)
   63   101           2.0005646736          54.4381323492      PI        B1 (2)
   64   197           2.0530873476          55.8673469686      PI        A2 (4)
   65    28           2.0530873476          55.8673469686      PI        A1 (1)
   66    29           2.1115902702          57.4592924263      DE        A1 (1)
   67   198           2.1115902702          57.4592924263      DE        A2 (4)
   68   102           2.1564884979          58.6810353146      PH        B1 (2)
   69   154           2.1564884979          58.6810353146      PH        B2 (3)
   70   103           2.1931980661          59.6799534501      PH        B1 (2)
   71   155           2.1931980661          59.6799534501      PH        B2 (3)
   72   156           2.1951724838          59.7336800864      PI        B2 (3)
   73   104           2.1951724838          59.7336800864      PI        B1 (2)
   74    30           2.2232661909          60.4981487203     SG+        A1 (1)
   75   199           2.2633899324          61.5899712355      DE        A2 (4)
   76    31           2.2633899324          61.5899712355      DE        A1 (1)
   77    32           2.3490367953          63.9205408586     SG+        A1 (1)
   78   157           2.4529865158          66.7491565554      PI        B2 (3)
   79   105           2.4529865158          66.7491565554      PI        B1 (2)
   80   200           2.5258723767          68.7324816629      DE        A2 (4)
   81    33           2.5258723767          68.7324816629      DE        A1 (1)
   82    34           2.6318062431          71.6150887142     SG+        A1 (1)
   83   158           2.6587403289          72.3480024500      PI        B2 (3)
   84   106           2.6587403289          72.3480024500      PI        B1 (2)
   85    35           2.7955314191          76.0702772520     SG+        A1 (1)
   86   107           3.2151259880          87.4880259389      PI        B1 (2)
   87   159           3.2151259880          87.4880259389      PI        B2 (3)
   88   201           3.7260292866         101.3904114780      PI        A2 (4)
   89    36           3.7260292866         101.3904114780      PI        A1 (1)
   90    37           3.7414391746         101.8097358488     SG+        A1 (1)
   91   160           3.8450973641         104.6304185838      PH        B2 (3)
   92   108           3.8450973641         104.6304185838      PH        B1 (2)
   93    38           4.0539167552         110.3126830979     SG+        A1 (1)
   94    39           4.1138001070         111.9421919412      DE        A1 (1)
   95   202           4.1138001070         111.9421919413      DE        A2 (4)
   96   161           4.1308210390         112.4053550491      PI        B2 (3)
   97   109           4.1308210390         112.4053550491      PI        B1 (2)
   98   162           4.1559702415         113.0896996391      PH        B2 (3)
   99   110           4.1559702415         113.0896996391      PH        B1 (2)
  100    40           4.2859856186         116.6275979139     SG+        A1 (1)
  101    41           4.3140417420         117.3910438457      DE        A1 (1)
  102   203           4.3140417420         117.3910438457      DE        A2 (4)
  103   163           4.4538561987         121.1955886304      PI        B2 (3)
  104   111           4.4538561987         121.1955886304      PI        B1 (2)
  105   204           4.5416153708         123.5836371113      DE        A2 (4)
  106    42           4.5416153708         123.5836371113      DE        A1 (1)
  107    43           4.8375343670         131.6360023707     SG+        A1 (1)
  108   112           4.9707135199         135.2599913629      PI        B1 (2)
  109   164           4.9707135199         135.2599913629      PI        B2 (3)
  110    44           5.0926268127         138.5774207129     SG+        A1 (1)
  111   113           5.3508458173         145.6039170485      PI        B1 (2)
  112   165           5.3508458173         145.6039170486      PI        B2 (3)
  113   205           5.8025247501         157.8947256621      PI        A2 (4)
  114    45           5.8025247501         157.8947256621      PI        A1 (1)
  115   166           5.8744065914         159.8507300049      PH        B2 (3)
  116   114           5.8744065914         159.8507300049      PH        B1 (2)
  117    46           5.8997095984         160.5392598313     SG+        A1 (1)
  118   206           6.0169545306         163.7296566327      DE        A2 (4)
  119    47           6.0169545306         163.7296566327      DE        A1 (1)
  120   167           6.0932932403         165.8069385312      PI        B2 (3)
  121   115           6.0932932403         165.8069385312      PI        B1 (2)
  122    48           6.1174950300         166.4655027087     SG+        A1 (1)
  123   207           6.2309257268         169.5521088888      DE        A2 (4)
  124    49           6.2309257268         169.5521088888      DE        A1 (1)
  125   168           6.3269511426         172.1650932936      PH        B2 (3)
  126   116           6.3269511426         172.1650932936      PH        B1 (2)
  127   208           6.4525609176         175.5831090403      DE        A2 (4)
  128    50           6.4525609176         175.5831090403      DE        A1 (1)
  129   117           6.6512849370         180.9906645245      PI        B1 (2)
  130   169           6.6512849370         180.9906645245      PI        B2 (3)
  131   118           6.9024720533         187.8258134498      PI        B1 (2)
  132   170           6.9024720533         187.8258134498      PI        B2 (3)
  133    51           7.0221733624         191.0830516645     SG+        A1 (1)
  134    52           7.3479088970         199.9467661854     SG+        A1 (1)
  135    53           9.2250623906         251.0267095999     SG+        A1 (1)
  136   119           9.5620369462         260.1962534274      PI        B1 (2)
  137   171           9.5620369462         260.1962534276      PI        B2 (3)
  138    54          10.6179043986         288.9278674940     SG+        A1 (1)
  139   209          10.6908244401         290.9121227018      PI        A2 (4)
  140    55          10.6908244401         290.9121227018      PI        A1 (1)
  141   120          10.7221483883         291.7644906645      PH        B1 (2)
  142   172          10.7221483883         291.7644906645      PH        B2 (3)
  143   210          10.9000366514         296.6050763959      DE        A2 (4)
  144    56          10.9000366514         296.6050763959      DE        A1 (1)
  145   173          11.0057251413         299.4810064142      PI        B2 (3)
  146   121          11.0057251413         299.4810064142      PI        B1 (2)
  147    57          11.0662114860         301.1269235320     SG+        A1 (1)
  148   174          11.9248483296         324.4916198849      PH        B2 (3)
  149   122          11.9248483296         324.4916198849      PH        B1 (2)
  150   211          11.9714129894         325.7587086946      DE        A2 (4)
  151    58          11.9714129894         325.7587086947      DE        A1 (1)
  152   123          12.1382931137         330.2997477395      PI        B1 (2)
  153   175          12.1382931137         330.2997477395      PI        B2 (3)
  154    59          12.4206664401         337.9835165841     SG+        A1 (1)
  155    60          12.7255356514         346.2794295793      DE        A1 (1)
  156   212          12.7255356514         346.2794295793      DE        A2 (4)
  157   124          13.0725973714         355.7234591082      PI        B1 (2)
  158   176          13.0725973714         355.7234591082      PI        B2 (3)
  159    61          13.2943580364         361.7578735851     SG+        A1 (1)
  160    62          17.1219719427         465.9125430958     SG+        A1 (1)
  161   125          18.6453905249         507.3668702145      PI        B1 (2)
  162   177          18.6453905249         507.3668702148      PI        B2 (3)
  163    63          19.3095275185         525.4389565786     SG+        A1 (1)
  164   213          26.2288317181         713.7227960145      DE        A2 (4)
  165    64          26.2288317181         713.7227960145      DE        A1 (1)
  166   178          26.4124145259         718.7183381833      PI        B2 (3)
  167   126          26.4124145259         718.7183381833      PI        B1 (2)
  168    65          26.8009220989         729.2901667058     SG+        A1 (1)
  169   127          33.3106084750         906.4277385017      PI        B1 (2)
  170   179          33.3106084751         906.4277385025      PI        B2 (3)
  171    66          34.0489855803         926.5200010064     SG+        A1 (1)
  172    67          35.4831286072         965.5450167626     SG+        A1 (1)
  173   214          47.0889601018        1281.3557472377      DE        A2 (4)
  174    68          47.0889601018        1281.3557472377      DE        A1 (1)
  175   128          47.2530428524        1285.8206658743      PI        B1 (2)
  176   180          47.2530428524        1285.8206658743      PI        B2 (3)
  177    69          47.3819777608        1289.3291630990     SG+        A1 (1)
  178    70          63.5889866294        1730.3442951890     SG+        A1 (1)
  179   129          66.2453938562        1802.6288107044      PI        B1 (2)
  180   181          66.2453938562        1802.6288107046      PI        B2 (3)
  181    71          66.7451820103        1816.2287377863     SG+        A1 (1)
  182   182          98.4909155426        2680.0740642459      PH        B2 (3)
  183   130          98.4909155426        2680.0740642459      PH        B1 (2)
  184   215          98.5072354137        2680.5181505174      DE        A2 (4)
  185    72          98.5072354137        2680.5181505174      DE        A1 (1)
  186   183          98.5221197154        2680.9231729563      PI        B2 (3)
  187   131          98.5221197154        2680.9231729563      PI        B1 (2)
  188    73          98.5282288499        2681.0894109571     SG+        A1 (1)
  189   216         103.3287147306        2811.7172727628      DE        A2 (4)
  190    74         103.3287147306        2811.7172727632      DE        A1 (1)
  191   132         103.3313344498        2811.7885589484      PI        B1 (2)
  192   184         103.3313344498        2811.7885589484      PI        B2 (3)
  193    75         103.3428015584        2812.1005948366     SG+        A1 (1)
  194   185         103.3441126116        2812.1362704061      PH        B2 (3)
  195   133         103.3441126116        2812.1362704061      PH        B1 (2)
  196   217         114.9400285264        3127.6771842392      DE        A2 (4)
  197    76         114.9400285264        3127.6771842392      DE        A1 (1)
  198   186         115.0301512262        3130.1295475754      PI        B2 (3)
  199   134         115.0301512262        3130.1295475755      PI        B1 (2)
  200    77         115.1932582682        3134.5679158304     SG+        A1 (1)
  201   135         116.6387208383        3173.9009520176      PI        B1 (2)
  202   187         116.6387208384        3173.9009520181      PI        B2 (3)
  203    78         117.2711521007        3191.1102815715     SG+        A1 (1)
  204    79         121.7407236649        3312.7335070386     SG+        A1 (1)
  205   218         198.5745379978        5403.4878869352      DE        A2 (4)
  206    80         198.5745379978        5403.4878869354      DE        A1 (1)
  207   136         198.6637015030        5405.9141492617      PI        B1 (2)
  208   188         198.6637015030        5405.9141492617      PI        B2 (3)
  209    81         198.7329757392        5407.7991970629     SG+        A1 (1)
  210    82         216.1296141210        5881.1857939397     SG+        A1 (1)
  211   137         224.7381745772        6115.4366330368      PI        B1 (2)
  212   189         224.7381745772        6115.4366330370      PI        B2 (3)
  213    83         225.1316979197        6126.1449475852     SG+        A1 (1)
  214   138         395.1976272748       10753.8741545438      PI        B1 (2)
  215   190         395.1976272748       10753.8741545441      PI        B2 (3)
  216    84         395.6832424674       10767.0884157343     SG+        A1 (1)
  217    85         508.5029632913       13837.0690941550     SG+        A1 (1)
  218    86         894.9407297558       24352.5753176598     SG+        A1 (1)


  VSCF finished.

 @CHECKOUT-I, Total execution time (CPU/WALL):       55.99/      10.66 seconds.
--executable xvscf finished with status     0 in       10.74 seconds (walltime).
 --invoking executable--
/nfs/workspaces/public/cfour_mpi/bin/xvtran
 @GETMEM-I,  Allocated    3814 MB of main memory.
  Full RHF integral transformation
  Transformation of IIII integrals :
  1 pass through the AO integral file was required.
     4364111 AO integrals were read.
     8567228 MO integrals were written to HF2.
  Transformation of IIJJ integrals :
  1 pass through the AO integral file was required.
     9917301 AO integrals were read.
    14308011 MO integrals were written to HF2.
  Transformation of IJIJ integrals :
  1 pass through the AO integral file was required.
    18829929 AO integrals were read.
    26649830 MO integrals were written to HF2.
  Transformation of IJKL integrals :
  1 pass through the AO integral file was required.
    13891433 AO integrals were read.
    18029155 MO integrals were written to HF2.
  Summary of active molecular orbitals: 
------------------------------------------------------------------------
 
  Index      Eigenvalue    Symmetry    Index      Eigenvalue    Symmetry
------------------------------------------------------------------------
     1       -20.6243235        1       110         4.1308210        2
     2       -11.5349660        1       111         4.1559702        2
     3        -1.2260922        1       112         4.4538562        2
     4        -0.8138198        1       113         4.9707135        2
     5        -0.4890670        1       114         5.3508458        2
     6        -0.4777006        2       115         5.8744066        2
     7        -0.4777006        3       116         6.0932932        2
     8         0.0574652        1       117         6.3269511        2
     9         0.0684645        1       118         6.6512849        2
    10         0.1479922        1       119         6.9024721        2
    11         0.1623393        1       120         9.5620369        2
    12         0.2193048        1       121        10.7221484        2
    13         0.2861061        1       122        11.0057251        2
    14         0.3055963        1       123        11.9248483        2
    15         0.4085146        1       124        12.1382931        2
    16         0.5166631        1       125        13.0725974        2
    17         0.5504570        1       126        18.6453905        2
    18         0.6961521        1       127        26.4124145        2
    19         0.7301718        1       128        33.3106085        2
    20         0.8036313        1       129        47.2530429        2
    21         0.8443283        1       130        66.2453939        2
    22         0.9121634        1       131        98.4909155        2
    23         1.1562578        1       132        98.5221197        2
    24         1.3106720        1       133       103.3313344        2
    25         1.5757314        1       134       103.3441126        2
    26         1.5841746        1       135       115.0301512        2
    27         1.6545003        1       136       116.6387208        2
    28         1.8389837        1       137       198.6637015        2
    29         1.9229446        1       138       224.7381746        2
    30         2.0530873        1       139       395.1976273        2
    31         2.1115903        1       140        -0.0269899        3
    32         2.2232662        1       141         0.0812721        3
    33         2.2633899        1       142         0.1837233        3
    34         2.3490368        1       143         0.2789544        3
    35         2.5258724        1       144         0.4113600        3
    36         2.6318062        1       145         0.6242796        3
    37         2.7955314        1       146         0.7236658        3
    38         3.7260293        1       147         0.7657792        3
    39         3.7414392        1       148         0.8575064        3
    40         4.0539168        1       149         1.0605866        3
    41         4.1138001        1       150         1.4177929        3
    42         4.2859856        1       151         1.4474668        3
    43         4.3140417        1       152         1.6424686        3
    44         4.5416154        1       153         2.0005647        3
    45         4.8375344        1       154         2.1564885        3
    46         5.0926268        1       155         2.1931981        3
    47         5.8025248        1       156         2.1951725        3
    48         5.8997096        1       157         2.4529865        3
    49         6.0169545        1       158         2.6587403        3
    50         6.1174950        1       159         3.2151260        3
    51         6.2309257        1       160         3.8450974        3
    52         6.4525609        1       161         4.1308210        3
    53         7.0221734        1       162         4.1559702        3
    54         7.3479089        1       163         4.4538562        3
    55         9.2250624        1       164         4.9707135        3
    56        10.6179044        1       165         5.3508458        3
    57        10.6908244        1       166         5.8744066        3
    58        10.9000367        1       167         6.0932932        3
    59        11.0662115        1       168         6.3269511        3
    60        11.9714130        1       169         6.6512849        3
    61        12.4206664        1       170         6.9024721        3
    62        12.7255357        1       171         9.5620369        3
    63        13.2943580        1       172        10.7221484        3
    64        17.1219719        1       173        11.0057251        3
    65        19.3095275        1       174        11.9248483        3
    66        26.2288317        1       175        12.1382931        3
    67        26.8009221        1       176        13.0725974        3
    68        34.0489856        1       177        18.6453905        3
    69        35.4831286        1       178        26.4124145        3
    70        47.0889601        1       179        33.3106085        3
    71        47.3819778        1       180        47.2530429        3
    72        63.5889866        1       181        66.2453939        3
    73        66.7451820        1       182        98.4909155        3
    74        98.5072354        1       183        98.5221197        3
    75        98.5282288        1       184       103.3313344        3
    76       103.3287147        1       185       103.3441126        3
    77       103.3428016        1       186       115.0301512        3
    78       114.9400285        1       187       116.6387208        3
    79       115.1932583        1       188       198.6637015        3
    80       117.2711521        1       189       224.7381746        3
    81       121.7407237        1       190       395.1976273        3
    82       198.5745380        1       191         0.2193048        4
    83       198.7329757        1       192         0.5504570        4
    84       216.1296141        1       193         0.7301718        4
    85       225.1316979        1       194         0.8443283        4
    86       395.6832425        1       195         1.5841746        4
    87       508.5029633        1       196         1.6545003        4
    88       894.9407298        1       197         2.0530873        4
    89        -0.0269899        2       198         2.1115903        4
    90         0.0812721        2       199         2.2633899        4
    91         0.1837233        2       200         2.5258724        4
    92         0.2789544        2       201         3.7260293        4
    93         0.4113600        2       202         4.1138001        4
    94         0.6242796        2       203         4.3140417        4
    95         0.7236658        2       204         4.5416154        4
    96         0.7657792        2       205         5.8025248        4
    97         0.8575064        2       206         6.0169545        4
    98         1.0605866        2       207         6.2309257        4
    99         1.4177929        2       208         6.4525609        4
   100         1.4474668        2       209        10.6908244        4
   101         1.6424686        2       210        10.9000367        4
   102         2.0005647        2       211        11.9714130        4
   103         2.1564885        2       212        12.7255357        4
   104         2.1931981        2       213        26.2288317        4
   105         2.1951725        2       214        47.0889601        4
   106         2.4529865        2       215        98.5072354        4
   107         2.6587403        2       216       103.3287147        4
   108         3.2151260        2       217       114.9400285        4
   109         3.8450974        2       218       198.5745380        4
------------------------------------------------------------------------
  -20.6243234684483       -11.5349660433891       -1.22609219599113     
 -0.813819801063507      -0.489066959433451      -0.477700597480506     
 -0.477700597480523       5.746519125941688E-002  6.846445280907779E-002
  0.147992179646526       0.162339305836369       0.219304775240716     
  0.286106138648061       0.305596289223674       0.408514550586502     
  0.516663112791523       0.550456990391805       0.696152130049724     
  0.730171843378317       0.803631295946976       0.844328349709419     
  0.912163419257938        1.15625783316191        1.31067195251795     
   1.57573138643411        1.58417461582164        1.65450032377828     
   1.83898374535649        1.92294460894809        2.05308734757793     
   2.11159027020551        2.22326619088173        2.26338993244605     
   2.34903679533665        2.52587237673847        2.63180624305014     
   2.79553141910390        3.72602928662744        3.74143917463703     
   4.05391675521865        4.11380010695248        4.28598561857473     
[...]
 Convergence information after    22 iterations: 
 Largest element of residual vector :  0.14287608E-06.
 Largest element of DIIS residual   :  0.88060042E-07.
 Perturbed amplitude equations converged in    22 iterations.
  Dominant contributions to perturbed wavefunction:
    7    0   46    0   0.3420719276 AA  
    7    0   22    0   0.2891012247 AA  
    7    0   32    0   0.2331351104 AA  
    7    0   36    0   0.2299219373 AA  
    7    7  140   46  -0.2267621736 ABAB
    7    7   46  140  -0.2267621736 ABAB
    7    0   28    0   0.2240743747 AA  
    7    7  140   22  -0.2234240385 ABAB
    7    7   22  140  -0.2234240385 ABAB
    7    0   54    0  -0.2080398123 AA  
    7    0   16    0  -0.2036299051 AA  
    7    0   25    0   0.1994389403 AA  
    7    0   56    0   0.1888554375 AA  
    7    7  140   32  -0.1887539380 ABAB
    7    7   32  140  -0.1887539380 ABAB
    7    0   24    0   0.1790666188 AA  
    7    0   37    0   0.1766169184 AA  
    7    0   39    0   0.1716036532 AA  
    7    0   63    0  -0.1600373233 AA  
    7    7  140   36  -0.1526699092 ABAB
  norm of converged amps    1.56804749966339     
 Starting iterative solution of the perturbed Lambda equations.
 The DIIS procedure is used to accelerate convergence.
 Convergence criterion is 10**(-7).
 Maximum number of iterations is 100.
 Convergence information after     1 iterations: 
 Largest element of residual vector :  0.75804233E-01.
 Largest element of DIIS residual   :  0.75804233E-01.
 Convergence information after     2 iterations: 
 Largest element of residual vector :  0.21034062E-01.
 Largest element of DIIS residual   :  0.14915963E-01.
 Convergence information after     3 iterations: 
 Largest element of residual vector :  0.68266307E-02.
 Largest element of DIIS residual   :  0.56234925E-02.
 Convergence information after     4 iterations: 
 Largest element of residual vector :  0.29338465E-02.
 Largest element of DIIS residual   :  0.28270753E-02.
 Convergence information after     5 iterations: 
 Largest element of residual vector :  0.29512330E-02.
 Largest element of DIIS residual   :  0.26232738E-02.
 Convergence information after     6 iterations: 
 Largest element of residual vector :  0.18147582E-02.
 Largest element of DIIS residual   :  0.96684063E-03.
 Convergence information after     7 iterations: 
 Largest element of residual vector :  0.10501937E-02.
 Largest element of DIIS residual   :  0.50876027E-03.
 Convergence information after     8 iterations: 
 Largest element of residual vector :  0.39580034E-03.
 Largest element of DIIS residual   :  0.19335694E-03.
 Convergence information after     9 iterations: 
 Largest element of residual vector :  0.16119317E-03.
 Largest element of DIIS residual   :  0.10034656E-03.
 Convergence information after    10 iterations: 
 Largest element of residual vector :  0.11796995E-03.
 Largest element of DIIS residual   :  0.82677810E-04.
 Convergence information after    11 iterations: 
 Largest element of residual vector : -0.41145335E-04.
 Largest element of DIIS residual   : -0.22124146E-04.
 Convergence information after    12 iterations: 
 Largest element of residual vector :  0.31312489E-04.
 Largest element of DIIS residual   :  0.15896576E-04.
 Convergence information after    13 iterations: 
 Largest element of residual vector :  0.91833998E-05.
 Largest element of DIIS residual   :  0.68035714E-05.
 Convergence information after    14 iterations: 
 Largest element of residual vector :  0.84185556E-05.
 Largest element of DIIS residual   :  0.40799400E-05.
 Convergence information after    15 iterations: 
 Largest element of residual vector :  0.47109344E-05.
 Largest element of DIIS residual   :  0.24615457E-05.
 Convergence information after    16 iterations: 
 Largest element of residual vector :  0.19175746E-05.
 Largest element of DIIS residual   :  0.56336040E-06.
 Convergence information after    17 iterations: 
 Largest element of residual vector :  0.11057932E-05.
 Largest element of DIIS residual   :  0.54682072E-06.
 Convergence information after    18 iterations: 
 Largest element of residual vector :  0.27302370E-06.
 Largest element of DIIS residual   : -0.17830928E-06.
 Convergence information after    19 iterations: 
 Largest element of residual vector :  0.24578684E-06.
 Largest element of DIIS residual   :  0.12316262E-06.
 Convergence information after    20 iterations: 
 Largest element of residual vector : -0.83095489E-07.
 Largest element of DIIS residual   :  0.63956611E-07.
 Perturbed Lambda equations converged in    20 iterations.
  Dominant contributions to perturbed wavefunction:
    7    7  140   22  -0.1476928825 ABAB
    7    7   22  140  -0.1476928825 ABAB
    7    7  140   46  -0.1455469985 ABAB
    7    7   46  140  -0.1455469985 ABAB
    7    7  140   32  -0.1256054319 ABAB
    7    7   32  140  -0.1256054319 ABAB
    7    0   46    0   0.0995569803 AA  
    7    7  140   36  -0.0985071520 ABAB
    7    7   36  140  -0.0985071520 ABAB
    7    6   22   89  -0.0937658440 ABAB
    6    7   89   22  -0.0937658440 ABAB
    7    6   46   89  -0.0935110890 ABAB
    6    7   89   46  -0.0935110890 ABAB
    7    7  140   16   0.0925245159 ABAB
    7    7   16  140   0.0925245159 ABAB
    7    7  140   56  -0.0920734336 ABAB
    7    7   56  140  -0.0920734336 ABAB
    7    7  140   28  -0.0903609675 ABAB
    7    7   28  140  -0.0903609675 ABAB
    7    7  140   39  -0.0858037750 ABAB
        The DBOC first-order density matrix is being calculated 
             (Symmetry block 3, perturbation   2)
 term   2.59851804439151     
 final tnorm  0.642627245948092     
  norm contr. I: |<0|L dT/dx|0>|^2   0.000000000000000E+000
  norm contr. II: <0|[nabla(1+L)e-T][nabla e^T]|0>   2.59851804439151     
  total norm contribution   2.59851804439151     
 oo  1.361765556099678E-002
 vv  -19.4062317771412     
 vo -2.983102904001171E-002
  Correlated perturbed 1-el contribution to DBOC  -19.4224451506202       cm**-1
  SUM_I |dc_I/dx|^2 contribution to DBOC   9.78266584675932       cm**-1
 
 
  The total diagonal Born-Oppenheimer correction (DBOC) is:      0.0040040649 a.u.
  The total diagonal Born-Oppenheimer correction (DBOC) is:        878.790669 cm-1
 
 Total CC energy including DBOC  -113.002173656973     
 First-order density matrix is being calculated  (Symmetry block 3, perturbation   2)
 Calculation of the contributions of <pq||rs> to dI(i,j)/dx required   3.1 seconds.
 Calculation of the contributions of <pq||rs> to dI(a,b)/dx required  16.6 seconds.
 Calculation of the contributions of <pq||rs> to dI(i,a)/dx required   9.3 seconds.
 First-order Z-vector equations are solved for 1 perturbation.
 Convergence reached after  20 iterations.
        U*G(pq,rs) contribution is being calculated
             (Symmetry block 3, perturbation   2)

 CCSD contribution to force constants 

        0.0000000000        0.0000000000        0.0000000000
        0.0000000000        0.0000000000        0.0000000000
        0.0000000000        0.0000000000        0.0000000000
        0.0000000000        0.0000000000        0.0000000000
        0.0000000000        0.0000000000        0.0000000000
        0.0000000000        0.0000000000        0.0000000000
        0.0000000000        0.0000000000        0.0000000000
        0.0000000000        0.0000000000        0.0000000000
        0.0000000000        0.0000000000        0.0000000000
        0.0000000000        0.0000000000        0.0000000000
        0.0000000000        0.0000000000        0.0000000000
        0.0000000000      -11.1730146551       11.1730146551

 CCSD contribution to dipole derivatives 

        0.0000000000        0.0000000000        0.0000000000
        0.0000000000        0.0000000000        0.0000000000
        0.0000000000        0.0000000000        0.0000000000
        0.0000000000        0.0000000000       -0.0549555048
        0.0000000000        0.0000000000        0.0000000000
        0.0000000000        0.0000000000        0.0000000000
 @CHECKOUT-I, Total execution time (CPU/WALL):     1288.65/     485.11 seconds.
--executable xsdcc finished with status     0 in      485.31 seconds (walltime).
 --invoking executable--
/nfs/workspaces/public/cfour_mpi/bin/xanti
 @GETMEM-I,  Allocated    3814 MB of main memory.
 CCSD MO derivative gammas will be sorted to Mulliken order.
 @CHECKOUT-I, Total execution time (CPU/WALL):       16.36/      35.30 seconds.
--executable xanti finished with status     0 in       35.45 seconds (walltime).
 --invoking executable--
/nfs/workspaces/public/cfour_mpi/bin/xbcktrn
 @GETMEM-I,  Allocated    3814 MB of main memory.
 CCSD MO derivative gammas will be transformed to the AO basis.
 @CHECKOUT-I, Total execution time (CPU/WALL):       28.08/       5.05 seconds.
--executable xbcktrn finished with status     0 in        5.11 seconds (walltime).
 --invoking executable--
/nfs/workspaces/public/cfour_mpi/bin/xvdint
 @GETMEM-I,  Allocated    3814 MB of main memory.
 One- and two-electron integral derivatives are calculated
 for RHF-CC/MBPT hessians and dipole derivatives.
 Spherical gaussians are used.
  magnet F F
                    8722  records have been written to the Sort file.
  Total length of Sort file :             178609116  words.
 Evaluation of 2el integral derivatives

                      Two-electron integral gradient
                      ------------------------------

                         C #1 z     0.0000000000
                         O #2 z     0.0000000000


 C #1       0.0000000000            0.0609958185            0.0000000000
 O #2       0.0000000000           -0.0609958185            0.0000000000


 Evaluation of 2e integral derivatives required  333.01 seconds.
  contribution to Hessian
        0.0000000000        0.0000000000        0.0000000000
        0.0000000000        0.0609958185       -0.0609958185
 @CHECKOUT-I, Total execution time (CPU/WALL):      332.99/      66.92 seconds.
--executable xvdint finished with status     0 in       67.12 seconds (walltime).
 --invoking executable--
/nfs/workspaces/public/cfour_mpi/bin/xanti
 @GETMEM-I,  Allocated    3814 MB of main memory.
 CCSD MO gammas will be sorted to Mulliken order.
 @CHECKOUT-I, Total execution time (CPU/WALL):       16.66/      53.74 seconds.
--executable xanti finished with status     0 in       53.88 seconds (walltime).
 --invoking executable--
/nfs/workspaces/public/cfour_mpi/bin/xbcktrn
 @GETMEM-I,  Allocated    3814 MB of main memory.
 CCSD MO gammas will be transformed to the AO basis.
 @CHECKOUT-I, Total execution time (CPU/WALL):       64.91/      23.01 seconds.
--executable xbcktrn finished with status     0 in       23.10 seconds (walltime).
 --invoking executable--
/nfs/workspaces/public/cfour_mpi/bin/xvdint
 @GETMEM-I,  Allocated    3814 MB of main memory.
 One- and two-electron integral derivatives are calculated
 for RHF-CC/MBPT hessians and dipole derivatives.
 Spherical gaussians are used.
  magnet F F

                     Kinetic energy integral gradient
                     --------------------------------

                         C #1 z    -0.3696701564
                         O #2 z     0.3696701564


 C #1       0.0000000000            0.0000000000           -0.3696701564
 O #2       0.0000000000            0.0000000000            0.3696701564



                   Nuclear attraction integral gradient
                   ------------------------------------

                         C #1 z    11.4271032388
                         O #2 z   -11.4271032388


 C #1       0.0000000000            0.0000000000           11.4271032388
 O #2       0.0000000000            0.0000000000          -11.4271032388



                      Reorthonormalization gradient
                      -----------------------------

                         C #1 z     0.0000000000
                         O #2 z     0.0000000000


 C #1       0.0000000000            0.0000000000            0.0000000000
 O #2       0.0000000000            0.0000000000            0.0000000000



                     Kinetic energy integral Hessian
                     -------------------------------


           Symmetry 1

           C #1 z      O #2 z

 C #1 z    0.394034
 O #2 z   -0.394034    0.394034


           Symmetry 2

           C #1 x      O #2 x

 C #1 x   -0.239194
 O #2 x    0.239194   -0.239194


           Symmetry 3

           C #1 y      O #2 y

 C #1 y   -0.239194
 O #2 y    0.239194   -0.239194




           C #1 x      C #1 y      C #1 z      O #2 x      O #2 y      O #2 z

 C #1 x   -0.239194
 C #1 y    0.000000   -0.239194
 C #1 z    0.000000    0.000000    0.394034

 O #2 x    0.239194    0.000000    0.000000   -0.239194
 O #2 y    0.000000    0.239194    0.000000    0.000000   -0.239194
 O #2 z    0.000000    0.000000   -0.394034    0.000000    0.000000    0.394034




                   Nuclear attraction integral Hessian
                   -----------------------------------


           Symmetry 1

           C #1 z      O #2 z

 C #1 z   -6.723199
 O #2 z    6.723199   -6.723199


           Symmetry 2

           C #1 x      O #2 x

 C #1 x    5.245972
 O #2 x   -5.245972    5.245972


           Symmetry 3

           C #1 y      O #2 y

 C #1 y    5.245972
 O #2 y   -5.245972    5.245972




           C #1 x      C #1 y      C #1 z      O #2 x      O #2 y      O #2 z

 C #1 x    5.245972
 C #1 y    0.000000    5.245972
 C #1 z    0.000000    0.000000   -6.723199

 O #2 x   -5.245972    0.000000    0.000000    5.245972
 O #2 y    0.000000   -5.245972    0.000000    0.000000    5.245972
 O #2 z    0.000000    0.000000    6.723199    0.000000    0.000000   -6.723199




                Highest order reorthonormalization Hessian
                ------------------------------------------


           Symmetry 1

           C #1 z      O #2 z

 C #1 z    0.000000
 O #2 z    0.000000    0.000000


           Symmetry 2

           C #1 x      O #2 x

 C #1 x    0.000000
 O #2 x    0.000000    0.000000


           Symmetry 3

           C #1 y      O #2 y

 C #1 y    0.000000
 O #2 y    0.000000    0.000000




           C #1 x      C #1 y      C #1 z      O #2 x      O #2 y      O #2 z




                Electronic contributions to dipole moment
                -----------------------------------------

                               au             Debye

                    z      1.53100662      3.89143135

  Conversion factor used: 1 a.u. =   2.54174691 Debye 



   Electronic contributions to static part of dipole moment derivatives
   --------------------------------------------------------------------


                     Total dipole moment derivatives
                     -------------------------------


           Symmetry 1
                              Ez

               C #1 z    -5.70704749
               O #2 z    -8.29295251

           Symmetry 2
                              Ex

               C #1 x    -5.69577795
               O #2 x    -8.30422205

           Symmetry 3
                              Ey

               C #1 y    -5.69577795
               O #2 y    -8.30422205



                       Ex          Ey          Ez

      C #1    x   -5.695778    0.000000    0.000000
      C #1    y    0.000000   -5.695778    0.000000
      C #1    z    0.000000    0.000000   -5.707047

      O #2    x   -8.304222    0.000000    0.000000
      O #2    y    0.000000   -8.304222    0.000000
      O #2    z    0.000000    0.000000   -8.292953

 Evaluation of 1e integral derivatives required    1.67 seconds.
                    8815  records have been written to the Sort file.
  Total length of Sort file :             180513570  words.
 Evaluation of 2el integral derivatives

                      Two-electron integral gradient
                      ------------------------------

                         C #1 z    -6.2702386573
                         O #2 z     6.2702386573


 C #1       0.0000000000            0.0000000000           -6.2702386573
 O #2       0.0000000000            0.0000000000            6.2702386573


 Evaluation of 2e integral derivatives required  623.01 seconds.

                            Molecular gradient
                            ------------------

                         C #1 z     0.4917847913
                         O #2 z    -0.4917847913


 C #1       0.0000000000            0.0000000000            0.4917847913
 O #2       0.0000000000            0.0000000000           -0.4917847913


  Molecular gradient norm 0.695E+00

                            Molecular hessian
                            -----------------


           Symmetry 1

           C #1 z      O #2 z

 C #1 z    6.725155
 O #2 z   -6.725155    6.725155


           Symmetry 2

           C #1 x      O #2 x

 C #1 x   11.333528
 O #2 x  -11.333528   11.333528


           Symmetry 3

           C #1 y      O #2 y

 C #1 y   11.333528
 O #2 y  -11.333528   11.333528




           C #1 x      C #1 y      C #1 z      O #2 x      O #2 y      O #2 z

 C #1 x   11.333528
 C #1 y    0.000000   11.333528
 C #1 z    0.000000    0.000000    6.725155

 O #2 x  -11.333528    0.000000    0.000000   11.333528
 O #2 y    0.000000  -11.333528    0.000000    0.000000   11.333528
 O #2 z    0.000000    0.000000   -6.725155    0.000000    0.000000    6.725155




                           Total dipole moment
                           -------------------

                               au             Debye

                    z      0.60217173      1.53056815

  Conversion factor used: 1 a.u. =   2.54174691 Debye 



                     Total dipole moment derivatives
                     -------------------------------


           Symmetry 1
                              Ez

               C #1 z     0.37357595
               O #2 z    -0.37357595

           Symmetry 2
                              Ex

               C #1 x     0.19479436
               O #2 x    -0.19479436

           Symmetry 3
                              Ey

               C #1 y     0.19479436
               O #2 y    -0.19479436



                       Ex          Ey          Ez

      C #1    x    0.194794    0.000000    0.000000
      C #1    y    0.000000    0.194794    0.000000
      C #1    z    0.000000    0.000000    0.373576

      O #2    x   -0.194794    0.000000    0.000000
      O #2    y    0.000000   -0.194794    0.000000
      O #2    z    0.000000    0.000000   -0.373576

 @CHECKOUT-I, Total execution time (CPU/WALL):      624.66/     106.64 seconds.
--executable xvdint finished with status     0 in      106.89 seconds (walltime).
 --invoking executable--
/nfs/workspaces/public/cfour_mpi/bin/xjoda
  @GTFLGS-I, Hessian will be transformed to curvilinear coordinates.
  @GTFLGS-I, Hessian will be transformed to curvilinear coordinates.
  igrd and ihes are                      0                     1
  gradient from JOBARC 
   0.000000000000000   0.000000000000000   0.491784791318386
   0.000000000000000   0.000000000000000  -0.491784791318386
 
  @PROJFCM-I, Projecting force constant matrix onto totally symmetric subspace.
  Largest difference between matrix elements of symmetrized
  and unsymmetrized FCM :    -0.1598721155E-13.
  read isotopes from ZMAT file 
 
  Summary of diagonal Born-Oppenheimer correction at the correlated level
  The total diagonal Born-Oppenheimer correction (DBOC) is:      0.0040040649 a.u.
  The total diagonal Born-Oppenheimer correction (DBOC) is:        878.790669 cm-1
  The total diagonal Born-Oppenheimer correction (DBOC) is:            10.513 kJ/mole
  hellooooooo 
  readis is  F
 
 @CHECKOUT-I, Total execution time (CPU/WALL):        0.02/       0.08 seconds.
--executable xjoda finished with status     0 in        0.15 seconds (walltime).
  The final electronic energy is      -113.002173656973056 a.u. 
  This computation required                         4410.40 seconds (walltime).
