 --invoking executable--
/nfs/workspaces/public/cfour_mpi/bin/xjoda


   *************************************************************************
         <<<     CCCCCC     CCCCCC   |||     CCCCCC     CCCCCC   >>>
       <<<      CCC        CCC       |||    CCC        CCC         >>>
      <<<      CCC        CCC        |||   CCC        CCC            >>>
    <<<        CCC        CCC        |||   CCC        CCC              >>>
      <<<      CCC        CCC        |||   CCC        CCC            >>>
       <<<      CCC        CCC       |||    CCC        CCC         >>>
         <<<     CCCCCC     CCCCCC   |||     CCCCCC     CCCCCC   >>>
   *************************************************************************

     ****************************************************************
     * CFOUR Coupled-Cluster techniques for Computational Chemistry *
     ****************************************************************
 

   Department of Chemistry                Institut fuer Physikalische Chemie
   University of Florida                  Universitaet Mainz
   Gainesville, FL 32611, USA             D-55099 Mainz, Germany

   Department of Chemistry                Fakultaet fuer Chemie und Biowiss.
   Johns Hopkins University               Karlsruher Institut fuer Technologie
   Baltimore, MD 21218, USA               D-76131 Karlsruhe, Germany

   Department of Chemistry                Department of Physical Chemistry
   Southern Methodist University          Eotvos Lorand University
   Dallas, TX 75275, USA                  H-1053 Budapest, Hungary

 
                       Version 2.1
 
                     vincent.theory.phys.ucl.ac.uk                     
                     Thu 27 Feb 16:53:29 GMT 2025                      
                     integer*8 version is running
 
********************************************************************************
*                          Input from ZMAT file                                *
********************************************************************************
Carbon Monoxide DBOC calculation                                                
C                                                                               
O 1 r                                                                           
                                                                                
r=1.396551724137931                                                             
                                                                                
                                                                                
*CFOUR(CALC=CCSD,BASIS=AUG-PCVQZ,SCF_CONV=10                                    
CC_CONV=14,DBOC=ON,MEMORY=500000000                                             
ZFIELD=200)                                                                     
                                                                                
%isotopes                                                                       
13                                                                              
16                                                                              
********************************************************************************
  @GTFLGS-I, Hessian will be transformed to curvilinear coordinates.
    -------------------------------------------------------------------
                    CFOUR Control Parameters 
    -------------------------------------------------------------------
        External           Internal           Value            Units
          Name               Name
    -------------------------------------------------------------------
       ABCDTYPE             IABCDT         STANDARD    [  0]    ***   
       ANHARMONIC           IANHAR         OFF         [  0]    ***   
       ANH_ALGORIT          IANALG         STANDARD    [  0]    ***   
       ANH_DERIVAT          IANDER         SECOND      [  1]    ***   
       ANH_MODE             ANHMOD         VIBRATION   [  0]    ***   
       ANH_STEPSIZ          ICUBST             50000          x 10-6  
       ANH_SYMMETR          IANHSM         ABELIAN     [  0]    ***   
       AO_LADDERS           IAOLAD         SINGLEPASS  [  1]    ***   
       AV_SCF               IAVSCF         OFF         [  0]    ***   
       BASIS                IBASIS         AUG-PCVQZ   [ 52]    ***   
       BOTHVECTORS          BOTHVC         OFF         [  0]    ***   
       BOX_POTENT           IPIAB          OFF         [  0]    ***   
       BREIT                IBREIT         OFF         [  0]    ***   
       BRUCK_CONV           IBRTOL          10D-  4             ***   
       BRUECKNER            IBRKNR         OFF         [  0]    ***   
       BUFFERSIZE           IBUFFS              4096            ***   
       CACHE_RECS           ICHREC             10               ***   
       CALCLEVEL            ICLLVL         CCSD        [ 10]    ***   
       CCORBOPT             ICCORB         OFF         [  0]  x 0.01  
       CC_CONV              ICCCNV          10D- 14             ***   
       CC_EXPORDER          ICCEOR              5               ***   
       CC_EXTRAPOL          ICCEXT         DIIS        [  1]    ***   
       CC_GUESS             ICCGES         MP2         [  0]    ***   
       CC_MAXCYC            ICCCYC            100              cycles 
       CC_PROGRAM           ICCPRO         VCC         [  0]    ***   
       CHARGE               ICHRGE              0               ***   
       CHOLESKY             ICHOLE         OFF         [  0]    ***   
       CIS_CONV             ICISTL              5               ***   
       COMM_SIZE            IPSIZE            ***               ***   
       CONSTANT             ICONST         OLD         [  1]    ***   
       CONTINUUM            ICONTU         NONE        [  0]    ***   
       CONTRACTION          ICNTYP         GENERAL     [  1]    ***   
       COORDINATES          ICOORD         INTERNAL    [  0]    ***   
       CPHF_CONVER          ICPHFT          10D- 16             ***   
       CPHF_MAXCYC          ICPHFC             64              cycles 
       CUBIC                ICUBIC         OFF         [  0]    ***   
       CURVILINEAR          ICURVY         ON          [  1]    ***   
       DBOC                 IDBOC          ON          [  1]    ***   
       DCT                  IDCT           OFF         [  0]    ***   
       DERIV_LEV            IDRLVL         SECOND      [  2]    ***   
       DEVMEM_SIZE          IDVMEM          50000000           MByte  
       DIAG_MRCC            IEOMST          10D-  0             ***   
       DIFF_TYPE            IDIFTY         RELAXED     [  0]    ***   
       DIRECT               IDIRCT         OFF         [  0]    ***   
       DROPMO               IDRPMO      NONE         
       ECP                  IECP           OFF         [  0]    ***   
       EIGENVECTOR          IVEC                1               ***   
       EL_ANHARM            IELANH         OFF         [  0]    ***   
       EOMFOLLOW            IEOMSR         ENERGY      [  0]    ***   
       EOMIP                IEOMIP         OFF         [  0]    ***   
       EOMLEVEL             HBARFM         SAME        [  0]    ***   
       EOM_MRCC             IMRCCE         NEW         [  1]    ***   
       EOM_NONIT            EOMNON         OFF         [  0]    ***   
       EOM_NSING            IEOMSI          10D-  0             ***   
       EOM_NSTATES          IMRCCD         DAVIDSON    [  0]    ***   
       EOM_NTRIP            IEOMTR          10D-  0             ***   
       EOM_ORDER            IEXORD         ENERGY      [  0]    ***   
       EOM_PROPSTA          IEOMST              0               ***   
       ESTATE_CONV          IEXTOL          10D-  5             ***   
       ESTATE_DIAG          IEXDIG         ITERATIVE   [  0]    ***   
       ESTATE_LOCK          IESLOC         ON          [  1]    ***   
       ESTATE_MAXC          IEXMXC             40               ***   
       ESTATE_PROP          IEXPRP         OFF         [  0]    ***   
       EVAL_HESS            IRECAL              0            # of cyc.
       EXCITATION           IEXCIT              0               ***   
       EXCITE               IEXCIT         NONE        [  0]    ***   
       EXTERN_POT           IEXPOT         OFF         [  0]    ***   
       FCGRADNEW            IFCGNW         OFF         [  0]    ***   
       FC_FIELD             IFINFC              0             x 10-6  
       FD_CALTYPE           IFDCAL         GRADONLY    [  0]    ***   
       FD_PROJECT           IFDPRJ         OFF         [  1]    ***   
       FD_STEPSIZE          IDISFD              0            10-4 bohr
       FD_USEGROUP          IFDGRP         FULL        [  0]    ***   
       FILE_RECSIZ          IFLREC              4096           words  
       FINITE_PERT          IFIPER              0             x 10-6  
       FIXGEOM              IFIXGM         OFF         [  0]    ***   
       FOCK                 IFOCK          AO          [  1]    ***   
       FREQ_ALGORI          IVIALG         STANDARD    [  0]    ***   
       FROZEN_CORE          IFROCO         OFF         [  0]    ***   
       GAMMA_ABCD           IGABCD         STORE       [  0]    ***   
       GAMMA_ABCI           IGABCI         STORE       [  0]    ***   
       GENBAS_1             IGNBS1              0               ***   
       GENBAS_2             IGNBS2              0               ***   
       GENBAS_3             IGNBS3              0               ***   
       GENBAS_4             IGNBS4              0               ***   
       GEO_CONV             ICONTL              5              H/bohr 
       GEO_MAXCYC           IOPTCY             50               ***   
       GEO_MAXSTEP          IMXSTP            300            millibohr
       GEO_METHOD           INR            SINGLE_POINT[  5]    ***   
       GIAO                 IGIAO          OFF         [  1]    ***   
       GIMIC                IGIMIC         OFF         [  0]    ***   
       GRID                 IGRID          OFF         [  0]    ***   
       GRID_ALGO            IGALGO         SERIAL      [  0]    ***   
       GUESS                IGUESS         MOREAD      [  0]    ***   
       HBAR                 IHBAR          OFF         [  0]    ***   
       HESS_TYPE            IHESTP         SCF         [  0]    ***   
       HF2_FILE             IHF2Fl         USE         [  1]    ***   
       HFSTABILITY          ISTABL         OFF         [  0]    ***   
       INCORE               INCORE         OFF         [  0]    ***   
       INPUT_MRCC           IMRCC          ON          [  1]    ***   
       INTEGRALS            INTTYP         VMOL        [  1]    ***   
       JODA_PRINT           IJPRNT              0               ***   
       KEYWORD_OUT          IDMPKW         NO          [  0]    ***   
       LINDEP_TOL           ILINDP              8               ***   
       LINEQ_CONV           IZTACN          10D-  7           cycles  
       LINEQ_EXPOR          ILMAXD              5               ***   
       LINEQ_MAXCY          ILMAXC            100               ***   
       LINEQ_TYPE           ILTYPE         DIIS        [  1]    ***   
       LOCK_ORBOCC          ILOCOC         OFF         [  0]    ***   
       MEMORY_SIZE          IMEMSZ         500000000           words  
       MEM_UNIT             IMEMU          INTEGERWORDS[  0]    ***   
       MRCC                 IMRCCC         OFF         [  0]    ***   
       MULTIPLICTY          IMULTP              1               ***   
       NACOUPLING           IVCOUP         OFF         [  0]    ***   
       NEGEVAL              IDIE           ABORT       [  0]    ***   
       NEWNORM              INEWNO         OFF         [  0]    ***   
       NON-HF               INONHF         OFF         [  0]    ***   
       NTOP_TAMP            ITOPT2             15               ***   
       NUC_MODEL            INUCMO         POINT       [  0]    ***   
       OCCUPATION           IOCCU   ESTIMATED BY SCF 
       OPEN-SHELL           IOPEN          SPIN-ORBITAL[  0]    ***   
       OPTVIB               IOPTVB         OFF         [  0]    ***   
       ORBITALS             IORBTP         STANDARD    [  0]    ***   
       PARALLEL             IPARAL         ON          [  1]    ***   
       PARA_INT             IPINTS         ON          [  1]    ***   
       PARA_PRINT           IPPRIN              0               ***   
       PERT_ORB             IPTORB         STANDARD    [  0]    ***   
       POINTS               IGRDFD              0               ***   
       PRINT                IPRNT               0               ***   
       PROPS                IPROPS         OFF         [  0]    ***   
       PROP_INTEGR          IINTYP         INTERNAL    [  0]    ***   
       PSI                  IPSI           OFF         [  0]    ***   
       QC_ALG               IQCALG         FLM         [  0]    ***   
       QC_LINALG            IQCLIN         TRIDIAG     [  2]    ***   
       QC_MAXCYC            IQCMAX          10D-100           cycles  
       QC_MAXSCFCY          IQCMSC          10D- 15           cycles  
       QC_RTRUST            IQCRTR          10D-  0           x 10-3  
       QC_SKIPSCF           IQCSKI         OFF         [  0]    ***   
       QC_START             IQCSTA          10D-  1             ***   
       QRHFGUESS            IQGUES         OFF         [  0]    ***   
       QUARTIC              IQUART         OFF         [  0]    ***   
       RAMAN_INT            IRAMIN         OFF         [  0]    ***   
       RAMAN_ORB            IRAMRE         UNRELAXED   [  0]    ***   
       RDO                  IRDOFM         ON          [  1]    ***   
       REDUCE_REPR          REDREP         Ir          [  0]    ***   
       REFERENCE            IREFNC         RHF         [  0]    ***   
       RELATIVIST           IRELAT         OFF         [  0]    ***   
       RELAX_DENS           IRDENS         ON          [  1]    ***   
       RESET_FLAGS          IRESET         OFF         [  0]    ***   
       RESTART_CC           ICCRES         OFF         [  0]    ***   
       ROT_EVEC             ROTVEC              0               ***   
       SAVE_INTS            ISVINT         OFF         [  0]    ***   
       SCALE_ON             ISTCRT              0               ***   
       SCF_CONV             ISCFCV          10D- 10             ***   
       SCF_DAMPING          IDAMP               0             x 10-3  
       SCF_EXPORDE          IRPPOR              6               ***   
       SCF_EXPSTAR          IRPPLS              8               ***   
       SCF_EXTRAPO          IRPP           ON          [  1]    ***   
       SCF_MAXCYC           ISCFCY            150              cycles 
       SCF_NOSTOP           ISCFST         OFF         [  0]    ***   
       SCF_PRINT            ISCFPR              0               ***   
       SCF_PROG             ISCFPR         SCF         [  0]    ***   
       SD_FIELD             IFINSD              0             x 10-6  
       SOPERT               IPERSO         OFF         [  0]    ***   
       SPHERICAL            IDFGHI         ON          [  1]    ***   
       SPINORBIT            ISOCAL         OFF         [  0]    ***   
       SPINROTATIO          ISRCON         OFF         [  0]    ***   
       SPIN_FLIP            ISPFLP         OFF         [  0]    ***   
       SPIN_ORBIT           ISPORB         OFF         [  0]    ***   
       SPIN_SCAL            ISCSMP         OFF         [  0]    ***   
       STEEPSCALE           ISTPSC              1000          x 10-3  
       SUBGROUP             ISUBGP         DEFAULT     [  0]    ***   
       SUBGRPAXIS           ISBXYZ         X           [  0]    ***   
       SYMMETRY             ISYM           ON          [  0]    ***   
       SYM_CHECK            ISYMCK         OVERRIDE    [  1]    ***   
       T3_EXTRAPOL          IT3EXT         OFF         [  0]    ***   
       T4_EXTRAPOL          IT4EXP         OFF         [  0]    ***   
       TAMP_SUM             IEVERY              5               ***   
       TESTSUITE            ITESTS         OFF         [  0]    ***   
       THERMOCH             ITHERM         OFF         [  0]    ***   
       TOL_CHOLESK          ITOLCH          10D-  4             ***   
       TRANGRAD             IRESRM         OFF         [  0]    ***   
       TRANS_INV            ITRAIN         IGNORE      [  1]    ***   
       TREAT_PERT           ITREAT         SIMULTANEOUS[  0]    ***   
       TRIP_ALGORI          ITRALG         NORMAL      [  0]    ***   
       UIJ_THRESHO          IUIJTH              1               ***   
       UNITS                IUNITS         ANGSTROM    [  0]    ***   
       UNOS                 IUNOS          OFF         [  0]    ***   
       UPDATE_HESS          IHUPDT         ON          [  1]    ***   
       VIBPHASE             ISETPH         STANDARD    [  0]    ***   
       VIBRATION            IVIB           ANALYTIC    [  1]    ***   
       VIB_ALGORIT          IGEALG         STANDARD    [  0]    ***   
       VNATORB              IVNORB         OFF         [  0]    ***   
       VTRAN                IVTRAN         FULL/PARTIAL[  0]    ***   
       XFIELD               IXEFLD              0             x 10-6  
       XFORM_TOL            IXFTOL          10D- 11             ***   
       YFIELD               IYEFLD              0             x 10-6  
       ZFIELD               IZEFLD            200             x 10-6  
       ZSCALE_EXP           IZEXPS         OFF         [  0]    ***   
    -------------------------------------------------------------------
   2 entries found in Z-matrix 
   Job Title : Carbon Monoxide DBOC calculation                                                
   There are  1 unique internal coordinates.
   Of these,  0 will be optimized.
   User supplied Z-matrix: 
--------------------------------------------------------------------------------
       SYMBOL    BOND      LENGTH    ANGLE     ANGLE     DIHED     ANGLE
                  TO      (ANGST)    WRT      (DEG)      WRT      (DEG)
--------------------------------------------------------------------------------
        C    
        O          1         r    
                  *Initial values for internal coordinates* 
                      Name             Value
                        r               1.3965517241
--------------------------------------------------------------------------------
  read isotopes from ZMAT file 
   Rotational constants (in cm-1): 
          1.2050837930             1.2050837930
   Rotational constants (in MHz): 
      36127.5083010552         36127.5083010552
********************************************************************************
   The full molecular point group is CXv .
   The largest Abelian subgroup of the full molecular point group is C2v .
   The computational point group is C2v .
********************************************************************************
--------------------------------------------------------------------------------
   Analysis of internal coordinates specified by Z-matrix 
--------------------------------------------------------------------------------
   *The nuclear repulsion energy is   18.188012918518517 a.u.
   *There is   1 degree of freedom within the tot. symm. molecular subspace.
   *Z-matrix requests optimization of   0 coordinates.
   *The optimization is constrained.
   *The following   1 parameters can have non-zero 
    derivatives within the totally symmetric subspace:
             r    [ 1]
   *The following   0 parameters are to be optimized:

   *The following coordinates must be varied in an  unconstrained optimization.
             r    [ 1]
--------------------------------------------------------------------------------


 ----------------------------------------------------------------
         Coordinates used in calculation (QCOMP) 
 ----------------------------------------------------------------
 Z-matrix   Atomic            Coordinates (in bohr)
  Symbol    Number           X              Y              Z
 ----------------------------------------------------------------
     C         6        -0.00000000     0.00000000     1.45567971
     O         8         0.00000000     0.00000000    -1.18342112
 ----------------------------------------------------------------
 
   Interatomic distance matrix (Angstroms) 
 
                 C             O    
                [ 1]        [ 2]
  C    [ 1]     0.00000
  O    [ 2]     1.39655     0.00000
 rotcon2
   Rotational constants (in cm-1): 
          1.2050837930             0.0000000000
   Rotational constants (in MHz): 
      36127.5083010552             0.0000000000
  ECPDATA file not present.   Using default ECPDATA. 
  @GTFLGS-I, Hessian will be transformed to curvilinear coordinates.
  There are  218 basis functions.
 @CHECKOUT-I, Total execution time (CPU/WALL):        0.32/       0.41 seconds.
--executable xjoda finished with status     0 in        0.43 seconds (walltime).
 --invoking executable--
/nfs/workspaces/public/cfour_mpi/bin/xvmol
 SERIAL VERSION OF MOLECULE STARTED
********************************************************************************
                    INPUT FROM MOL FILE
********************************************************************************
INTGRL        1    0    1    0    0    0    0    0    0                         
         *** CFOUR Program System (Release V0.1) ***                            
Carbon Monoxide DBOC calculation                                                
    2    2 X  Y       0.10E-08              0    0                              
   9999.00      3.00                                                            
          6.00000000    1    5    1    1    1    1    1                         
C #1  -0.000000000000000   0.000000000000000   1.455679710448255                
   16    9                                                                      
   33980.0000000000       9.100000000000000E-005 -1.900000000000000E-005        
  0.000000000000000E+000  0.000000000000000E+000  0.000000000000000E+000        
  0.000000000000000E+000  0.000000000000000E+000  0.000000000000000E+000        
  0.000000000000000E+000                                                        
   5089.00000000000       7.040000000000000E-004 -1.510000000000000E-004        
  0.000000000000000E+000  0.000000000000000E+000  0.000000000000000E+000        
  0.000000000000000E+000  0.000000000000000E+000  0.000000000000000E+000        
  0.000000000000000E+000                                                        
   1157.00000000000       3.693000000000000E-003 -7.850000000000000E-004        
  0.000000000000000E+000  0.000000000000000E+000  0.000000000000000E+000        
  0.000000000000000E+000  0.000000000000000E+000  0.000000000000000E+000        
  0.000000000000000E+000                                                        
   326.600000000000       1.536000000000000E-002 -3.324000000000000E-003        
  0.000000000000000E+000  0.000000000000000E+000  0.000000000000000E+000        
  0.000000000000000E+000  0.000000000000000E+000  0.000000000000000E+000        
  0.000000000000000E+000                                                        
   106.100000000000       5.292900000000000E-002 -1.151200000000000E-002        
  0.000000000000000E+000  0.000000000000000E+000  0.000000000000000E+000        
  0.000000000000000E+000  0.000000000000000E+000  0.000000000000000E+000        
  0.000000000000000E+000                                                        
   38.1100000000000       0.147043000000000      -3.416000000000000E-002        
  0.000000000000000E+000  0.000000000000000E+000  0.000000000000000E+000        
  0.000000000000000E+000  0.000000000000000E+000  0.000000000000000E+000        
  0.000000000000000E+000                                                        
   14.7500000000000       0.305631000000000      -7.717300000000001E-002        
  0.000000000000000E+000  0.000000000000000E+000  0.000000000000000E+000        
  0.000000000000000E+000  0.000000000000000E+000  0.000000000000000E+000        
  0.000000000000000E+000                                                        
   6.03500000000000       0.399345000000000      -0.141493000000000             
  0.000000000000000E+000  0.000000000000000E+000  0.000000000000000E+000        
  0.000000000000000E+000  0.000000000000000E+000  0.000000000000000E+000        
  0.000000000000000E+000                                                        
   2.53000000000000       0.217051000000000      -0.118019000000000             
  0.000000000000000E+000  0.000000000000000E+000  0.000000000000000E+000        
  0.000000000000000E+000  0.000000000000000E+000  0.000000000000000E+000        
  0.000000000000000E+000                                                        
  0.735500000000000       1.589400000000000E-002  0.273806000000000             
   1.00000000000000       0.000000000000000E+000  0.000000000000000E+000        
  0.000000000000000E+000  0.000000000000000E+000  0.000000000000000E+000        
  0.000000000000000E+000                                                        
  0.290500000000000      -3.084000000000000E-003  0.586510000000000             
  0.000000000000000E+000   1.00000000000000       0.000000000000000E+000        
  0.000000000000000E+000  0.000000000000000E+000  0.000000000000000E+000        
  0.000000000000000E+000                                                        
  0.111100000000000       9.779999999999999E-004  0.285430000000000             
  0.000000000000000E+000  0.000000000000000E+000   1.00000000000000             
  0.000000000000000E+000  0.000000000000000E+000  0.000000000000000E+000        
  0.000000000000000E+000                                                        
   7.21600000000000       0.000000000000000E+000  0.000000000000000E+000        
  0.000000000000000E+000  0.000000000000000E+000  0.000000000000000E+000        
   1.00000000000000       0.000000000000000E+000  0.000000000000000E+000        
  0.000000000000000E+000                                                        
   19.5700000000000       0.000000000000000E+000  0.000000000000000E+000        
  0.000000000000000E+000  0.000000000000000E+000  0.000000000000000E+000        
  0.000000000000000E+000   1.00000000000000       0.000000000000000E+000        
  0.000000000000000E+000                                                        
   53.0730000000000       0.000000000000000E+000  0.000000000000000E+000        
  0.000000000000000E+000  0.000000000000000E+000  0.000000000000000E+000        
  0.000000000000000E+000  0.000000000000000E+000   1.00000000000000             
  0.000000000000000E+000                                                        
  4.145000000000000E-002  0.000000000000000E+000  0.000000000000000E+000        
  0.000000000000000E+000  0.000000000000000E+000  0.000000000000000E+000        
  0.000000000000000E+000  0.000000000000000E+000  0.000000000000000E+000        
   1.00000000000000                                                             
   10    8                                                                      
   34.5100000000000       5.378000000000000E-003  0.000000000000000E+000        
  0.000000000000000E+000  0.000000000000000E+000  0.000000000000000E+000        
  0.000000000000000E+000  0.000000000000000E+000  0.000000000000000E+000        
   7.91500000000000       3.613200000000000E-002  0.000000000000000E+000        
  0.000000000000000E+000  0.000000000000000E+000  0.000000000000000E+000        
  0.000000000000000E+000  0.000000000000000E+000  0.000000000000000E+000        
   2.36800000000000       0.142493000000000       0.000000000000000E+000        
  0.000000000000000E+000  0.000000000000000E+000  0.000000000000000E+000        
  0.000000000000000E+000  0.000000000000000E+000  0.000000000000000E+000        
  0.813200000000000       0.342150000000000        1.00000000000000             
  0.000000000000000E+000  0.000000000000000E+000  0.000000000000000E+000        
  0.000000000000000E+000  0.000000000000000E+000  0.000000000000000E+000        
  0.289000000000000       0.463864000000000       0.000000000000000E+000        
   1.00000000000000       0.000000000000000E+000  0.000000000000000E+000        
  0.000000000000000E+000  0.000000000000000E+000  0.000000000000000E+000        
  0.100700000000000       0.250028000000000       0.000000000000000E+000        
  0.000000000000000E+000   1.00000000000000       0.000000000000000E+000        
  0.000000000000000E+000  0.000000000000000E+000  0.000000000000000E+000        
   8.18200000000000       0.000000000000000E+000  0.000000000000000E+000        
  0.000000000000000E+000  0.000000000000000E+000   1.00000000000000             
  0.000000000000000E+000  0.000000000000000E+000  0.000000000000000E+000        
   24.1860000000000       0.000000000000000E+000  0.000000000000000E+000        
  0.000000000000000E+000  0.000000000000000E+000  0.000000000000000E+000        
   1.00000000000000       0.000000000000000E+000  0.000000000000000E+000        
   71.4940000000000       0.000000000000000E+000  0.000000000000000E+000        
  0.000000000000000E+000  0.000000000000000E+000  0.000000000000000E+000        
  0.000000000000000E+000   1.00000000000000       0.000000000000000E+000        
  3.218000000000000E-002  0.000000000000000E+000  0.000000000000000E+000        
  0.000000000000000E+000  0.000000000000000E+000  0.000000000000000E+000        
  0.000000000000000E+000  0.000000000000000E+000   1.00000000000000             
    6    6                                                                      
   1.84800000000000        1.00000000000000       0.000000000000000E+000        
  0.000000000000000E+000  0.000000000000000E+000  0.000000000000000E+000        
  0.000000000000000E+000                                                        
  0.649000000000000       0.000000000000000E+000   1.00000000000000             
  0.000000000000000E+000  0.000000000000000E+000  0.000000000000000E+000        
  0.000000000000000E+000                                                        
  0.228000000000000       0.000000000000000E+000  0.000000000000000E+000        
   1.00000000000000       0.000000000000000E+000  0.000000000000000E+000        
  0.000000000000000E+000                                                        
   8.65600000000000       0.000000000000000E+000  0.000000000000000E+000        
  0.000000000000000E+000   1.00000000000000       0.000000000000000E+000        
  0.000000000000000E+000                                                        
   33.2130000000000       0.000000000000000E+000  0.000000000000000E+000        
  0.000000000000000E+000  0.000000000000000E+000   1.00000000000000             
  0.000000000000000E+000                                                        
  7.660000000000000E-002  0.000000000000000E+000  0.000000000000000E+000        
  0.000000000000000E+000  0.000000000000000E+000  0.000000000000000E+000        
   1.00000000000000                                                             
    4    4                                                                      
   1.41900000000000        1.00000000000000       0.000000000000000E+000        
  0.000000000000000E+000  0.000000000000000E+000                                
  0.485000000000000       0.000000000000000E+000   1.00000000000000             
  0.000000000000000E+000  0.000000000000000E+000                                
   24.6940000000000       0.000000000000000E+000  0.000000000000000E+000        
   1.00000000000000       0.000000000000000E+000                                
  0.187000000000000       0.000000000000000E+000  0.000000000000000E+000        
  0.000000000000000E+000   1.00000000000000                                     
    2    2                                                                      
   1.01100000000000        1.00000000000000       0.000000000000000E+000        
  0.424000000000000       0.000000000000000E+000   1.00000000000000             
          8.00000000    1    5    1    1    1    1    1                         
O #2   0.000000000000000   0.000000000000000  -1.183421120139333                
   16    9                                                                      
   61420.0000000000       9.000000000000001E-005 -2.000000000000000E-005        
  0.000000000000000E+000  0.000000000000000E+000  0.000000000000000E+000        
  0.000000000000000E+000  0.000000000000000E+000  0.000000000000000E+000        
  0.000000000000000E+000                                                        
   9199.00000000000       6.980000000000001E-004 -1.590000000000000E-004        
  0.000000000000000E+000  0.000000000000000E+000  0.000000000000000E+000        
  0.000000000000000E+000  0.000000000000000E+000  0.000000000000000E+000        
  0.000000000000000E+000                                                        
   2091.00000000000       3.664000000000000E-003 -8.290000000000000E-004        
  0.000000000000000E+000  0.000000000000000E+000  0.000000000000000E+000        
  0.000000000000000E+000  0.000000000000000E+000  0.000000000000000E+000        
  0.000000000000000E+000                                                        
   590.900000000000       1.521800000000000E-002 -3.508000000000000E-003        
  0.000000000000000E+000  0.000000000000000E+000  0.000000000000000E+000        
  0.000000000000000E+000  0.000000000000000E+000  0.000000000000000E+000        
  0.000000000000000E+000                                                        
   192.300000000000       5.242300000000000E-002 -1.215600000000000E-002        
  0.000000000000000E+000  0.000000000000000E+000  0.000000000000000E+000        
  0.000000000000000E+000  0.000000000000000E+000  0.000000000000000E+000        
  0.000000000000000E+000                                                        
   69.3200000000000       0.145921000000000      -3.626100000000000E-002        
  0.000000000000000E+000  0.000000000000000E+000  0.000000000000000E+000        
  0.000000000000000E+000  0.000000000000000E+000  0.000000000000000E+000        
  0.000000000000000E+000                                                        
   26.9700000000000       0.305258000000000      -8.299200000000000E-002        
  0.000000000000000E+000  0.000000000000000E+000  0.000000000000000E+000        
  0.000000000000000E+000  0.000000000000000E+000  0.000000000000000E+000        
  0.000000000000000E+000                                                        
   11.1000000000000       0.398508000000000      -0.152090000000000             
  0.000000000000000E+000  0.000000000000000E+000  0.000000000000000E+000        
  0.000000000000000E+000  0.000000000000000E+000  0.000000000000000E+000        
  0.000000000000000E+000                                                        
   4.68200000000000       0.216980000000000      -0.115331000000000             
  0.000000000000000E+000  0.000000000000000E+000  0.000000000000000E+000        
  0.000000000000000E+000  0.000000000000000E+000  0.000000000000000E+000        
  0.000000000000000E+000                                                        
   1.42800000000000       1.759400000000000E-002  0.288979000000000             
   1.00000000000000       0.000000000000000E+000  0.000000000000000E+000        
  0.000000000000000E+000  0.000000000000000E+000  0.000000000000000E+000        
  0.000000000000000E+000                                                        
  0.554700000000000      -2.502000000000000E-003  0.586128000000000             
  0.000000000000000E+000   1.00000000000000       0.000000000000000E+000        
  0.000000000000000E+000  0.000000000000000E+000  0.000000000000000E+000        
  0.000000000000000E+000                                                        
  0.206700000000000       9.540000000000000E-004  0.277624000000000             
  0.000000000000000E+000  0.000000000000000E+000   1.00000000000000             
  0.000000000000000E+000  0.000000000000000E+000  0.000000000000000E+000        
  0.000000000000000E+000                                                        
   12.9740000000000       0.000000000000000E+000  0.000000000000000E+000        
  0.000000000000000E+000  0.000000000000000E+000  0.000000000000000E+000        
   1.00000000000000       0.000000000000000E+000  0.000000000000000E+000        
  0.000000000000000E+000                                                        
   34.9000000000000       0.000000000000000E+000  0.000000000000000E+000        
  0.000000000000000E+000  0.000000000000000E+000  0.000000000000000E+000        
  0.000000000000000E+000   1.00000000000000       0.000000000000000E+000        
  0.000000000000000E+000                                                        
   93.8810000000000       0.000000000000000E+000  0.000000000000000E+000        
  0.000000000000000E+000  0.000000000000000E+000  0.000000000000000E+000        
  0.000000000000000E+000  0.000000000000000E+000   1.00000000000000             
  0.000000000000000E+000                                                        
  6.959000000000000E-002  0.000000000000000E+000  0.000000000000000E+000        
  0.000000000000000E+000  0.000000000000000E+000  0.000000000000000E+000        
  0.000000000000000E+000  0.000000000000000E+000  0.000000000000000E+000        
   1.00000000000000                                                             
   10    8                                                                      
   63.4200000000000       6.044000000000000E-003  0.000000000000000E+000        
  0.000000000000000E+000  0.000000000000000E+000  0.000000000000000E+000        
  0.000000000000000E+000  0.000000000000000E+000  0.000000000000000E+000        
   14.6600000000000       4.179900000000000E-002  0.000000000000000E+000        
  0.000000000000000E+000  0.000000000000000E+000  0.000000000000000E+000        
  0.000000000000000E+000  0.000000000000000E+000  0.000000000000000E+000        
   4.45900000000000       0.161143000000000       0.000000000000000E+000        
  0.000000000000000E+000  0.000000000000000E+000  0.000000000000000E+000        
  0.000000000000000E+000  0.000000000000000E+000  0.000000000000000E+000        
   1.53100000000000       0.356731000000000        1.00000000000000             
  0.000000000000000E+000  0.000000000000000E+000  0.000000000000000E+000        
  0.000000000000000E+000  0.000000000000000E+000  0.000000000000000E+000        
  0.530200000000000       0.448309000000000       0.000000000000000E+000        
   1.00000000000000       0.000000000000000E+000  0.000000000000000E+000        
  0.000000000000000E+000  0.000000000000000E+000  0.000000000000000E+000        
  0.175000000000000       0.244940000000000       0.000000000000000E+000        
  0.000000000000000E+000   1.00000000000000       0.000000000000000E+000        
  0.000000000000000E+000  0.000000000000000E+000  0.000000000000000E+000        
   14.4750000000000       0.000000000000000E+000  0.000000000000000E+000        
  0.000000000000000E+000  0.000000000000000E+000   1.00000000000000             
  0.000000000000000E+000  0.000000000000000E+000  0.000000000000000E+000        
   42.7300000000000       0.000000000000000E+000  0.000000000000000E+000        
  0.000000000000000E+000  0.000000000000000E+000  0.000000000000000E+000        
   1.00000000000000       0.000000000000000E+000  0.000000000000000E+000        
   126.140000000000       0.000000000000000E+000  0.000000000000000E+000        
  0.000000000000000E+000  0.000000000000000E+000  0.000000000000000E+000        
  0.000000000000000E+000   1.00000000000000       0.000000000000000E+000        
  5.348000000000000E-002  0.000000000000000E+000  0.000000000000000E+000        
  0.000000000000000E+000  0.000000000000000E+000  0.000000000000000E+000        
  0.000000000000000E+000  0.000000000000000E+000   1.00000000000000             
    6    6                                                                      
   3.77500000000000        1.00000000000000       0.000000000000000E+000        
  0.000000000000000E+000  0.000000000000000E+000  0.000000000000000E+000        
  0.000000000000000E+000                                                        
   1.30000000000000       0.000000000000000E+000   1.00000000000000             
  0.000000000000000E+000  0.000000000000000E+000  0.000000000000000E+000        
  0.000000000000000E+000                                                        
  0.444000000000000       0.000000000000000E+000  0.000000000000000E+000        
   1.00000000000000       0.000000000000000E+000  0.000000000000000E+000        
  0.000000000000000E+000                                                        
   14.9270000000000       0.000000000000000E+000  0.000000000000000E+000        
  0.000000000000000E+000   1.00000000000000       0.000000000000000E+000        
  0.000000000000000E+000                                                        
   57.5440000000000       0.000000000000000E+000  0.000000000000000E+000        
  0.000000000000000E+000  0.000000000000000E+000   1.00000000000000             
  0.000000000000000E+000                                                        
  0.154000000000000       0.000000000000000E+000  0.000000000000000E+000        
  0.000000000000000E+000  0.000000000000000E+000  0.000000000000000E+000        
   1.00000000000000                                                             
    4    4                                                                      
   2.66600000000000        1.00000000000000       0.000000000000000E+000        
  0.000000000000000E+000  0.000000000000000E+000                                
  0.859000000000000       0.000000000000000E+000   1.00000000000000             
  0.000000000000000E+000  0.000000000000000E+000                                
   26.4830000000000       0.000000000000000E+000  0.000000000000000E+000        
   1.00000000000000       0.000000000000000E+000                                
  0.324000000000000       0.000000000000000E+000  0.000000000000000E+000        
  0.000000000000000E+000   1.00000000000000                                     
    2    2                                                                      
   1.84600000000000        1.00000000000000       0.000000000000000E+000        
  0.714000000000000       0.000000000000000E+000   1.00000000000000             
FINISH                                                                          
 
********************************************************************************
 ONE- AND TWO-ELECTRON INTEGRALS OVER SYMMETRY-ADAPTED AOS ARE CALCULATED.

  SPHERICAL HARMONICS ARE USED.
  
  INTEGRALS LESS THAN  0.10E-13 ARE NEGLECTED.

  NUCLEAR REPULSION ENERGY :   18.1880129185 A.U.
  @MOLECU-I, ONE ELECTRON INTEGRALS (CPU/WALL):        0.06/       0.08 SECONDS.
  @TWOEL-I,    4497710 INTEGRALS OF SYMMETRY TYPE  I I I I
  @TWOEL-I,   19389721 INTEGRALS OF SYMMETRY TYPE  I J I J
  @TWOEL-I,   10209393 INTEGRALS OF SYMMETRY TYPE  I I J J
  @TWOEL-I,   14352813 INTEGRALS OF SYMMETRY TYPE  I J K L
  @TWOEL-I, TOTAL NUMBER OF 2-E INTEGRALS   48449637.
  @MOLECU-I, TWO ELECTRON INTEGRALS (CPU/WALL):      231.79/      31.83 SECONDS.
 @CHECKOUT-I, Total execution time (CPU/WALL):      231.87/      31.95 seconds.

Running with 14 threads/proc

--executable xvmol finished with status     0 in       32.00 seconds (walltime).
 --invoking executable--
/nfs/workspaces/public/cfour_mpi/bin/xvmol2ja
 @GETMEM-I,  Allocated    3814 MB of main memory.
 @CHECKOUT-I, Total execution time (CPU/WALL):        0.16/       0.04 seconds.
--executable xvmol2ja finished with status     0 in        0.09 seconds (walltime).
 --invoking executable--
/nfs/workspaces/public/cfour_mpi/bin/xvprop
 @GETMEM-I,  Allocated    3814 MB of main memory.
   Property integrals will be calculated.
    --------------------------------------------------------------
                                   Property evaluated at 
    Property type                X             Y             Z
    --------------------------------------------------------------
    Dipole moment               ----          ----          ----  
    Quadrupole moment           ----          ----          ----  
    Octopole moment             ----          ----          ----  
    Relativisitic corr.         ----          ----          ----  
    Second moment            0.0000000     0.0000000     0.0000000
    Electron density         0.0000000     0.0000000     1.4556797
    Electron density         0.0000000     0.0000000    -1.1834211
    Field gradient           0.0000000     0.0000000     1.4556797
    Field gradient           0.0000000     0.0000000    -1.1834211
    Potential                0.0000000     0.0000000     1.4556797
    Potential                0.0000000     0.0000000    -1.1834211
    --------------------------------------------------------------
 @CHECKOUT-I, Total execution time (CPU/WALL):        1.30/       1.33 seconds.
--executable xvprop finished with status     0 in        1.36 seconds (walltime).
 --invoking executable--
/nfs/workspaces/public/cfour_mpi/bin/xvscf
  There are  218 functions in the AO basis.

  There are 4 irreducible representations.

       Irrep        # of functions
         1                 86
         2                 52
         3                 52
         4                 28


  Parameters for SCF calculation: 
        SCF reference function:  RHF  
  Maximum number of iterations:  150
     Full symmetry point group: CXv 
     Computational point group: C2v 
        Initial density matrix: MOREAD                 
     SCF convergence tolerance: 10**(-10)
  DIIS convergence acceleration:  ON
          Latest start for DIIS:   8
                     DIIS order:   6

  Memory information:    2523578 words required.
  Fock matrices are constructed from AO integral file.
 @GETMEM-I,  Allocated      19 MB of main memory.
  Initialization and symmetry analysis required      0.002 seconds.

  Adding electric field perturbation to one-electron Hamiltonian.
  Field direction     : Z
  Field strength      :  0.0002000 a.u.

  @INITGES-I, Occupancies from core Hamiltonian:

          Alpha population by irrep:   5    1    1    0
           Beta population by irrep:   5    1    1    0


 total no. of electrons in initial guess :  0.000000000000000E+000
  --------------------------------------------------------------------
  Iteration         Total Energy            Largest Density Difference
  --------------------------------------------------------------------
       0            18.188159576657831              0.0000000000D+00
   current occupation vector 
     5  1  1  0
     5  1  1  0
       1           -93.159361126120672              0.1763767274D+02
   current occupation vector 
     5  1  1  0
     5  1  1  0
       2           -98.371493367209212              0.1763500431D+02
   current occupation vector 
     5  1  1  0
     5  1  1  0
       3          -103.308812441044012              0.6678884531D+01
   current occupation vector 
     5  1  1  0
     5  1  1  0
       4           -98.587380700977576              0.6672070175D+01
   current occupation vector 
     5  1  1  0
     5  1  1  0
       5          -101.292888301094592              0.6449008389D+01
   current occupation vector 
     5  1  1  0
     5  1  1  0
       6           -97.014234261870968              0.6436054828D+01
   current occupation vector 
     5  1  1  0
     5  1  1  0
       7          -101.271307841370088              0.6576403073D+01
   current occupation vector 
     5  1  1  0
     5  1  1  0
       8           -96.928707040193672              0.6576405075D+01
   current occupation vector 
     5  1  1  0
     5  1  1  0
       9          -108.167573619044333              0.5045536504D+01
   current occupation vector 
     5  1  1  0
     5  1  1  0
      10          -110.065982262969158              0.9994685635D+00
   current occupation vector 
     5  1  1  0
     5  1  1  0
      11          -112.399322733868161              0.1363075561D+01
   current occupation vector 
     5  1  1  0
     5  1  1  0
      12          -112.659008237673362              0.5145052358D+00
   current occupation vector 
     5  1  1  0
     5  1  1  0
      13          -112.661492926496294              0.8210290070D-01
   current occupation vector 
     5  1  1  0
     5  1  1  0
      14          -112.661991320735666              0.3311228760D-01
   current occupation vector 
     5  1  1  0
     5  1  1  0
      15          -112.662023880835108              0.9367319233D-02
   current occupation vector 
     5  1  1  0
     5  1  1  0
      16          -112.662025369636979              0.2153831220D-02
   current occupation vector 
     5  1  1  0
     5  1  1  0
      17          -112.662025589267387              0.9685783409D-03
   current occupation vector 
     5  1  1  0
     5  1  1  0
      18          -112.662025624681689              0.3907394937D-03
   current occupation vector 
     5  1  1  0
     5  1  1  0
      19          -112.662025625984910              0.9634759330D-04
   current occupation vector 
     5  1  1  0
     5  1  1  0
      20          -112.662025626000286              0.4034420679D-05
   current occupation vector 
     5  1  1  0
     5  1  1  0
      21          -112.662025626002446              0.7004249649D-06
   current occupation vector 
     5  1  1  0
     5  1  1  0
      22          -112.662025626002958              0.1252242037D-06
   current occupation vector 
     5  1  1  0
     5  1  1  0
      23          -112.662025626003214              0.2756810469D-07
   current occupation vector 
     5  1  1  0
     5  1  1  0
      24          -112.662025626003441              0.3395450143D-08
   current occupation vector 
     5  1  1  0
     5  1  1  0
      25          -112.662025626001764              0.9830105618D-09
   current occupation vector 
     5  1  1  0
     5  1  1  0
      26          -112.662025626001849              0.3499280865D-09
   current occupation vector 
     5  1  1  0
     5  1  1  0
      27          -112.662025626002446              0.1837463515D-09
   current occupation vector 
     5  1  1  0
     5  1  1  0

  SCF has converged.

 Density matrix saved to file den.dat
 total electron number:   13.9999999999999     
     E(SCF)=      -112.662025626003270              0.2248135011D-10

  Eigenvector printing suppressed.

 @PUTMOS-I, Writing converged MOs to NEWMOS. 
 @PUTMOS-I, Symmetry   1 Full Blocks 21 Partial Blocksize   2
 @PUTMOS-I, Symmetry   2 Full Blocks 13 Partial Blocksize   0
 @PUTMOS-I, Symmetry   3 Full Blocks 13 Partial Blocksize   0
 @PUTMOS-I, Symmetry   4 Full Blocks  7 Partial Blocksize   0
 @PUTFOCK-I, Writing converged Fock matrix to NEWFOCK. 
 @PUTFOCK-I, Symmetry   1 Full Blocks 21 Partial Blocksize   2
 @PUTFOCK-I, Symmetry   2 Full Blocks 13 Partial Blocksize   0
 @PUTFOCK-I, Symmetry   3 Full Blocks 13 Partial Blocksize   0
 @PUTFOCK-I, Symmetry   4 Full Blocks  7 Partial Blocksize   0


 
  ORBITAL EIGENVALUES (ALPHA)  (1H = 27.2113834 eV)

       MO #        E(hartree)               E(eV)           FULLSYM    COMPSYM
       ----   --------------------   --------------------   -------   ---------
    1     1         -20.6612516009        -562.2212388354     SG+        A1 (1)
    2     2         -11.4677172095        -312.0524497101     SG+        A1 (1)
    3     3          -1.3614511625         -37.0469695624     SG+        A1 (1)
    4     4          -0.7933270150         -21.5875255662     SG+        A1 (1)
    5     5          -0.5617550565         -15.2861322181     SG+        A1 (1)
    6    87          -0.5448987680         -14.8274492915      PI        B1 (2)
    7   139          -0.5448987680         -14.8274492915      PI        B2 (3)
  +++++++++++++++++++++++++++++++++++++++++++++++++++++++++++++++++++++++++++++
    8    88           0.0337050861           0.9171620216      PI        B1 (2)
    9   140           0.0337050861           0.9171620216      PI        B2 (3)
   10     6           0.0636589381           1.7322477705     SG+        A1 (1)
   11     7           0.0695488388           1.8925201166     SG+        A1 (1)
   12    89           0.0905294433           2.4634313899      PI        B1 (2)
   13   141           0.0905294433           2.4634313899      PI        B2 (3)
   14     8           0.1565314006           4.2594359561     SG+        A1 (1)
   15   142           0.1719977338           4.6802962795      PI        B2 (3)
   16    90           0.1719977338           4.6802962795      PI        B1 (2)
   17     9           0.2250511293           6.1239525639     SG+        A1 (1)
   18   191           0.2257297856           6.1424197420      DE        A2 (4)
   19    10           0.2257297856           6.1424197420      DE        A1 (1)
   20   143           0.2979823874           8.1085129909      PI        B2 (3)
   21    91           0.2979823874           8.1085129909      PI        B1 (2)
   22    11           0.2994776519           8.1492012054     SG+        A1 (1)
   23    12           0.3691689452          10.0455977074     SG+        A1 (1)
   24   144           0.3988907622          10.8543694641      PI        B2 (3)
   25    92           0.3988907622          10.8543694641      PI        B1 (2)
   26    13           0.4932386914          13.4217071399     SG+        A1 (1)
   27    14           0.5117213937          13.9246470372     SG+        A1 (1)
   28   192           0.5464376123          14.8693233727      DE        A2 (4)
   29    15           0.5464376123          14.8693233728      DE        A1 (1)
   30    93           0.6247324167          16.9998333123      PI        B1 (2)
   31   145           0.6247324167          16.9998333123      PI        B2 (3)
   32    16           0.7353642638          20.0102789213     SG+        A1 (1)
   33    94           0.7406674866          20.1545869487      PH        B1 (2)
   34   146           0.7406674866          20.1545869487      PH        B2 (3)
   35    17           0.7528609178          20.4863870811      DE        A1 (1)
   36   193           0.7528609178          20.4863870811      DE        A2 (4)
   37    95           0.7936125279          21.5952947666      PI        B1 (2)
   38   147           0.7936125279          21.5952947666      PI        B2 (3)
   39    18           0.8253663292          22.4593596281     SG+        A1 (1)
   40    19           0.8676867354          23.6109564278     SG+        A1 (1)
   41   194           0.8748047606          23.8046477408      DE        A2 (4)
   42    20           0.8748047606          23.8046477408      DE        A1 (1)
   43    96           0.8977241676          24.4283165128      PI        B1 (2)
   44   148           0.8977241676          24.4283165128      PI        B2 (3)
   45    97           1.0346696261          28.1547918888      PI        B1 (2)
   46   149           1.0346696261          28.1547918888      PI        B2 (3)
   47    21           1.1230752799          30.5604320297     SG+        A1 (1)
   48    22           1.4017386428          38.1432476355     SG+        A1 (1)
   49   150           1.4291319781          38.8886581863      PH        B2 (3)
   50    98           1.4291319781          38.8886581863      PH        B1 (2)
   51    99           1.5565636927          42.3562514292      PI        B1 (2)
   52   151           1.5565636927          42.3562514292      PI        B2 (3)
   53    23           1.5620393189          42.5052507933      DE        A1 (1)
   54   195           1.5620393189          42.5052507933      DE        A2 (4)
   55    24           1.6335767784          44.4518840293     SG+        A1 (1)
   56   100           1.6494460929          44.8837100311      PI        B1 (2)
   57   152           1.6494460929          44.8837100311      PI        B2 (3)
   58   196           1.7183617276          46.7589997899      DE        A2 (4)
   59    25           1.7183617276          46.7589997899      DE        A1 (1)
   60    26           1.8774217821          51.0872439173     SG+        A1 (1)
   61    27           2.0112849371          54.7298455507     SG+        A1 (1)
   62   101           2.0828031690          56.6759555788      PI        B1 (2)
   63   153           2.0828031690          56.6759555788      PI        B2 (3)
   64   197           2.0851198273          56.7389950559      PI        A2 (4)
   65    28           2.0851198273          56.7389950559      PI        A1 (1)
   66   198           2.1509162826          58.5294076284      DE        A2 (4)
   67    29           2.1509162826          58.5294076284      DE        A1 (1)
   68   154           2.2265822148          60.5883823191      PH        B2 (3)
   69   102           2.2265822148          60.5883823191      PH        B1 (2)
   70   103           2.2658031039          61.6556369704      PI        B1 (2)
   71   155           2.2658031039          61.6556369704      PI        B2 (3)
   72   156           2.2693174583          61.7512674131      PH        B2 (3)
   73   104           2.2693174583          61.7512674131      PH        B1 (2)
   74    30           2.2733544021          61.8611182406     SG+        A1 (1)
   75    31           2.3173404026          63.0580381641      DE        A1 (1)
   76   199           2.3173404026          63.0580381641      DE        A2 (4)
   77    32           2.4984207160          67.9854839982     SG+        A1 (1)
   78   105           2.5268346164          68.7586655348      PI        B1 (2)
   79   157           2.5268346164          68.7586655348      PI        B2 (3)
   80    33           2.6165436950          71.1997736679     SG+        A1 (1)
   81   106           2.6489779750          72.0823552968      PI        B1 (2)
   82   158           2.6489779750          72.0823552968      PI        B2 (3)
   83    34           2.7835518404          75.7442963434      DE        A1 (1)
   84   200           2.7835518404          75.7442963434      DE        A2 (4)
   85    35           3.2528045519          88.5133117871     SG+        A1 (1)
   86   107           3.5740099791          97.2537558170      PI        B1 (2)
   87   159           3.5740099791          97.2537558170      PI        B2 (3)
   88   201           3.7011035339         100.7121472629      PI        A2 (4)
   89    36           3.7011035339         100.7121472629      PI        A1 (1)
   90    37           3.9011137617         106.1547022568     SG+        A1 (1)
   91   108           4.0227765538         109.4653151369      PH        B1 (2)
   92   160           4.0227765538         109.4653151369      PH        B2 (3)
   93   109           4.1263851872         112.2846493850      PH        B1 (2)
   94   161           4.1263851872         112.2846493850      PH        B2 (3)
   95   162           4.1691763518         113.4490561715      PI        B2 (3)
   96   110           4.1691763518         113.4490561715      PI        B1 (2)
   97    38           4.2087200300         114.5250943598     SG+        A1 (1)
   98    39           4.2212133926         114.8650560389      DE        A1 (1)
   99   202           4.2212133926         114.8650560389      DE        A2 (4)
  100   203           4.2792695638         116.4448447722      DE        A2 (4)
  101    40           4.2792695638         116.4448447722      DE        A1 (1)
  102    41           4.4008915006         119.7543459241     SG+        A1 (1)
  103   163           4.7228894116         128.5163545346      PI        B2 (3)
  104   111           4.7228894116         128.5163545346      PI        B1 (2)
  105    42           4.8859547245         132.9535872844      DE        A1 (1)
  106   204           4.8859547245         132.9535872845      DE        A2 (4)
  107    43           4.9335805311         134.2495513672     SG+        A1 (1)
  108   112           5.0769923593         138.1519856090      PI        B1 (2)
  109   164           5.0769923593         138.1519856090      PI        B2 (3)
  110    44           5.3789936725         146.3698591277     SG+        A1 (1)
  111   165           5.4835841895         149.2159117870      PI        B2 (3)
  112   113           5.4835841895         149.2159117871      PI        B1 (2)
  113   205           5.8587657515         159.4251211160      PI        A2 (4)
  114    45           5.8587657515         159.4251211160      PI        A1 (1)
  115   166           5.9548713090         162.0402862872      PH        B2 (3)
  116   114           5.9548713090         162.0402862872      PH        B1 (2)
  117    46           6.1709057957         167.9188835326     SG+        A1 (1)
  118   206           6.1935179842         168.5341924630      DE        A2 (4)
  119    47           6.1935179842         168.5341924630      DE        A1 (1)
  120   115           6.2186490337         169.2180430856      PI        B1 (2)
  121   167           6.2186490337         169.2180430856      PI        B2 (3)
  122    48           6.3298881179         172.2450124561     SG+        A1 (1)
  123   168           6.3925353426         173.9497301052      PH        B2 (3)
  124   116           6.3925353426         173.9497301052      PH        B1 (2)
  125   207           6.5248207992         177.5494003836      DE        A2 (4)
  126    49           6.5248207992         177.5494003836      DE        A1 (1)
  127    50           6.5730010741         178.8604523164      DE        A1 (1)
  128   208           6.5730010741         178.8604523164      DE        A2 (4)
  129   169           6.9907064884         190.2267944926      PI        B2 (3)
  130   117           6.9907064884         190.2267944926      PI        B1 (2)
  131    51           7.2872169215         198.2952535697     SG+        A1 (1)
  132   170           7.7036682076         209.6274691826      PI        B2 (3)
  133   118           7.7036682076         209.6274691826      PI        B1 (2)
  134    52           8.2886231775         225.5449031416     SG+        A1 (1)
  135    53           9.7718670647         265.9060212318     SG+        A1 (1)
  136   119           9.9761167260         271.4639370738      PI        B1 (2)
  137   171           9.9761167260         271.4639370739      PI        B2 (3)
  138   209          10.6267827496         289.1694597085      PI        A2 (4)
  139    54          10.6267827496         289.1694597085      PI        A1 (1)
  140   172          10.7692375680         293.0458523878      PH        B2 (3)
  141   120          10.7692375680         293.0458523878      PH        B1 (2)
  142    55          10.7750218891         293.2032517666     SG+        A1 (1)
  143    56          11.0036700404         299.4250842768      DE        A1 (1)
  144   210          11.0036700404         299.4250842768      DE        A2 (4)
  145   121          11.0712341510         301.2635971951      PI        B1 (2)
  146   173          11.0712341510         301.2635971951      PI        B2 (3)
  147    57          11.3680648385         309.3407708370     SG+        A1 (1)
  148   174          11.8688336887         322.9673840147      PH        B1 (3)
  149   122          11.8688336887         322.9673840147      PH        B2 (2)
  150   211          12.0660323383         328.3334320730      DE        A2 (4)
  151    58          12.0660323383         328.3334320733      DE        A1 (1)
  152   123          12.5988714314         342.8327209281      PI        B1 (2)
  153   175          12.5988714314         342.8327209281      PI        B2 (3)
  154   212          12.7614763012         347.2574243823      DE        A2 (4)
  155    59          12.7614763012         347.2574243823      DE        A1 (1)
  156    60          12.8956617538         350.9087961788     SG+        A1 (1)
  157   176          13.1301477443         357.2894843690      PI        B2 (3)
  158   124          13.1301477443         357.2894843690      PI        B1 (2)
  159    61          13.9991106971         380.9351684374     SG+        A1 (1)
  160    62          17.5262200616         476.9126936498     SG+        A1 (1)
  161   177          18.9022481069         514.3563203583      PI        B2 (3)
  162   125          18.9022481069         514.3563203585      PI        B1 (2)
  163    63          20.3113479696         552.6998769727     SG+        A1 (1)
  164   213          26.3348911552         716.6088200213      DE        A2 (4)
  165    64          26.3348911552         716.6088200213      DE        A1 (1)
  166   178          26.7470225243         727.8234847159      PI        B2 (3)
  167   126          26.7470225243         727.8234847160      PI        B1 (2)
  168    65          27.2721635796         742.1132993123     SG+        A1 (1)
  169   127          33.6282114426         915.0701546219      PI        B1 (2)
  170   179          33.6282114427         915.0701546225      PI        B2 (3)
  171    66          34.3759034931         935.4158896722     SG+        A1 (1)
  172    67          36.0196281626         980.1439118579     SG+        A1 (1)
  173    68          47.0793069623        1281.0930719580      DE        A1 (1)
  174   214          47.0793069623        1281.0930719580      DE        A2 (4)
  175   180          47.2739467557        1286.3894900003      PI        B2 (3)
  176   128          47.2739467557        1286.3894900003      PI        B1 (2)
  177    69          47.8085762959        1300.9374993955     SG+        A1 (1)
  178    70          63.9148343172        1739.2110615517     SG+        A1 (1)
  179   181          66.4490528593        1808.1706539201      PI        B2 (3)
  180   129          66.4490528593        1808.1706539203      PI        B1 (2)
  181    71          67.4598499177        1835.6758402170     SG+        A1 (1)
  182   130          98.5635808219        2682.0513870220      PH        B1 (2)
  183   182          98.5635808219        2682.0513870220      PH        B2 (3)
  184   215          98.5772215795        2682.4225709070      DE        A2 (4)
  185    72          98.5772215795        2682.4225709071      DE        A1 (1)
  186   183          98.5980715904        2682.9899285459      PI        B2 (3)
  187   131          98.5980715904        2682.9899285459      PI        B1 (2)
  188    73          98.6180985636        2683.5348901922     SG+        A1 (1)
  189   184         103.2905670914        2810.6792227269      PH        B2 (3)
  190   132         103.2905670914        2810.6792227269      PH        B1 (2)
  191    74         103.3070295950        2811.1271902255      DE        A1 (1)
  192   216         103.3070295951        2811.1271902277      DE        A2 (4)
  193   185         103.3510929267        2812.3262144371      PI        B2 (3)
  194   133         103.3510929267        2812.3262144372      PI        B1 (2)
  195    75         103.3544340985        2812.4171323456     SG+        A1 (1)
  196    76         115.0266273128        3130.0336570170      DE        A1 (1)
  197   217         115.0266273128        3130.0336570170      DE        A2 (4)
  198   186         115.2244658819        3135.4171181722      PI        B2 (3)
  199   134         115.2244658819        3135.4171181722      PI        B1 (2)
  200    77         115.5079911045        3143.1322317095     SG+        A1 (1)
  201   135         116.9018279196        3181.0604596799      PI        B1 (2)
  202   187         116.9018279196        3181.0604596806      PI        B2 (3)
  203    78         117.5157102234        3197.7650464117     SG+        A1 (1)
  204    79         122.2065032433        3325.4080137255     SG+        A1 (1)
  205    80         198.5525754974        5402.8902569164      DE        A1 (1)
  206   218         198.5525754974        5402.8902569165      DE        A2 (4)
  207   188         198.6573221998        5405.7405595969      PI        B2 (3)
  208   136         198.6573221998        5405.7405595970      PI        B1 (2)
  209    81         198.9382259078        5413.3843380920     SG+        A1 (1)
  210    82         216.4459525656        5889.7938006403     SG+        A1 (1)
  211   189         224.9106459856        6120.1298186567      PI        B2 (3)
  212   137         224.9106459856        6120.1298186568      PI        B1 (2)
  213    83         225.6974460023        6141.5397355701     SG+        A1 (1)
  214   138         395.3816410230       10758.8814231987      PI        B1 (2)
  215   190         395.3816410231       10758.8814231996      PI        B2 (3)
  216    84         395.9073627980       10773.1870399792     SG+        A1 (1)
  217    85         508.8450756048       13846.3784434845     SG+        A1 (1)
  218    86         895.2786405611       24361.7703381385     SG+        A1 (1)


  VSCF finished.

 @CHECKOUT-I, Total execution time (CPU/WALL):       52.05/      12.81 seconds.
--executable xvscf finished with status     0 in       12.85 seconds (walltime).
 --invoking executable--
/nfs/workspaces/public/cfour_mpi/bin/xvtran
 @GETMEM-I,  Allocated    3814 MB of main memory.
  Full RHF integral transformation
  Transformation of IIII integrals :
  1 pass through the AO integral file was required.
     4497710 AO integrals were read.
     8744285 MO integrals were written to HF2.
  Transformation of IIJJ integrals :
  1 pass through the AO integral file was required.
    10209393 AO integrals were read.
    14521124 MO integrals were written to HF2.
  Transformation of IJIJ integrals :
  1 pass through the AO integral file was required.
    19389721 AO integrals were read.
    27187837 MO integrals were written to HF2.
  Transformation of IJKL integrals :
  1 pass through the AO integral file was required.
    14352813 AO integrals were read.
    18376025 MO integrals were written to HF2.
  Summary of active molecular orbitals: 
------------------------------------------------------------------------
 
  Index      Eigenvalue    Symmetry    Index      Eigenvalue    Symmetry
------------------------------------------------------------------------
     1       -20.6612516        1       110         4.1263852        2
     2       -11.4677172        1       111         4.1691764        2
     3        -1.3614512        1       112         4.7228894        2
     4        -0.7933270        1       113         5.0769924        2
     5        -0.5617551        1       114         5.4835842        2
     6        -0.5448988        2       115         5.9548713        2
     7        -0.5448988        3       116         6.2186490        2
     8         0.0636589        1       117         6.3925353        2
     9         0.0695488        1       118         6.9907065        2
    10         0.1565314        1       119         7.7036682        2
    11         0.2250511        1       120         9.9761167        2
    12         0.2257298        1       121        10.7692376        2
    13         0.2994777        1       122        11.0712342        2
    14         0.3691689        1       123        11.8688337        2
    15         0.4932387        1       124        12.5988714        2
    16         0.5117214        1       125        13.1301477        2
    17         0.5464376        1       126        18.9022481        2
    18         0.7353643        1       127        26.7470225        2
    19         0.7528609        1       128        33.6282114        2
    20         0.8253663        1       129        47.2739468        2
    21         0.8676867        1       130        66.4490529        2
    22         0.8748048        1       131        98.5635808        2
    23         1.1230753        1       132        98.5980716        2
    24         1.4017386        1       133       103.2905671        2
    25         1.5620393        1       134       103.3510929        2
    26         1.6335768        1       135       115.2244659        2
    27         1.7183617        1       136       116.9018279        2
    28         1.8774218        1       137       198.6573222        2
    29         2.0112849        1       138       224.9106460        2
    30         2.0851198        1       139       395.3816410        2
    31         2.1509163        1       140         0.0337051        3
    32         2.2733544        1       141         0.0905294        3
    33         2.3173404        1       142         0.1719977        3
    34         2.4984207        1       143         0.2979824        3
    35         2.6165437        1       144         0.3988908        3
    36         2.7835518        1       145         0.6247324        3
    37         3.2528046        1       146         0.7406675        3
    38         3.7011035        1       147         0.7936125        3
    39         3.9011138        1       148         0.8977242        3
    40         4.2087200        1       149         1.0346696        3
    41         4.2212134        1       150         1.4291320        3
    42         4.2792696        1       151         1.5565637        3
    43         4.4008915        1       152         1.6494461        3
    44         4.8859547        1       153         2.0828032        3
    45         4.9335805        1       154         2.2265822        3
    46         5.3789937        1       155         2.2658031        3
    47         5.8587658        1       156         2.2693175        3
    48         6.1709058        1       157         2.5268346        3
    49         6.1935180        1       158         2.6489780        3
    50         6.3298881        1       159         3.5740100        3
    51         6.5248208        1       160         4.0227766        3
    52         6.5730011        1       161         4.1263852        3
    53         7.2872169        1       162         4.1691764        3
    54         8.2886232        1       163         4.7228894        3
    55         9.7718671        1       164         5.0769924        3
    56        10.6267827        1       165         5.4835842        3
    57        10.7750219        1       166         5.9548713        3
    58        11.0036700        1       167         6.2186490        3
    59        11.3680648        1       168         6.3925353        3
    60        12.0660323        1       169         6.9907065        3
    61        12.7614763        1       170         7.7036682        3
    62        12.8956618        1       171         9.9761167        3
    63        13.9991107        1       172        10.7692376        3
    64        17.5262201        1       173        11.0712342        3
    65        20.3113480        1       174        11.8688337        3
    66        26.3348912        1       175        12.5988714        3
    67        27.2721636        1       176        13.1301477        3
    68        34.3759035        1       177        18.9022481        3
    69        36.0196282        1       178        26.7470225        3
    70        47.0793070        1       179        33.6282114        3
    71        47.8085763        1       180        47.2739468        3
    72        63.9148343        1       181        66.4490529        3
    73        67.4598499        1       182        98.5635808        3
    74        98.5772216        1       183        98.5980716        3
    75        98.6180986        1       184       103.2905671        3
    76       103.3070296        1       185       103.3510929        3
    77       103.3544341        1       186       115.2244659        3
    78       115.0266273        1       187       116.9018279        3
    79       115.5079911        1       188       198.6573222        3
    80       117.5157102        1       189       224.9106460        3
    81       122.2065032        1       190       395.3816410        3
    82       198.5525755        1       191         0.2257298        4
    83       198.9382259        1       192         0.5464376        4
    84       216.4459526        1       193         0.7528609        4
    85       225.6974460        1       194         0.8748048        4
    86       395.9073628        1       195         1.5620393        4
    87       508.8450756        1       196         1.7183617        4
    88       895.2786406        1       197         2.0851198        4
    89         0.0337051        2       198         2.1509163        4
    90         0.0905294        2       199         2.3173404        4
    91         0.1719977        2       200         2.7835518        4
    92         0.2979824        2       201         3.7011035        4
    93         0.3988908        2       202         4.2212134        4
    94         0.6247324        2       203         4.2792696        4
    95         0.7406675        2       204         4.8859547        4
    96         0.7936125        2       205         5.8587658        4
    97         0.8977242        2       206         6.1935180        4
    98         1.0346696        2       207         6.5248208        4
    99         1.4291320        2       208         6.5730011        4
   100         1.5565637        2       209        10.6267827        4
   101         1.6494461        2       210        11.0036700        4
   102         2.0828032        2       211        12.0660323        4
   103         2.2265822        2       212        12.7614763        4
   104         2.2658031        2       213        26.3348912        4
   105         2.2693175        2       214        47.0793070        4
   106         2.5268346        2       215        98.5772216        4
   107         2.6489780        2       216       103.3070296        4
   108         3.5740100        2       217       115.0266273        4
   109         4.0227766        2       218       198.5525755        4
------------------------------------------------------------------------
  -20.6612516008784       -11.4677172094870       -1.36145116247179     
 -0.793327014979476      -0.561755056456932      -0.544898768045574     
 -0.544898768045574       6.365893806257411E-002  6.954883876189841E-002
  0.156531400609622       0.225051129297883       0.225729785645334     
  0.299477651893267       0.369168945205234       0.493238691416856     
  0.511721393673407       0.546437612310158       0.735364263812249     
  0.752860917799107       0.825366329156519       0.867686735391569     
  0.874804760597825        1.12307527994620        1.40173864278862     
   1.56203931893135        1.63357677836003        1.71836172761183     
   1.87742178213779        2.01128493712149        2.08511982731092     
   2.15091628264783        2.27335440213734        2.31734040262193     
   2.49842071602367        2.61654369501317        2.78355184041731     
   3.25280455190218        3.70110353385800        3.90111376170578     
   4.20872003000688        4.22121339258526        4.27926956378777     
   4.40089150058048        4.88595472453731        4.93358053112508     
   5.37899367246976        5.85876575154277        6.17090579571797     
   6.19351798420628        6.32988811793181        6.52482079921118     
   6.57300107411686        7.28721692149374        8.28862317751942     
   9.77186706471462        10.6267827496224        10.7750218890582     
   11.0036700404131        11.3680648385192        12.0660323382622     
   12.7614763012112        12.8956617537787        13.9991106970848     
[...]
 Convergence information after    14 iterations: 
 Largest element of residual vector : -0.10394936E-05.
 Largest element of DIIS residual   : -0.62758209E-06.
 Convergence information after    15 iterations: 
 Largest element of residual vector : -0.44759145E-06.
 Largest element of DIIS residual   : -0.29014827E-06.
 Convergence information after    16 iterations: 
 Largest element of residual vector : -0.26724144E-06.
 Largest element of DIIS residual   : -0.11534346E-06.
 Convergence information after    17 iterations: 
 Largest element of residual vector : -0.66779649E-07.
 Largest element of DIIS residual   :  0.25807748E-07.
 Perturbed amplitude equations converged in    17 iterations.
  Dominant contributions to perturbed wavefunction:
    7    7  140   28   0.2475750365 ABAB
    7    7   28  140   0.2475750365 ABAB
    7    7  140   39  -0.2190431104 ABAB
    7    7   39  140  -0.2190431104 ABAB
    7    7  140   54  -0.1721517889 ABAB
    7    7   54  140  -0.1721517889 ABAB
    7    6   28   89   0.1575426992 ABAB
    6    7   89   28   0.1575426992 ABAB
    7    7  140   21  -0.1471860657 ABAB
    7    7   21  140  -0.1471860657 ABAB
    7    7  140   45   0.1448671098 ABAB
    7    7   45  140   0.1448671098 ABAB
    7    7  140   20  -0.1442839413 ABAB
    7    7   20  140  -0.1442839413 ABAB
    7    6   39   89  -0.1400056532 ABAB
    6    7   89   39  -0.1400056532 ABAB
    7    7  141   28   0.1336199715 ABAB
    7    7   28  141   0.1336199715 ABAB
    7    7  140   24   0.1276667137 ABAB
    7    7   24  140   0.1276667137 ABAB
  norm of converged amps    1.90943038243405     
 Starting iterative solution of the perturbed Lambda equations.
 The DIIS procedure is used to accelerate convergence.
 Convergence criterion is 10**(-7).
 Maximum number of iterations is 100.
 Convergence information after     1 iterations: 
 Largest element of residual vector :  0.62848337E-01.
 Largest element of DIIS residual   :  0.62848337E-01.
 Convergence information after     2 iterations: 
 Largest element of residual vector : -0.13573540E-01.
 Largest element of DIIS residual   : -0.84071551E-02.
 Convergence information after     3 iterations: 
 Largest element of residual vector :  0.56864973E-02.
 Largest element of DIIS residual   :  0.51775976E-02.
 Convergence information after     4 iterations: 
 Largest element of residual vector :  0.35931165E-02.
 Largest element of DIIS residual   :  0.31414916E-02.
 Convergence information after     5 iterations: 
 Largest element of residual vector :  0.26166100E-02.
 Largest element of DIIS residual   :  0.16064211E-02.
 Convergence information after     6 iterations: 
 Largest element of residual vector :  0.10832775E-02.
 Largest element of DIIS residual   :  0.45365491E-03.
 Convergence information after     7 iterations: 
 Largest element of residual vector :  0.44242140E-03.
 Largest element of DIIS residual   : -0.16006314E-03.
 Convergence information after     8 iterations: 
 Largest element of residual vector :  0.10725461E-03.
 Largest element of DIIS residual   :  0.80909572E-04.
 Convergence information after     9 iterations: 
 Largest element of residual vector :  0.49035534E-04.
 Largest element of DIIS residual   :  0.13527855E-04.
 Convergence information after    10 iterations: 
 Largest element of residual vector :  0.11105310E-04.
 Largest element of DIIS residual   : -0.59197427E-05.
 Convergence information after    11 iterations: 
 Largest element of residual vector : -0.34377921E-05.
 Largest element of DIIS residual   : -0.22487717E-05.
 Convergence information after    12 iterations: 
 Largest element of residual vector : -0.21487307E-05.
 Largest element of DIIS residual   : -0.17170471E-05.
 Convergence information after    13 iterations: 
 Largest element of residual vector : -0.12765400E-05.
 Largest element of DIIS residual   : -0.10170587E-05.
 Convergence information after    14 iterations: 
 Largest element of residual vector : -0.95169538E-06.
 Largest element of DIIS residual   : -0.73598712E-06.
 Convergence information after    15 iterations: 
 Largest element of residual vector : -0.51411210E-06.
 Largest element of DIIS residual   : -0.32809591E-06.
 Convergence information after    16 iterations: 
 Largest element of residual vector : -0.29603690E-06.
 Largest element of DIIS residual   : -0.14214234E-06.
 Convergence information after    17 iterations: 
 Largest element of residual vector : -0.88385545E-07.
 Largest element of DIIS residual   : -0.38102757E-07.
 Perturbed Lambda equations converged in    17 iterations.
  Dominant contributions to perturbed wavefunction:
    7    7  140   28   0.2230736817 ABAB
    7    7   28  140   0.2230736817 ABAB
    7    7  140   39  -0.1949241852 ABAB
    7    7   39  140  -0.1949241852 ABAB
    7    7  140   54  -0.1563585375 ABAB
    7    7   54  140  -0.1563585375 ABAB
    7    6   28   89   0.1394497026 ABAB
    6    7   89   28   0.1394497026 ABAB
    7    7  140   21  -0.1319138878 ABAB
    7    7   21  140  -0.1319138878 ABAB
    7    7  140   45   0.1287316889 ABAB
    7    7   45  140   0.1287316889 ABAB
    7    7  140   20  -0.1273304021 ABAB
    7    7   20  140  -0.1273304021 ABAB
    7    6   39   89  -0.1224585093 ABAB
    6    7   89   39  -0.1224585093 ABAB
    7    7  141   28   0.1190373834 ABAB
    7    7   28  141   0.1190373834 ABAB
    7    7  140   57   0.1123233397 ABAB
    7    7   57  140   0.1123233397 ABAB
        The DBOC first-order density matrix is being calculated 
             (Symmetry block 3, perturbation   2)
 term   4.04961680292806     
 final tnorm  0.846709733753265     
  norm contr. I: |<0|L dT/dx|0>|^2   0.000000000000000E+000
  norm contr. II: <0|[nabla(1+L)e-T][nabla e^T]|0>   4.04961680292806     
  total norm contribution   4.04961680292806     
 oo  8.049431522466156E-003
 vv  -30.3487740779029     
 vo  7.265889272394399E-002
  Correlated perturbed 1-el contribution to DBOC  -30.2680657536565       cm**-1
  SUM_I |dc_I/dx|^2 contribution to DBOC   15.2456312843284       cm**-1
 
 
  The total diagonal Born-Oppenheimer correction (DBOC) is:      0.0040078419 a.u.
  The total diagonal Born-Oppenheimer correction (DBOC) is:        879.619613 cm-1
 
 Total CC energy including DBOC  -113.184137894963     
 First-order density matrix is being calculated  (Symmetry block 3, perturbation   2)
 Calculation of the contributions of <pq||rs> to dI(i,j)/dx required   3.2 seconds.
 Calculation of the contributions of <pq||rs> to dI(a,b)/dx required  15.5 seconds.
 Calculation of the contributions of <pq||rs> to dI(i,a)/dx required   9.5 seconds.
 First-order Z-vector equations are solved for 1 perturbation.
 Convergence reached after  20 iterations.
        U*G(pq,rs) contribution is being calculated
             (Symmetry block 3, perturbation   2)

 CCSD contribution to force constants 

        0.0000000000        0.0000000000        0.0000000000
        0.0000000000        0.0000000000        0.0000000000
        0.0000000000        0.0000000000        0.0000000000
        0.0000000000        0.0000000000        0.0000000000
        0.0000000000        0.0000000000        0.0000000000
        0.0000000000        0.0000000000        0.0000000000
        0.0000000000        0.0000000000        0.0000000000
        0.0000000000        0.0000000000        0.0000000000
        0.0000000000        0.0000000000        0.0000000000
        0.0000000000        0.0000000000        0.0000000000
        0.0000000000        0.0000000000        0.0000000000
        0.0000000000        0.2353075087       -0.2353075087

 CCSD contribution to dipole derivatives 

        0.0000000000        0.0000000000        0.0000000000
        0.0000000000        0.0000000000        0.0000000000
        0.0000000000        0.0000000000        0.0000000000
        0.0000000000        0.0000000000       -0.0542926297
        0.0000000000        0.0000000000        0.0000000000
        0.0000000000        0.0000000000        0.0000000000
 @CHECKOUT-I, Total execution time (CPU/WALL):     1328.24/     537.39 seconds.
--executable xsdcc finished with status     0 in      537.60 seconds (walltime).
 --invoking executable--
/nfs/workspaces/public/cfour_mpi/bin/xanti
 @GETMEM-I,  Allocated    3814 MB of main memory.
 CCSD MO derivative gammas will be sorted to Mulliken order.
 @CHECKOUT-I, Total execution time (CPU/WALL):       17.00/      55.23 seconds.
--executable xanti finished with status     0 in       55.41 seconds (walltime).
 --invoking executable--
/nfs/workspaces/public/cfour_mpi/bin/xbcktrn
 @GETMEM-I,  Allocated    3814 MB of main memory.
 CCSD MO derivative gammas will be transformed to the AO basis.
 @CHECKOUT-I, Total execution time (CPU/WALL):       28.49/       5.20 seconds.
--executable xbcktrn finished with status     0 in        5.27 seconds (walltime).
 --invoking executable--
/nfs/workspaces/public/cfour_mpi/bin/xvdint
 @GETMEM-I,  Allocated    3814 MB of main memory.
 One- and two-electron integral derivatives are calculated
 for RHF-CC/MBPT hessians and dipole derivatives.
 Spherical gaussians are used.
  magnet F F
                    8722  records have been written to the Sort file.
  Total length of Sort file :             178609116  words.
 Evaluation of 2el integral derivatives

                      Two-electron integral gradient
                      ------------------------------

                         C #1 z     0.0000000000
                         O #2 z     0.0000000000


 C #1       0.0000000000           -0.0648508825            0.0000000000
 O #2       0.0000000000            0.0648508825            0.0000000000


 Evaluation of 2e integral derivatives required  363.46 seconds.
  contribution to Hessian
        0.0000000000        0.0000000000        0.0000000000
        0.0000000000       -0.0648508825        0.0648508825
 @CHECKOUT-I, Total execution time (CPU/WALL):      363.45/      78.82 seconds.
--executable xvdint finished with status     0 in       79.02 seconds (walltime).
 --invoking executable--
/nfs/workspaces/public/cfour_mpi/bin/xanti
 @GETMEM-I,  Allocated    3814 MB of main memory.
 CCSD MO gammas will be sorted to Mulliken order.
 @CHECKOUT-I, Total execution time (CPU/WALL):       16.37/      67.53 seconds.
--executable xanti finished with status     0 in       67.67 seconds (walltime).
 --invoking executable--
/nfs/workspaces/public/cfour_mpi/bin/xbcktrn
 @GETMEM-I,  Allocated    3814 MB of main memory.
 CCSD MO gammas will be transformed to the AO basis.
 @CHECKOUT-I, Total execution time (CPU/WALL):       53.91/      10.34 seconds.
--executable xbcktrn finished with status     0 in       10.41 seconds (walltime).
 --invoking executable--
/nfs/workspaces/public/cfour_mpi/bin/xvdint
 @GETMEM-I,  Allocated    3814 MB of main memory.
 One- and two-electron integral derivatives are calculated
 for RHF-CC/MBPT hessians and dipole derivatives.
 Spherical gaussians are used.
  magnet F F

                     Kinetic energy integral gradient
                     --------------------------------

                         C #1 z    -0.8270069720
                         O #2 z     0.8270069720


 C #1       0.0000000000            0.0000000000           -0.8270069720
 O #2       0.0000000000            0.0000000000            0.8270069720



                   Nuclear attraction integral gradient
                   ------------------------------------

                         C #1 z    17.1906570861
                         O #2 z   -17.1906570861


 C #1       0.0000000000            0.0000000000           17.1906570861
 O #2       0.0000000000            0.0000000000          -17.1906570861



                      Reorthonormalization gradient
                      -----------------------------

                         C #1 z     0.0000000000
                         O #2 z     0.0000000000


 C #1       0.0000000000            0.0000000000            0.0000000000
 O #2       0.0000000000            0.0000000000            0.0000000000



                     Kinetic energy integral Hessian
                     -------------------------------


           Symmetry 1

           C #1 z      O #2 z

 C #1 z    0.826303
 O #2 z   -0.826303    0.826303


           Symmetry 2

           C #1 x      O #2 x

 C #1 x   -0.775860
 O #2 x    0.775860   -0.775860


           Symmetry 3

           C #1 y      O #2 y

 C #1 y   -0.775860
 O #2 y    0.775860   -0.775860




           C #1 x      C #1 y      C #1 z      O #2 x      O #2 y      O #2 z

 C #1 x   -0.775860
 C #1 y    0.000000   -0.775860
 C #1 z    0.000000    0.000000    0.826303

 O #2 x    0.775860    0.000000    0.000000   -0.775860
 O #2 y    0.000000    0.775860    0.000000    0.000000   -0.775860
 O #2 z    0.000000    0.000000   -0.826303    0.000000    0.000000    0.826303




                   Nuclear attraction integral Hessian
                   -----------------------------------


           Symmetry 1

           C #1 z      O #2 z

 C #1 z  -10.649311
 O #2 z   10.649311  -10.649311


           Symmetry 2

           C #1 x      O #2 x

 C #1 x   11.172992
 O #2 x  -11.172992   11.172992


           Symmetry 3

           C #1 y      O #2 y

 C #1 y   11.172992
 O #2 y  -11.172992   11.172992




           C #1 x      C #1 y      C #1 z      O #2 x      O #2 y      O #2 z

 C #1 x   11.172992
 C #1 y    0.000000   11.172992
 C #1 z    0.000000    0.000000  -10.649311

 O #2 x  -11.172992    0.000000    0.000000   11.172992
 O #2 y    0.000000  -11.172992    0.000000    0.000000   11.172992
 O #2 z    0.000000    0.000000   10.649311    0.000000    0.000000  -10.649311




                Highest order reorthonormalization Hessian
                ------------------------------------------


           Symmetry 1

           C #1 z      O #2 z

 C #1 z    0.000000
 O #2 z    0.000000    0.000000


           Symmetry 2

           C #1 x      O #2 x

 C #1 x    0.000000
 O #2 x    0.000000    0.000000


           Symmetry 3

           C #1 y      O #2 y

 C #1 y    0.000000
 O #2 y    0.000000    0.000000




           C #1 x      C #1 y      C #1 z      O #2 x      O #2 y      O #2 z




                Electronic contributions to dipole moment
                -----------------------------------------

                               au             Debye

                    z      1.01551218      2.58117494

  Conversion factor used: 1 a.u. =   2.54174691 Debye 



   Electronic contributions to static part of dipole moment derivatives
   --------------------------------------------------------------------


                     Total dipole moment derivatives
                     -------------------------------


           Symmetry 1
                              Ez

               C #1 z    -5.66899222
               O #2 z    -8.33100778

           Symmetry 2
                              Ex

               C #1 x    -5.67970216
               O #2 x    -8.32029784

           Symmetry 3
                              Ey

               C #1 y    -5.67970216
               O #2 y    -8.32029784



                       Ex          Ey          Ez

      C #1    x   -5.679702    0.000000    0.000000
      C #1    y    0.000000   -5.679702    0.000000
      C #1    z    0.000000    0.000000   -5.668992

      O #2    x   -8.320298    0.000000    0.000000
      O #2    y    0.000000   -8.320298    0.000000
      O #2    z    0.000000    0.000000   -8.331008

 Evaluation of 1e integral derivatives required    1.71 seconds.
                    8815  records have been written to the Sort file.
  Total length of Sort file :             180513570  words.
 Evaluation of 2el integral derivatives

                      Two-electron integral gradient
                      ------------------------------

                         C #1 z    -8.8015267504
                         O #2 z     8.8015267504


 C #1       0.0000000000            0.0000000000           -8.8015267504
 O #2       0.0000000000            0.0000000000            8.8015267504


 Evaluation of 2e integral derivatives required  715.78 seconds.

                            Molecular gradient
                            ------------------

                         C #1 z     0.6703772403
                         O #2 z    -0.6703772403


 C #1       0.0000000000            0.0000000000            0.6703772403
 O #2       0.0000000000            0.0000000000           -0.6703772403


  Molecular gradient norm 0.948E+00

                            Molecular hessian
                            -----------------


           Symmetry 1

           C #1 z      O #2 z

 C #1 z   31.093372
 O #2 z  -31.093372   31.093372


           Symmetry 2

           C #1 x      O #2 x

 C #1 x    0.116124
 O #2 x   -0.116124    0.116124


           Symmetry 3

           C #1 y      O #2 y

 C #1 y    0.116124
 O #2 y   -0.116124    0.116124




           C #1 x      C #1 y      C #1 z      O #2 x      O #2 y      O #2 z

 C #1 x    0.116124
 C #1 y    0.000000    0.116124
 C #1 z    0.000000    0.000000   31.093372

 O #2 x   -0.116124    0.000000    0.000000    0.116124
 O #2 y    0.000000   -0.116124    0.000000    0.000000    0.116124
 O #2 z    0.000000    0.000000  -31.093372    0.000000    0.000000   31.093372




                           Total dipole moment
                           -------------------

                               au             Debye

                    z      0.28222148      0.71733558

  Conversion factor used: 1 a.u. =   2.54174691 Debye 



                     Total dipole moment derivatives
                     -------------------------------


           Symmetry 1
                              Ez

               C #1 z     0.67347989
               O #2 z    -0.67347989

           Symmetry 2
                              Ex

               C #1 x     0.10825923
               O #2 x    -0.10825923

           Symmetry 3
                              Ey

               C #1 y     0.10825923
               O #2 y    -0.10825923



                       Ex          Ey          Ez

      C #1    x    0.108259    0.000000    0.000000
      C #1    y    0.000000    0.108259    0.000000
      C #1    z    0.000000    0.000000    0.673480

      O #2    x   -0.108259    0.000000    0.000000
      O #2    y    0.000000   -0.108259    0.000000
      O #2    z    0.000000    0.000000   -0.673480

 @CHECKOUT-I, Total execution time (CPU/WALL):      717.48/     136.18 seconds.
--executable xvdint finished with status     0 in      136.37 seconds (walltime).
 --invoking executable--
/nfs/workspaces/public/cfour_mpi/bin/xjoda
  @GTFLGS-I, Hessian will be transformed to curvilinear coordinates.
  @GTFLGS-I, Hessian will be transformed to curvilinear coordinates.
  igrd and ihes are                      0                     1
  gradient from JOBARC 
   0.000000000000000   0.000000000000000   0.670377240287211
   0.000000000000000   0.000000000000000  -0.670377240287211
 
  @PROJFCM-I, Projecting force constant matrix onto totally symmetric subspace.
  Largest difference between matrix elements of symmetrized
  and unsymmetrized FCM :    -0.3982092434E-12.
  read isotopes from ZMAT file 
 
  Summary of diagonal Born-Oppenheimer correction at the correlated level
  The total diagonal Born-Oppenheimer correction (DBOC) is:      0.0040078419 a.u.
  The total diagonal Born-Oppenheimer correction (DBOC) is:        879.619613 cm-1
  The total diagonal Born-Oppenheimer correction (DBOC) is:            10.523 kJ/mole
  hellooooooo 
  readis is  F
 
 @CHECKOUT-I, Total execution time (CPU/WALL):        0.01/       0.11 seconds.
--executable xjoda finished with status     0 in        0.17 seconds (walltime).
  The final electronic energy is      -113.184137894962817 a.u. 
  This computation required                         4622.45 seconds (walltime).
