 --invoking executable--
/nfs/workspaces/public/cfour_mpi/bin/xjoda


   *************************************************************************
         <<<     CCCCCC     CCCCCC   |||     CCCCCC     CCCCCC   >>>
       <<<      CCC        CCC       |||    CCC        CCC         >>>
      <<<      CCC        CCC        |||   CCC        CCC            >>>
    <<<        CCC        CCC        |||   CCC        CCC              >>>
      <<<      CCC        CCC        |||   CCC        CCC            >>>
       <<<      CCC        CCC       |||    CCC        CCC         >>>
         <<<     CCCCCC     CCCCCC   |||     CCCCCC     CCCCCC   >>>
   *************************************************************************

     ****************************************************************
     * CFOUR Coupled-Cluster techniques for Computational Chemistry *
     ****************************************************************
 

   Department of Chemistry                Institut fuer Physikalische Chemie
   University of Florida                  Universitaet Mainz
   Gainesville, FL 32611, USA             D-55099 Mainz, Germany

   Department of Chemistry                Fakultaet fuer Chemie und Biowiss.
   Johns Hopkins University               Karlsruher Institut fuer Technologie
   Baltimore, MD 21218, USA               D-76131 Karlsruhe, Germany

   Department of Chemistry                Department of Physical Chemistry
   Southern Methodist University          Eotvos Lorand University
   Dallas, TX 75275, USA                  H-1053 Budapest, Hungary

 
                       Version 2.1
 
                     vincent.theory.phys.ucl.ac.uk                     
                     Fri 28 Feb 17:09:42 GMT 2025                      
                     integer*8 version is running
 
********************************************************************************
*                          Input from ZMAT file                                *
********************************************************************************
Carbon Monoxide DBOC calculation                                                
C                                                                               
O 1 r                                                                           
                                                                                
r=1.6758620689655173                                                            
                                                                                
                                                                                
*CFOUR(CALC=CCSD,BASIS=AUG-PCVQZ,SCF_CONV=10                                    
CC_CONV=14,DBOC=ON,MEMORY=500000000                                             
ZFIELD=-200)                                                                    
                                                                                
%isotopes                                                                       
13                                                                              
16                                                                              
********************************************************************************
  @GTFLGS-I, Hessian will be transformed to curvilinear coordinates.
    -------------------------------------------------------------------
                    CFOUR Control Parameters 
    -------------------------------------------------------------------
        External           Internal           Value            Units
          Name               Name
    -------------------------------------------------------------------
       ABCDTYPE             IABCDT         STANDARD    [  0]    ***   
       ANHARMONIC           IANHAR         OFF         [  0]    ***   
       ANH_ALGORIT          IANALG         STANDARD    [  0]    ***   
       ANH_DERIVAT          IANDER         SECOND      [  1]    ***   
       ANH_MODE             ANHMOD         VIBRATION   [  0]    ***   
       ANH_STEPSIZ          ICUBST             50000          x 10-6  
       ANH_SYMMETR          IANHSM         ABELIAN     [  0]    ***   
       AO_LADDERS           IAOLAD         SINGLEPASS  [  1]    ***   
       AV_SCF               IAVSCF         OFF         [  0]    ***   
       BASIS                IBASIS         AUG-PCVQZ   [ 52]    ***   
       BOTHVECTORS          BOTHVC         OFF         [  0]    ***   
       BOX_POTENT           IPIAB          OFF         [  0]    ***   
       BREIT                IBREIT         OFF         [  0]    ***   
       BRUCK_CONV           IBRTOL          10D-  4             ***   
       BRUECKNER            IBRKNR         OFF         [  0]    ***   
       BUFFERSIZE           IBUFFS              4096            ***   
       CACHE_RECS           ICHREC             10               ***   
       CALCLEVEL            ICLLVL         CCSD        [ 10]    ***   
       CCORBOPT             ICCORB         OFF         [  0]  x 0.01  
       CC_CONV              ICCCNV          10D- 14             ***   
       CC_EXPORDER          ICCEOR              5               ***   
       CC_EXTRAPOL          ICCEXT         DIIS        [  1]    ***   
       CC_GUESS             ICCGES         MP2         [  0]    ***   
       CC_MAXCYC            ICCCYC            100              cycles 
       CC_PROGRAM           ICCPRO         VCC         [  0]    ***   
       CHARGE               ICHRGE              0               ***   
       CHOLESKY             ICHOLE         OFF         [  0]    ***   
       CIS_CONV             ICISTL              5               ***   
       COMM_SIZE            IPSIZE            ***               ***   
       CONSTANT             ICONST         OLD         [  1]    ***   
       CONTINUUM            ICONTU         NONE        [  0]    ***   
       CONTRACTION          ICNTYP         GENERAL     [  1]    ***   
       COORDINATES          ICOORD         INTERNAL    [  0]    ***   
       CPHF_CONVER          ICPHFT          10D- 16             ***   
       CPHF_MAXCYC          ICPHFC             64              cycles 
       CUBIC                ICUBIC         OFF         [  0]    ***   
       CURVILINEAR          ICURVY         ON          [  1]    ***   
       DBOC                 IDBOC          ON          [  1]    ***   
       DCT                  IDCT           OFF         [  0]    ***   
       DERIV_LEV            IDRLVL         SECOND      [  2]    ***   
       DEVMEM_SIZE          IDVMEM          50000000           MByte  
       DIAG_MRCC            IEOMST          10D-  0             ***   
       DIFF_TYPE            IDIFTY         RELAXED     [  0]    ***   
       DIRECT               IDIRCT         OFF         [  0]    ***   
       DROPMO               IDRPMO      NONE         
       ECP                  IECP           OFF         [  0]    ***   
       EIGENVECTOR          IVEC                1               ***   
       EL_ANHARM            IELANH         OFF         [  0]    ***   
       EOMFOLLOW            IEOMSR         ENERGY      [  0]    ***   
       EOMIP                IEOMIP         OFF         [  0]    ***   
       EOMLEVEL             HBARFM         SAME        [  0]    ***   
       EOM_MRCC             IMRCCE         NEW         [  1]    ***   
       EOM_NONIT            EOMNON         OFF         [  0]    ***   
       EOM_NSING            IEOMSI          10D-  0             ***   
       EOM_NSTATES          IMRCCD         DAVIDSON    [  0]    ***   
       EOM_NTRIP            IEOMTR          10D-  0             ***   
       EOM_ORDER            IEXORD         ENERGY      [  0]    ***   
       EOM_PROPSTA          IEOMST              0               ***   
       ESTATE_CONV          IEXTOL          10D-  5             ***   
       ESTATE_DIAG          IEXDIG         ITERATIVE   [  0]    ***   
       ESTATE_LOCK          IESLOC         ON          [  1]    ***   
       ESTATE_MAXC          IEXMXC             40               ***   
       ESTATE_PROP          IEXPRP         OFF         [  0]    ***   
       EVAL_HESS            IRECAL              0            # of cyc.
       EXCITATION           IEXCIT              0               ***   
       EXCITE               IEXCIT         NONE        [  0]    ***   
       EXTERN_POT           IEXPOT         OFF         [  0]    ***   
       FCGRADNEW            IFCGNW         OFF         [  0]    ***   
       FC_FIELD             IFINFC              0             x 10-6  
       FD_CALTYPE           IFDCAL         GRADONLY    [  0]    ***   
       FD_PROJECT           IFDPRJ         OFF         [  1]    ***   
       FD_STEPSIZE          IDISFD              0            10-4 bohr
       FD_USEGROUP          IFDGRP         FULL        [  0]    ***   
       FILE_RECSIZ          IFLREC              4096           words  
       FINITE_PERT          IFIPER              0             x 10-6  
       FIXGEOM              IFIXGM         OFF         [  0]    ***   
       FOCK                 IFOCK          AO          [  1]    ***   
       FREQ_ALGORI          IVIALG         STANDARD    [  0]    ***   
       FROZEN_CORE          IFROCO         OFF         [  0]    ***   
       GAMMA_ABCD           IGABCD         STORE       [  0]    ***   
       GAMMA_ABCI           IGABCI         STORE       [  0]    ***   
       GENBAS_1             IGNBS1              0               ***   
       GENBAS_2             IGNBS2              0               ***   
       GENBAS_3             IGNBS3              0               ***   
       GENBAS_4             IGNBS4              0               ***   
       GEO_CONV             ICONTL              5              H/bohr 
       GEO_MAXCYC           IOPTCY             50               ***   
       GEO_MAXSTEP          IMXSTP            300            millibohr
       GEO_METHOD           INR            SINGLE_POINT[  5]    ***   
       GIAO                 IGIAO          OFF         [  1]    ***   
       GIMIC                IGIMIC         OFF         [  0]    ***   
       GRID                 IGRID          OFF         [  0]    ***   
       GRID_ALGO            IGALGO         SERIAL      [  0]    ***   
       GUESS                IGUESS         MOREAD      [  0]    ***   
       HBAR                 IHBAR          OFF         [  0]    ***   
       HESS_TYPE            IHESTP         SCF         [  0]    ***   
       HF2_FILE             IHF2Fl         USE         [  1]    ***   
       HFSTABILITY          ISTABL         OFF         [  0]    ***   
       INCORE               INCORE         OFF         [  0]    ***   
       INPUT_MRCC           IMRCC          ON          [  1]    ***   
       INTEGRALS            INTTYP         VMOL        [  1]    ***   
       JODA_PRINT           IJPRNT              0               ***   
       KEYWORD_OUT          IDMPKW         NO          [  0]    ***   
       LINDEP_TOL           ILINDP              8               ***   
       LINEQ_CONV           IZTACN          10D-  7           cycles  
       LINEQ_EXPOR          ILMAXD              5               ***   
       LINEQ_MAXCY          ILMAXC            100               ***   
       LINEQ_TYPE           ILTYPE         DIIS        [  1]    ***   
       LOCK_ORBOCC          ILOCOC         OFF         [  0]    ***   
       MEMORY_SIZE          IMEMSZ         500000000           words  
       MEM_UNIT             IMEMU          INTEGERWORDS[  0]    ***   
       MRCC                 IMRCCC         OFF         [  0]    ***   
       MULTIPLICTY          IMULTP              1               ***   
       NACOUPLING           IVCOUP         OFF         [  0]    ***   
       NEGEVAL              IDIE           ABORT       [  0]    ***   
       NEWNORM              INEWNO         OFF         [  0]    ***   
       NON-HF               INONHF         OFF         [  0]    ***   
       NTOP_TAMP            ITOPT2             15               ***   
       NUC_MODEL            INUCMO         POINT       [  0]    ***   
       OCCUPATION           IOCCU   ESTIMATED BY SCF 
       OPEN-SHELL           IOPEN          SPIN-ORBITAL[  0]    ***   
       OPTVIB               IOPTVB         OFF         [  0]    ***   
       ORBITALS             IORBTP         STANDARD    [  0]    ***   
       PARALLEL             IPARAL         ON          [  1]    ***   
       PARA_INT             IPINTS         ON          [  1]    ***   
       PARA_PRINT           IPPRIN              0               ***   
       PERT_ORB             IPTORB         STANDARD    [  0]    ***   
       POINTS               IGRDFD              0               ***   
       PRINT                IPRNT               0               ***   
       PROPS                IPROPS         OFF         [  0]    ***   
       PROP_INTEGR          IINTYP         INTERNAL    [  0]    ***   
       PSI                  IPSI           OFF         [  0]    ***   
       QC_ALG               IQCALG         FLM         [  0]    ***   
       QC_LINALG            IQCLIN         TRIDIAG     [  2]    ***   
       QC_MAXCYC            IQCMAX          10D-100           cycles  
       QC_MAXSCFCY          IQCMSC          10D- 15           cycles  
       QC_RTRUST            IQCRTR          10D-  0           x 10-3  
       QC_SKIPSCF           IQCSKI         OFF         [  0]    ***   
       QC_START             IQCSTA          10D-  1             ***   
       QRHFGUESS            IQGUES         OFF         [  0]    ***   
       QUARTIC              IQUART         OFF         [  0]    ***   
       RAMAN_INT            IRAMIN         OFF         [  0]    ***   
       RAMAN_ORB            IRAMRE         UNRELAXED   [  0]    ***   
       RDO                  IRDOFM         ON          [  1]    ***   
       REDUCE_REPR          REDREP         Ir          [  0]    ***   
       REFERENCE            IREFNC         RHF         [  0]    ***   
       RELATIVIST           IRELAT         OFF         [  0]    ***   
       RELAX_DENS           IRDENS         ON          [  1]    ***   
       RESET_FLAGS          IRESET         OFF         [  0]    ***   
       RESTART_CC           ICCRES         OFF         [  0]    ***   
       ROT_EVEC             ROTVEC              0               ***   
       SAVE_INTS            ISVINT         OFF         [  0]    ***   
       SCALE_ON             ISTCRT              0               ***   
       SCF_CONV             ISCFCV          10D- 10             ***   
       SCF_DAMPING          IDAMP               0             x 10-3  
       SCF_EXPORDE          IRPPOR              6               ***   
       SCF_EXPSTAR          IRPPLS              8               ***   
       SCF_EXTRAPO          IRPP           ON          [  1]    ***   
       SCF_MAXCYC           ISCFCY            150              cycles 
       SCF_NOSTOP           ISCFST         OFF         [  0]    ***   
       SCF_PRINT            ISCFPR              0               ***   
       SCF_PROG             ISCFPR         SCF         [  0]    ***   
       SD_FIELD             IFINSD              0             x 10-6  
       SOPERT               IPERSO         OFF         [  0]    ***   
       SPHERICAL            IDFGHI         ON          [  1]    ***   
       SPINORBIT            ISOCAL         OFF         [  0]    ***   
       SPINROTATIO          ISRCON         OFF         [  0]    ***   
       SPIN_FLIP            ISPFLP         OFF         [  0]    ***   
       SPIN_ORBIT           ISPORB         OFF         [  0]    ***   
       SPIN_SCAL            ISCSMP         OFF         [  0]    ***   
       STEEPSCALE           ISTPSC              1000          x 10-3  
       SUBGROUP             ISUBGP         DEFAULT     [  0]    ***   
       SUBGRPAXIS           ISBXYZ         X           [  0]    ***   
       SYMMETRY             ISYM           ON          [  0]    ***   
       SYM_CHECK            ISYMCK         OVERRIDE    [  1]    ***   
       T3_EXTRAPOL          IT3EXT         OFF         [  0]    ***   
       T4_EXTRAPOL          IT4EXP         OFF         [  0]    ***   
       TAMP_SUM             IEVERY              5               ***   
       TESTSUITE            ITESTS         OFF         [  0]    ***   
       THERMOCH             ITHERM         OFF         [  0]    ***   
       TOL_CHOLESK          ITOLCH          10D-  4             ***   
       TRANGRAD             IRESRM         OFF         [  0]    ***   
       TRANS_INV            ITRAIN         IGNORE      [  1]    ***   
       TREAT_PERT           ITREAT         SIMULTANEOUS[  0]    ***   
       TRIP_ALGORI          ITRALG         NORMAL      [  0]    ***   
       UIJ_THRESHO          IUIJTH              1               ***   
       UNITS                IUNITS         ANGSTROM    [  0]    ***   
       UNOS                 IUNOS          OFF         [  0]    ***   
       UPDATE_HESS          IHUPDT         ON          [  1]    ***   
       VIBPHASE             ISETPH         STANDARD    [  0]    ***   
       VIBRATION            IVIB           ANALYTIC    [  1]    ***   
       VIB_ALGORIT          IGEALG         STANDARD    [  0]    ***   
       VNATORB              IVNORB         OFF         [  0]    ***   
       VTRAN                IVTRAN         FULL/PARTIAL[  0]    ***   
       XFIELD               IXEFLD              0             x 10-6  
       XFORM_TOL            IXFTOL          10D- 11             ***   
       YFIELD               IYEFLD              0             x 10-6  
       ZFIELD               IZEFLD            ***             x 10-6  
       ZSCALE_EXP           IZEXPS         OFF         [  0]    ***   
    -------------------------------------------------------------------
   2 entries found in Z-matrix 
   Job Title : Carbon Monoxide DBOC calculation                                                
   There are  1 unique internal coordinates.
   Of these,  0 will be optimized.
   User supplied Z-matrix: 
--------------------------------------------------------------------------------
       SYMBOL    BOND      LENGTH    ANGLE     ANGLE     DIHED     ANGLE
                  TO      (ANGST)    WRT      (DEG)      WRT      (DEG)
--------------------------------------------------------------------------------
        C    
        O          1         r    
                  *Initial values for internal coordinates* 
                      Name             Value
                        r               1.6758620690
--------------------------------------------------------------------------------
  read isotopes from ZMAT file 
   Rotational constants (in cm-1): 
          0.8368637451             0.8368637451
   Rotational constants (in MHz): 
      25088.5474312884         25088.5474312884
********************************************************************************
   The full molecular point group is CXv .
   The largest Abelian subgroup of the full molecular point group is C2v .
   The computational point group is C2v .
********************************************************************************
--------------------------------------------------------------------------------
   Analysis of internal coordinates specified by Z-matrix 
--------------------------------------------------------------------------------
   *The nuclear repulsion energy is   15.156677432098764 a.u.
   *There is   1 degree of freedom within the tot. symm. molecular subspace.
   *Z-matrix requests optimization of   0 coordinates.
   *The optimization is constrained.
   *The following   1 parameters can have non-zero 
    derivatives within the totally symmetric subspace:
             r    [ 1]
   *The following   0 parameters are to be optimized:

   *The following coordinates must be varied in an  unconstrained optimization.
             r    [ 1]
--------------------------------------------------------------------------------


 ----------------------------------------------------------------
         Coordinates used in calculation (QCOMP) 
 ----------------------------------------------------------------
 Z-matrix   Atomic            Coordinates (in bohr)
  Symbol    Number           X              Y              Z
 ----------------------------------------------------------------
     C         6        -0.00000000     0.00000000     1.74681565
     O         8         0.00000000     0.00000000    -1.42010534
 ----------------------------------------------------------------
 
   Interatomic distance matrix (Angstroms) 
 
                 C             O    
                [ 1]        [ 2]
  C    [ 1]     0.00000
  O    [ 2]     1.67586     0.00000
 rotcon2
   Rotational constants (in cm-1): 
          0.8368637451             0.0000000000
   Rotational constants (in MHz): 
      25088.5474312884             0.0000000000
  ECPDATA file not present.   Using default ECPDATA. 
  @GTFLGS-I, Hessian will be transformed to curvilinear coordinates.
  There are  218 basis functions.
 @CHECKOUT-I, Total execution time (CPU/WALL):        0.22/       2.83 seconds.
--executable xjoda finished with status     0 in        2.86 seconds (walltime).
 --invoking executable--
/nfs/workspaces/public/cfour_mpi/bin/xvmol
 SERIAL VERSION OF MOLECULE STARTED
********************************************************************************
                    INPUT FROM MOL FILE
********************************************************************************
INTGRL        1    0    1    0    0    0    0    0    0                         
         *** CFOUR Program System (Release V0.1) ***                            
Carbon Monoxide DBOC calculation                                                
    2    2 X  Y       0.10E-08              0    0                              
   9999.00      3.00                                                            
          6.00000000    1    5    1    1    1    1    1                         
C #1  -0.000000000000000   0.000000000000000   1.746815652537906                
   16    9                                                                      
   33980.0000000000       9.100000000000000E-005 -1.900000000000000E-005        
  0.000000000000000E+000  0.000000000000000E+000  0.000000000000000E+000        
  0.000000000000000E+000  0.000000000000000E+000  0.000000000000000E+000        
  0.000000000000000E+000                                                        
   5089.00000000000       7.040000000000000E-004 -1.510000000000000E-004        
  0.000000000000000E+000  0.000000000000000E+000  0.000000000000000E+000        
  0.000000000000000E+000  0.000000000000000E+000  0.000000000000000E+000        
  0.000000000000000E+000                                                        
   1157.00000000000       3.693000000000000E-003 -7.850000000000000E-004        
  0.000000000000000E+000  0.000000000000000E+000  0.000000000000000E+000        
  0.000000000000000E+000  0.000000000000000E+000  0.000000000000000E+000        
  0.000000000000000E+000                                                        
   326.600000000000       1.536000000000000E-002 -3.324000000000000E-003        
  0.000000000000000E+000  0.000000000000000E+000  0.000000000000000E+000        
  0.000000000000000E+000  0.000000000000000E+000  0.000000000000000E+000        
  0.000000000000000E+000                                                        
   106.100000000000       5.292900000000000E-002 -1.151200000000000E-002        
  0.000000000000000E+000  0.000000000000000E+000  0.000000000000000E+000        
  0.000000000000000E+000  0.000000000000000E+000  0.000000000000000E+000        
  0.000000000000000E+000                                                        
   38.1100000000000       0.147043000000000      -3.416000000000000E-002        
  0.000000000000000E+000  0.000000000000000E+000  0.000000000000000E+000        
  0.000000000000000E+000  0.000000000000000E+000  0.000000000000000E+000        
  0.000000000000000E+000                                                        
   14.7500000000000       0.305631000000000      -7.717300000000001E-002        
  0.000000000000000E+000  0.000000000000000E+000  0.000000000000000E+000        
  0.000000000000000E+000  0.000000000000000E+000  0.000000000000000E+000        
  0.000000000000000E+000                                                        
   6.03500000000000       0.399345000000000      -0.141493000000000             
  0.000000000000000E+000  0.000000000000000E+000  0.000000000000000E+000        
  0.000000000000000E+000  0.000000000000000E+000  0.000000000000000E+000        
  0.000000000000000E+000                                                        
   2.53000000000000       0.217051000000000      -0.118019000000000             
  0.000000000000000E+000  0.000000000000000E+000  0.000000000000000E+000        
  0.000000000000000E+000  0.000000000000000E+000  0.000000000000000E+000        
  0.000000000000000E+000                                                        
  0.735500000000000       1.589400000000000E-002  0.273806000000000             
   1.00000000000000       0.000000000000000E+000  0.000000000000000E+000        
  0.000000000000000E+000  0.000000000000000E+000  0.000000000000000E+000        
  0.000000000000000E+000                                                        
  0.290500000000000      -3.084000000000000E-003  0.586510000000000             
  0.000000000000000E+000   1.00000000000000       0.000000000000000E+000        
  0.000000000000000E+000  0.000000000000000E+000  0.000000000000000E+000        
  0.000000000000000E+000                                                        
  0.111100000000000       9.779999999999999E-004  0.285430000000000             
  0.000000000000000E+000  0.000000000000000E+000   1.00000000000000             
  0.000000000000000E+000  0.000000000000000E+000  0.000000000000000E+000        
  0.000000000000000E+000                                                        
   7.21600000000000       0.000000000000000E+000  0.000000000000000E+000        
  0.000000000000000E+000  0.000000000000000E+000  0.000000000000000E+000        
   1.00000000000000       0.000000000000000E+000  0.000000000000000E+000        
  0.000000000000000E+000                                                        
   19.5700000000000       0.000000000000000E+000  0.000000000000000E+000        
  0.000000000000000E+000  0.000000000000000E+000  0.000000000000000E+000        
  0.000000000000000E+000   1.00000000000000       0.000000000000000E+000        
  0.000000000000000E+000                                                        
   53.0730000000000       0.000000000000000E+000  0.000000000000000E+000        
  0.000000000000000E+000  0.000000000000000E+000  0.000000000000000E+000        
  0.000000000000000E+000  0.000000000000000E+000   1.00000000000000             
  0.000000000000000E+000                                                        
  4.145000000000000E-002  0.000000000000000E+000  0.000000000000000E+000        
  0.000000000000000E+000  0.000000000000000E+000  0.000000000000000E+000        
  0.000000000000000E+000  0.000000000000000E+000  0.000000000000000E+000        
   1.00000000000000                                                             
   10    8                                                                      
   34.5100000000000       5.378000000000000E-003  0.000000000000000E+000        
  0.000000000000000E+000  0.000000000000000E+000  0.000000000000000E+000        
  0.000000000000000E+000  0.000000000000000E+000  0.000000000000000E+000        
   7.91500000000000       3.613200000000000E-002  0.000000000000000E+000        
  0.000000000000000E+000  0.000000000000000E+000  0.000000000000000E+000        
  0.000000000000000E+000  0.000000000000000E+000  0.000000000000000E+000        
   2.36800000000000       0.142493000000000       0.000000000000000E+000        
  0.000000000000000E+000  0.000000000000000E+000  0.000000000000000E+000        
  0.000000000000000E+000  0.000000000000000E+000  0.000000000000000E+000        
  0.813200000000000       0.342150000000000        1.00000000000000             
  0.000000000000000E+000  0.000000000000000E+000  0.000000000000000E+000        
  0.000000000000000E+000  0.000000000000000E+000  0.000000000000000E+000        
  0.289000000000000       0.463864000000000       0.000000000000000E+000        
   1.00000000000000       0.000000000000000E+000  0.000000000000000E+000        
  0.000000000000000E+000  0.000000000000000E+000  0.000000000000000E+000        
  0.100700000000000       0.250028000000000       0.000000000000000E+000        
  0.000000000000000E+000   1.00000000000000       0.000000000000000E+000        
  0.000000000000000E+000  0.000000000000000E+000  0.000000000000000E+000        
   8.18200000000000       0.000000000000000E+000  0.000000000000000E+000        
  0.000000000000000E+000  0.000000000000000E+000   1.00000000000000             
  0.000000000000000E+000  0.000000000000000E+000  0.000000000000000E+000        
   24.1860000000000       0.000000000000000E+000  0.000000000000000E+000        
  0.000000000000000E+000  0.000000000000000E+000  0.000000000000000E+000        
   1.00000000000000       0.000000000000000E+000  0.000000000000000E+000        
   71.4940000000000       0.000000000000000E+000  0.000000000000000E+000        
  0.000000000000000E+000  0.000000000000000E+000  0.000000000000000E+000        
  0.000000000000000E+000   1.00000000000000       0.000000000000000E+000        
  3.218000000000000E-002  0.000000000000000E+000  0.000000000000000E+000        
  0.000000000000000E+000  0.000000000000000E+000  0.000000000000000E+000        
  0.000000000000000E+000  0.000000000000000E+000   1.00000000000000             
    6    6                                                                      
   1.84800000000000        1.00000000000000       0.000000000000000E+000        
  0.000000000000000E+000  0.000000000000000E+000  0.000000000000000E+000        
  0.000000000000000E+000                                                        
  0.649000000000000       0.000000000000000E+000   1.00000000000000             
  0.000000000000000E+000  0.000000000000000E+000  0.000000000000000E+000        
  0.000000000000000E+000                                                        
  0.228000000000000       0.000000000000000E+000  0.000000000000000E+000        
   1.00000000000000       0.000000000000000E+000  0.000000000000000E+000        
  0.000000000000000E+000                                                        
   8.65600000000000       0.000000000000000E+000  0.000000000000000E+000        
  0.000000000000000E+000   1.00000000000000       0.000000000000000E+000        
  0.000000000000000E+000                                                        
   33.2130000000000       0.000000000000000E+000  0.000000000000000E+000        
  0.000000000000000E+000  0.000000000000000E+000   1.00000000000000             
  0.000000000000000E+000                                                        
  7.660000000000000E-002  0.000000000000000E+000  0.000000000000000E+000        
  0.000000000000000E+000  0.000000000000000E+000  0.000000000000000E+000        
   1.00000000000000                                                             
    4    4                                                                      
   1.41900000000000        1.00000000000000       0.000000000000000E+000        
  0.000000000000000E+000  0.000000000000000E+000                                
  0.485000000000000       0.000000000000000E+000   1.00000000000000             
  0.000000000000000E+000  0.000000000000000E+000                                
   24.6940000000000       0.000000000000000E+000  0.000000000000000E+000        
   1.00000000000000       0.000000000000000E+000                                
  0.187000000000000       0.000000000000000E+000  0.000000000000000E+000        
  0.000000000000000E+000   1.00000000000000                                     
    2    2                                                                      
   1.01100000000000        1.00000000000000       0.000000000000000E+000        
  0.424000000000000       0.000000000000000E+000   1.00000000000000             
          8.00000000    1    5    1    1    1    1    1                         
O #2   0.000000000000000   0.000000000000000  -1.420105344167200                
   16    9                                                                      
   61420.0000000000       9.000000000000001E-005 -2.000000000000000E-005        
  0.000000000000000E+000  0.000000000000000E+000  0.000000000000000E+000        
  0.000000000000000E+000  0.000000000000000E+000  0.000000000000000E+000        
  0.000000000000000E+000                                                        
   9199.00000000000       6.980000000000001E-004 -1.590000000000000E-004        
  0.000000000000000E+000  0.000000000000000E+000  0.000000000000000E+000        
  0.000000000000000E+000  0.000000000000000E+000  0.000000000000000E+000        
  0.000000000000000E+000                                                        
   2091.00000000000       3.664000000000000E-003 -8.290000000000000E-004        
  0.000000000000000E+000  0.000000000000000E+000  0.000000000000000E+000        
  0.000000000000000E+000  0.000000000000000E+000  0.000000000000000E+000        
  0.000000000000000E+000                                                        
   590.900000000000       1.521800000000000E-002 -3.508000000000000E-003        
  0.000000000000000E+000  0.000000000000000E+000  0.000000000000000E+000        
  0.000000000000000E+000  0.000000000000000E+000  0.000000000000000E+000        
  0.000000000000000E+000                                                        
   192.300000000000       5.242300000000000E-002 -1.215600000000000E-002        
  0.000000000000000E+000  0.000000000000000E+000  0.000000000000000E+000        
  0.000000000000000E+000  0.000000000000000E+000  0.000000000000000E+000        
  0.000000000000000E+000                                                        
   69.3200000000000       0.145921000000000      -3.626100000000000E-002        
  0.000000000000000E+000  0.000000000000000E+000  0.000000000000000E+000        
  0.000000000000000E+000  0.000000000000000E+000  0.000000000000000E+000        
  0.000000000000000E+000                                                        
   26.9700000000000       0.305258000000000      -8.299200000000000E-002        
  0.000000000000000E+000  0.000000000000000E+000  0.000000000000000E+000        
  0.000000000000000E+000  0.000000000000000E+000  0.000000000000000E+000        
  0.000000000000000E+000                                                        
   11.1000000000000       0.398508000000000      -0.152090000000000             
  0.000000000000000E+000  0.000000000000000E+000  0.000000000000000E+000        
  0.000000000000000E+000  0.000000000000000E+000  0.000000000000000E+000        
  0.000000000000000E+000                                                        
   4.68200000000000       0.216980000000000      -0.115331000000000             
  0.000000000000000E+000  0.000000000000000E+000  0.000000000000000E+000        
  0.000000000000000E+000  0.000000000000000E+000  0.000000000000000E+000        
  0.000000000000000E+000                                                        
   1.42800000000000       1.759400000000000E-002  0.288979000000000             
   1.00000000000000       0.000000000000000E+000  0.000000000000000E+000        
  0.000000000000000E+000  0.000000000000000E+000  0.000000000000000E+000        
  0.000000000000000E+000                                                        
  0.554700000000000      -2.502000000000000E-003  0.586128000000000             
  0.000000000000000E+000   1.00000000000000       0.000000000000000E+000        
  0.000000000000000E+000  0.000000000000000E+000  0.000000000000000E+000        
  0.000000000000000E+000                                                        
  0.206700000000000       9.540000000000000E-004  0.277624000000000             
  0.000000000000000E+000  0.000000000000000E+000   1.00000000000000             
  0.000000000000000E+000  0.000000000000000E+000  0.000000000000000E+000        
  0.000000000000000E+000                                                        
   12.9740000000000       0.000000000000000E+000  0.000000000000000E+000        
  0.000000000000000E+000  0.000000000000000E+000  0.000000000000000E+000        
   1.00000000000000       0.000000000000000E+000  0.000000000000000E+000        
  0.000000000000000E+000                                                        
   34.9000000000000       0.000000000000000E+000  0.000000000000000E+000        
  0.000000000000000E+000  0.000000000000000E+000  0.000000000000000E+000        
  0.000000000000000E+000   1.00000000000000       0.000000000000000E+000        
  0.000000000000000E+000                                                        
   93.8810000000000       0.000000000000000E+000  0.000000000000000E+000        
  0.000000000000000E+000  0.000000000000000E+000  0.000000000000000E+000        
  0.000000000000000E+000  0.000000000000000E+000   1.00000000000000             
  0.000000000000000E+000                                                        
  6.959000000000000E-002  0.000000000000000E+000  0.000000000000000E+000        
  0.000000000000000E+000  0.000000000000000E+000  0.000000000000000E+000        
  0.000000000000000E+000  0.000000000000000E+000  0.000000000000000E+000        
   1.00000000000000                                                             
   10    8                                                                      
   63.4200000000000       6.044000000000000E-003  0.000000000000000E+000        
  0.000000000000000E+000  0.000000000000000E+000  0.000000000000000E+000        
  0.000000000000000E+000  0.000000000000000E+000  0.000000000000000E+000        
   14.6600000000000       4.179900000000000E-002  0.000000000000000E+000        
  0.000000000000000E+000  0.000000000000000E+000  0.000000000000000E+000        
  0.000000000000000E+000  0.000000000000000E+000  0.000000000000000E+000        
   4.45900000000000       0.161143000000000       0.000000000000000E+000        
  0.000000000000000E+000  0.000000000000000E+000  0.000000000000000E+000        
  0.000000000000000E+000  0.000000000000000E+000  0.000000000000000E+000        
   1.53100000000000       0.356731000000000        1.00000000000000             
  0.000000000000000E+000  0.000000000000000E+000  0.000000000000000E+000        
  0.000000000000000E+000  0.000000000000000E+000  0.000000000000000E+000        
  0.530200000000000       0.448309000000000       0.000000000000000E+000        
   1.00000000000000       0.000000000000000E+000  0.000000000000000E+000        
  0.000000000000000E+000  0.000000000000000E+000  0.000000000000000E+000        
  0.175000000000000       0.244940000000000       0.000000000000000E+000        
  0.000000000000000E+000   1.00000000000000       0.000000000000000E+000        
  0.000000000000000E+000  0.000000000000000E+000  0.000000000000000E+000        
   14.4750000000000       0.000000000000000E+000  0.000000000000000E+000        
  0.000000000000000E+000  0.000000000000000E+000   1.00000000000000             
  0.000000000000000E+000  0.000000000000000E+000  0.000000000000000E+000        
   42.7300000000000       0.000000000000000E+000  0.000000000000000E+000        
  0.000000000000000E+000  0.000000000000000E+000  0.000000000000000E+000        
   1.00000000000000       0.000000000000000E+000  0.000000000000000E+000        
   126.140000000000       0.000000000000000E+000  0.000000000000000E+000        
  0.000000000000000E+000  0.000000000000000E+000  0.000000000000000E+000        
  0.000000000000000E+000   1.00000000000000       0.000000000000000E+000        
  5.348000000000000E-002  0.000000000000000E+000  0.000000000000000E+000        
  0.000000000000000E+000  0.000000000000000E+000  0.000000000000000E+000        
  0.000000000000000E+000  0.000000000000000E+000   1.00000000000000             
    6    6                                                                      
   3.77500000000000        1.00000000000000       0.000000000000000E+000        
  0.000000000000000E+000  0.000000000000000E+000  0.000000000000000E+000        
  0.000000000000000E+000                                                        
   1.30000000000000       0.000000000000000E+000   1.00000000000000             
  0.000000000000000E+000  0.000000000000000E+000  0.000000000000000E+000        
  0.000000000000000E+000                                                        
  0.444000000000000       0.000000000000000E+000  0.000000000000000E+000        
   1.00000000000000       0.000000000000000E+000  0.000000000000000E+000        
  0.000000000000000E+000                                                        
   14.9270000000000       0.000000000000000E+000  0.000000000000000E+000        
  0.000000000000000E+000   1.00000000000000       0.000000000000000E+000        
  0.000000000000000E+000                                                        
   57.5440000000000       0.000000000000000E+000  0.000000000000000E+000        
  0.000000000000000E+000  0.000000000000000E+000   1.00000000000000             
  0.000000000000000E+000                                                        
  0.154000000000000       0.000000000000000E+000  0.000000000000000E+000        
  0.000000000000000E+000  0.000000000000000E+000  0.000000000000000E+000        
   1.00000000000000                                                             
    4    4                                                                      
   2.66600000000000        1.00000000000000       0.000000000000000E+000        
  0.000000000000000E+000  0.000000000000000E+000                                
  0.859000000000000       0.000000000000000E+000   1.00000000000000             
  0.000000000000000E+000  0.000000000000000E+000                                
   26.4830000000000       0.000000000000000E+000  0.000000000000000E+000        
   1.00000000000000       0.000000000000000E+000                                
  0.324000000000000       0.000000000000000E+000  0.000000000000000E+000        
  0.000000000000000E+000   1.00000000000000                                     
    2    2                                                                      
   1.84600000000000        1.00000000000000       0.000000000000000E+000        
  0.714000000000000       0.000000000000000E+000   1.00000000000000             
FINISH                                                                          
 
********************************************************************************
 ONE- AND TWO-ELECTRON INTEGRALS OVER SYMMETRY-ADAPTED AOS ARE CALCULATED.

  SPHERICAL HARMONICS ARE USED.
  
  INTEGRALS LESS THAN  0.10E-13 ARE NEGLECTED.

  NUCLEAR REPULSION ENERGY :   15.1566774321 A.U.
  @MOLECU-I, ONE ELECTRON INTEGRALS (CPU/WALL):        0.08/       0.08 SECONDS.
  @TWOEL-I,    4401744 INTEGRALS OF SYMMETRY TYPE  I I I I
  @TWOEL-I,   18996151 INTEGRALS OF SYMMETRY TYPE  I J I J
  @TWOEL-I,   10001999 INTEGRALS OF SYMMETRY TYPE  I I J J
  @TWOEL-I,   14031641 INTEGRALS OF SYMMETRY TYPE  I J K L
  @TWOEL-I, TOTAL NUMBER OF 2-E INTEGRALS   47431535.
  @MOLECU-I, TWO ELECTRON INTEGRALS (CPU/WALL):      295.66/      39.77 SECONDS.
 @CHECKOUT-I, Total execution time (CPU/WALL):      295.74/      39.86 seconds.

Running with 14 threads/proc

--executable xvmol finished with status     0 in       39.94 seconds (walltime).
 --invoking executable--
/nfs/workspaces/public/cfour_mpi/bin/xvmol2ja
 @GETMEM-I,  Allocated    3814 MB of main memory.
 @CHECKOUT-I, Total execution time (CPU/WALL):        0.23/       0.68 seconds.
--executable xvmol2ja finished with status     0 in        0.74 seconds (walltime).
 --invoking executable--
/nfs/workspaces/public/cfour_mpi/bin/xvprop
 @GETMEM-I,  Allocated    3814 MB of main memory.
   Property integrals will be calculated.
    --------------------------------------------------------------
                                   Property evaluated at 
    Property type                X             Y             Z
    --------------------------------------------------------------
    Dipole moment               ----          ----          ----  
    Quadrupole moment           ----          ----          ----  
    Octopole moment             ----          ----          ----  
    Relativisitic corr.         ----          ----          ----  
    Second moment            0.0000000     0.0000000     0.0000000
    Electron density         0.0000000     0.0000000     1.7468157
    Electron density         0.0000000     0.0000000    -1.4201053
    Field gradient           0.0000000     0.0000000     1.7468157
    Field gradient           0.0000000     0.0000000    -1.4201053
    Potential                0.0000000     0.0000000     1.7468157
    Potential                0.0000000     0.0000000    -1.4201053
    --------------------------------------------------------------
 @CHECKOUT-I, Total execution time (CPU/WALL):        1.34/       1.36 seconds.
--executable xvprop finished with status     0 in        1.39 seconds (walltime).
 --invoking executable--
/nfs/workspaces/public/cfour_mpi/bin/xvscf
  There are  218 functions in the AO basis.

  There are 4 irreducible representations.

       Irrep        # of functions
         1                 86
         2                 52
         3                 52
         4                 28


  Parameters for SCF calculation: 
        SCF reference function:  RHF  
  Maximum number of iterations:  150
     Full symmetry point group: CXv 
     Computational point group: C2v 
        Initial density matrix: MOREAD                 
     SCF convergence tolerance: 10**(-10)
  DIIS convergence acceleration:  ON
          Latest start for DIIS:   8
                     DIIS order:   6

  Memory information:    2523578 words required.
  Fock matrices are constructed from AO integral file.
 @GETMEM-I,  Allocated      19 MB of main memory.
  Initialization and symmetry analysis required      0.002 seconds.

  Adding electric field perturbation to one-electron Hamiltonian.
  Field direction     : Z
  Field strength      : -0.0002000 a.u.

  @INITGES-I, Occupancies from core Hamiltonian:

          Alpha population by irrep:   5    1    1    0
           Beta population by irrep:   5    1    1    0


 total no. of electrons in initial guess :  0.000000000000000E+000
  --------------------------------------------------------------------
  Iteration         Total Energy            Largest Density Difference
  --------------------------------------------------------------------
       0            15.156501442331585              0.0000000000D+00
   current occupation vector 
     5  1  1  0
     5  1  1  0
       1           -93.679069532643126              0.1755896142D+02
   current occupation vector 
     5  1  1  0
     5  1  1  0
       2           -97.817761626970238              0.1755895184D+02
   current occupation vector 
     5  1  1  0
     5  1  1  0
       3          -100.041453880748406              0.6881890181D+01
   current occupation vector 
     5  1  1  0
     5  1  1  0
       4           -94.718305208476082              0.6879333801D+01
   current occupation vector 
     5  1  1  0
     5  1  1  0
       5          -100.023304575110757              0.7033847094D+01
   current occupation vector 
     5  1  1  0
     5  1  1  0
       6           -94.588549701278311              0.7034029303D+01
   current occupation vector 
     5  1  1  0
     5  1  1  0
       7          -100.018455642470485              0.7041392324D+01
   current occupation vector 
     5  1  1  0
     5  1  1  0
       8           -94.585040465333577              0.7041401620D+01
   current occupation vector 
     5  1  1  0
     5  1  1  0
       9          -107.274415819144366              0.5997357224D+01
   current occupation vector 
     5  1  1  0
     5  1  1  0
      10          -110.598880381559027              0.1315423266D+01
   current occupation vector 
     5  1  1  0
     5  1  1  0
      11          -112.331102866932824              0.1025696673D+01
   current occupation vector 
     5  1  1  0
     5  1  1  0
      12          -112.450906969007406              0.5381904965D+00
   current occupation vector 
     5  1  1  0
     5  1  1  0
      13          -112.480367618916674              0.1315643797D+00
   current occupation vector 
     5  1  1  0
     5  1  1  0
      14          -112.489049705353708              0.9830993371D-01
   current occupation vector 
     5  1  1  0
     5  1  1  0
      15          -112.489783620254329              0.3299819535D-01
   current occupation vector 
     5  1  1  0
     5  1  1  0
      16          -112.490528525310481              0.5343673442D-01
   current occupation vector 
     5  1  1  0
     5  1  1  0
      17          -112.490883956686332              0.4276248693D-01
   current occupation vector 
     5  1  1  0
     5  1  1  0
      18          -112.490963878133712              0.2702114994D-01
   current occupation vector 
     5  1  1  0
     5  1  1  0
      19          -112.490964641271049              0.2168300360D-02
   current occupation vector 
     5  1  1  0
     5  1  1  0
      20          -112.490964652098469              0.2758615706D-03
   current occupation vector 
     5  1  1  0
     5  1  1  0
      21          -112.490964652425433              0.2323549228D-04
   current occupation vector 
     5  1  1  0
     5  1  1  0
      22          -112.490964652449506              0.1880650785D-04
   current occupation vector 
     5  1  1  0
     5  1  1  0
      23          -112.490964652450046              0.8076529490D-06
   current occupation vector 
     5  1  1  0
     5  1  1  0
      24          -112.490964652448724              0.1716872122D-06
   current occupation vector 
     5  1  1  0
     5  1  1  0
      25          -112.490964652449705              0.5509824597D-07
   current occupation vector 
     5  1  1  0
     5  1  1  0
      26          -112.490964652449478              0.8502704762D-08
   current occupation vector 
     5  1  1  0
     5  1  1  0
      27          -112.490964652449080              0.5106160383D-08
   current occupation vector 
     5  1  1  0
     5  1  1  0
      28          -112.490964652449421              0.2313991665D-08
   current occupation vector 
     5  1  1  0
     5  1  1  0
      29          -112.490964652449563              0.8191094469D-09
   current occupation vector 
     5  1  1  0
     5  1  1  0

  SCF has converged.

 Density matrix saved to file den.dat
 total electron number:   14.0000000000000     
     E(SCF)=      -112.490964652449620              0.7401046442D-10

  Eigenvector printing suppressed.

 @PUTMOS-I, Writing converged MOs to NEWMOS. 
 @PUTMOS-I, Symmetry   1 Full Blocks 21 Partial Blocksize   2
 @PUTMOS-I, Symmetry   2 Full Blocks 13 Partial Blocksize   0
 @PUTMOS-I, Symmetry   3 Full Blocks 13 Partial Blocksize   0
 @PUTMOS-I, Symmetry   4 Full Blocks  7 Partial Blocksize   0
 @PUTFOCK-I, Writing converged Fock matrix to NEWFOCK. 
 @PUTFOCK-I, Symmetry   1 Full Blocks 21 Partial Blocksize   2
 @PUTFOCK-I, Symmetry   2 Full Blocks 13 Partial Blocksize   0
 @PUTFOCK-I, Symmetry   3 Full Blocks 13 Partial Blocksize   0
 @PUTFOCK-I, Symmetry   4 Full Blocks  7 Partial Blocksize   0


 
  ORBITAL EIGENVALUES (ALPHA)  (1H = 27.2113834 eV)

       MO #        E(hartree)               E(eV)           FULLSYM    COMPSYM
       ----   --------------------   --------------------   -------   ---------
    1     1         -20.6367298433        -561.5539678885     SG+        A1 (1)
    2     2         -11.5334105325        -313.8400559104     SG+        A1 (1)
    3     3          -1.2521772309         -34.0734747143     SG+        A1 (1)
    4     4          -0.8106122122         -22.0578796952     SG+        A1 (1)
    5     5          -0.5128547089         -13.9554861132     SG+        A1 (1)
    6    87          -0.4857724021         -13.2185390780      PI        B1 (2)
    7   139          -0.4857724021         -13.2185390780      PI        B2 (3)
  +++++++++++++++++++++++++++++++++++++++++++++++++++++++++++++++++++++++++++++
    8    88          -0.0187159588          -0.5092871296      PI        B1 (2)
    9   140          -0.0187159588          -0.5092871296      PI        B2 (3)
   10     6           0.0569390442           1.5493901620     SG+        A1 (1)
   11     7           0.0693667709           1.8875657984     SG+        A1 (1)
   12   141           0.0804279592           2.1885560329      PI        B2 (3)
   13    89           0.0804279592           2.1885560329      PI        B1 (2)
   14     8           0.1566041807           4.2614164034     SG+        A1 (1)
   15     9           0.1781336518           4.8472630966     SG+        A1 (1)
   16   142           0.1825169159           4.9665377745      PI        B2 (3)
   17    90           0.1825169159           4.9665377745      PI        B1 (2)
   18   191           0.2201386835           5.9902781173      DE        A2 (4)
   19    10           0.2201386835           5.9902781173      DE        A1 (1)
   20   143           0.2810897753           7.6488416451      PI        B2 (3)
   21    91           0.2810897753           7.6488416451      PI        B1 (2)
   22    11           0.2942525058           8.0070177530     SG+        A1 (1)
   23    12           0.3044605020           8.2847914511     SG+        A1 (1)
   24   144           0.4074297018          11.0867258244      PI        B2 (3)
   25    92           0.4074297018          11.0867258244      PI        B1 (2)
   26    13           0.4113479278          11.1933461732     SG+        A1 (1)
   27    14           0.5150114011          14.0141726903     SG+        A1 (1)
   28   192           0.5507391570          14.9863743541      DE        A2 (4)
   29    15           0.5507391570          14.9863743541      DE        A1 (1)
   30   145           0.6237233362          16.9723748371      PI        B2 (3)
   31    93           0.6237233362          16.9723748371      PI        B1 (2)
   32    16           0.6998757698          19.0445879038     SG+        A1 (1)
   33   146           0.7273090338          19.7910849678      PH        B2 (3)
   34    94           0.7273090338          19.7910849678      PH        B1 (2)
   35   193           0.7334747317          19.9588621397      DE        A2 (4)
   36    17           0.7334747317          19.9588621398      DE        A1 (1)
   37    95           0.7705607392          20.9680237063      PI        B1 (2)
   38   147           0.7705607392          20.9680237063      PI        B2 (3)
   39    18           0.8114533633          22.0807685796     SG+        A1 (1)
   40   194           0.8519469965          23.1826563596      DE        A2 (4)
   41    19           0.8519469965          23.1826563596      DE        A1 (1)
   42    96           0.8719635290          23.7273338977      PI        B1 (2)
   43   148           0.8719635290          23.7273338977      PI        B2 (3)
   44    20           0.8980078616          24.4360362190     SG+        A1 (1)
   45   149           1.0492200278          28.5507284470      PI        B2 (3)
   46    97           1.0492200278          28.5507284471      PI        B1 (2)
   47    21           1.1423699200          31.0854658774     SG+        A1 (1)
   48    22           1.3394155323          36.4473495812     SG+        A1 (1)
   49    98           1.4193377527          38.6221437631      PH        B1 (2)
   50   150           1.4193377527          38.6221437631      PH        B2 (3)
   51    99           1.4648768985          39.8613269200      PI        B1 (2)
   52   151           1.4648768985          39.8613269200      PI        B2 (3)
   53    23           1.5799850919          42.9935801019     SG+        A1 (1)
   54   195           1.5880551877          43.2131785727      DE        A2 (4)
   55    24           1.5880551877          43.2131785727      DE        A1 (1)
   56   152           1.6406450633          44.6442218412      PI        B2 (3)
   57   100           1.6406450633          44.6442218412      PI        B1 (2)
   58   196           1.6643865863          45.2902615260      DE        A2 (4)
   59    25           1.6643865863          45.2902615260      DE        A1 (1)
   60    26           1.9039702764          51.8096651735     SG+        A1 (1)
   61    27           1.9216370398          52.2904022468     SG+        A1 (1)
   62   153           2.0411075987          55.5413614284      PI        B2 (3)
   63   101           2.0411075987          55.5413614284      PI        B1 (2)
   64   197           2.0601087591          56.0584092907      PI        A2 (4)
   65    28           2.0601087591          56.0584092907      PI        A1 (1)
   66   198           2.1172036500          57.6120402569      DE        A2 (4)
   67    29           2.1172036500          57.6120402569      DE        A1 (1)
   68   154           2.1800945181          59.3233877790      PH        B2 (3)
   69   102           2.1800945181          59.3233877790      PH        B1 (2)
   70   155           2.2001281464          59.8685305213      PH        B2 (3)
   71   103           2.2001281464          59.8685305213      PH        B1 (2)
   72   104           2.2076613812          60.0735202624      PI        B1 (2)
   73   156           2.2076613812          60.0735202624      PI        B2 (3)
   74    30           2.2163816247          60.3108101509     SG+        A1 (1)
   75    31           2.2721872194          61.8293575844      DE        A1 (1)
   76   199           2.2721872194          61.8293575844      DE        A2 (4)
   77    32           2.3669600217          64.4082566430     SG+        A1 (1)
   78   105           2.4822194174          67.5446242509      PI        B1 (2)
   79   157           2.4822194174          67.5446242509      PI        B2 (3)
   80    33           2.5829206891          70.2848451635      DE        A1 (1)
   81   200           2.5829206891          70.2848451635      DE        A2 (4)
   82   158           2.6192546025          71.2735412103      PI        B2 (3)
   83   106           2.6192546025          71.2735412103      PI        B1 (2)
   84    34           2.6584622138          72.3404345534     SG+        A1 (1)
   85    35           2.8248366848          76.8677140723     SG+        A1 (1)
   86   107           3.3044459053          89.9185444532      PI        B1 (2)
   87   159           3.3044459053          89.9185444532      PI        B2 (3)
   88    36           3.7167592935         101.1381621403      PI        A1 (1)
   89   201           3.7167592935         101.1381621403      PI        A2 (4)
   90    37           3.8431001716         104.5760722139     SG+        A1 (1)
   91   160           3.8785578405         105.5409244356      PH        B2 (3)
   92   108           3.8785578405         105.5409244356      PH        B1 (2)
   93    38           4.0704785339         110.7633520068     SG+        A1 (1)
   94   161           4.1471305460         112.8491592970      PH        B2 (3)
   95   109           4.1471305460         112.8491592970      PH        B1 (2)
   96   110           4.1476056814         112.8620883893      PI        B1 (2)
   97   162           4.1476056814         112.8620883893      PI        B2 (3)
   98    39           4.1506752799         112.9456164093      DE        A1 (1)
   99   202           4.1506752799         112.9456164093      DE        A2 (4)
  100   203           4.3068274778         117.1947337374      DE        A2 (4)
  101    40           4.3068274778         117.1947337374      DE        A1 (1)
  102    41           4.3408904858         118.1216353060     SG+        A1 (1)
  103   111           4.4859378953         122.0685759764      PI        B1 (2)
  104   163           4.4859378953         122.0685759764      PI        B2 (3)
  105    42           4.6020022774         125.2268483776      DE        A1 (1)
  106   204           4.6020022774         125.2268483776      DE        A2 (4)
  107    43           4.8648676480         132.3797787604     SG+        A1 (1)
  108   112           5.0636939176         137.7901166126      PI        B1 (2)
  109   164           5.0636939176         137.7901166126      PI        B2 (3)
  110    44           5.0937603715         138.6082664167     SG+        A1 (1)
  111   165           5.3550829705         145.7192158500      PI        B2 (3)
  112   113           5.3550829705         145.7192158500      PI        B1 (2)
  113   205           5.8134413080         158.1917803049      PI        A2 (4)
  114    45           5.8134413080         158.1917803049      PI        A1 (1)
  115   166           5.8839735892         160.1110612510      PH        B2 (3)
  116   114           5.8839735892         160.1110612510      PH        B1 (2)
  117    46           5.9758221222         162.6103868977     SG+        A1 (1)
  118    47           6.0524431773         164.6953518034      DE        A1 (1)
  119   206           6.0524431773         164.6953518034      DE        A2 (4)
  120   115           6.1053281779         166.1344258318      PI        B1 (2)
  121   167           6.1053281779         166.1344258318      PI        B2 (3)
  122    48           6.1513459623         167.3866334052     SG+        A1 (1)
  123   207           6.2581293778         170.2923578658      DE        A2 (4)
  124    49           6.2581293778         170.2923578658      DE        A1 (1)
  125   168           6.3379409875         172.4641421777      PH        B2 (3)
  126   116           6.3379409875         172.4641421777      PH        B1 (2)
  127    50           6.4690053041         176.0305835455      DE        A1 (1)
  128   208           6.4690053041         176.0305835455      DE        A2 (4)
  129   169           6.7174215878         182.7903342843      PI        B2 (3)
  130   117           6.7174215878         182.7903342843      PI        B1 (2)
  131   118           7.0610167339         192.1400335401      PI        B1 (2)
  132   170           7.0610167339         192.1400335401      PI        B2 (3)
  133    51           7.0629966019         192.1939084863     SG+        A1 (1)
  134    52           7.5427021500         205.2473600766     SG+        A1 (1)
  135    53           9.3882020402         255.4659651530     SG+        A1 (1)
  136   119           9.6326550383         262.1178694073      PI        B1 (2)
  137   171           9.6326550383         262.1178694074      PI        B2 (3)
  138    54          10.6688205129         290.3133654034     SG+        A1 (1)
  139   209          10.6717974960         290.3943732321      PI        A2 (4)
  140    55          10.6717974960         290.3943732321      PI        A1 (1)
  141   172          10.7282053822         291.9293098502      PH        B2 (3)
  142   120          10.7282053822         291.9293098502      PH        B1 (2)
  143    56          10.9349494587         297.5551021814      DE        A1 (1)
  144   210          10.9349494587         297.5551021814      DE        A2 (4)
  145   121          10.9891450672         299.0298396619      PI        B1 (2)
  146   173          10.9891450672         299.0298396619      PI        B2 (3)
  147    57          11.1305046145         302.8764284995     SG+        A1 (1)
  148   174          11.9071669042         324.0104838375      PH        B2 (3)
  149   122          11.9071669042         324.0104838375      PH        B1 (2)
  150   211          11.9773519050         325.9203148041      DE        A2 (4)
  151    58          11.9773519050         325.9203148042      DE        A1 (1)
  152   123          12.2324145667         332.8609226817      PI        B1 (2)
  153   175          12.2324145667         332.8609226817      PI        B2 (3)
  154    59          12.5043115866         340.2596167367     SG+        A1 (1)
  155    60          12.7236832692         346.2290236983      DE        A1 (1)
  156   212          12.7236832692         346.2290236983      DE        A2 (4)
  157   176          13.1031465782         356.5547452870      PI        B2 (3)
  158   124          13.1031465782         356.5547452870      PI        B1 (2)
  159    61          13.3611743671         363.5760383781     SG+        A1 (1)
  160    62          17.2374554756         469.0550097876     SG+        A1 (1)
  161   125          18.6747726348         508.1663980734      PI        B1 (2)
  162   177          18.6747726348         508.1663980735      PI        B2 (3)
  163    63          19.4512256648         529.2947591641     SG+        A1 (1)
  164   213          26.2372006776         713.9505269813      DE        A2 (4)
  165    64          26.2372006776         713.9505269813      DE        A1 (1)
  166   126          26.4743074900         720.4025313610      PI        B1 (2)
  167   178          26.4743074900         720.4025313610      PI        B2 (3)
  168    65          26.9050672654         732.1241007629     SG+        A1 (1)
  169   127          33.3574242758         907.7016612063      PI        B1 (2)
  170   179          33.3574242759         907.7016612070      PI        B2 (3)
  171    66          34.2201919130         931.1787621662     SG+        A1 (1)
  172    67          35.5087352262         966.2418082881     SG+        A1 (1)
  173   214          47.0784151476        1281.0688044456      DE        A2 (4)
  174    68          47.0784151476        1281.0688044457      DE        A1 (1)
  175   180          47.2631990120        1286.0970290260      PI        B2 (3)
  176   128          47.2631990120        1286.0970290260      PI        B1 (2)
  177    69          47.4175931140        1290.2983061308     SG+        A1 (1)
  178    70          63.6744293772        1732.6693105591     SG+        A1 (1)
  179   129          66.2675365709        1803.2313446049      PI        B1 (2)
  180   181          66.2675365709        1803.2313446050      PI        B2 (3)
  181    71          66.8466994891        1818.9911688237     SG+        A1 (1)
  182   130          98.4943884701        2680.1685674084      PH        B1 (2)
  183   182          98.4943884701        2680.1685674084      PH        B2 (3)
  184    72          98.5089638789        2680.5651844458      DE        A1 (1)
  185   215          98.5089638789        2680.5651844459      DE        A2 (4)
  186   131          98.5223819022        2680.9303074228      PI        B1 (2)
  187   183          98.5223819022        2680.9303074228      PI        B2 (3)
  188    73          98.5299702339        2681.1367964264     SG+        A1 (1)
  189    74         103.3180337628        2811.4266288528      DE        A1 (1)
  190   216         103.3180337628        2811.4266288541      DE        A2 (4)
  191   184         103.3251847207        2811.6212163103      PH        B2 (3)
  192   132         103.3251847207        2811.6212163103      PH        B1 (2)
  193   133         103.3323923451        2811.8173457422      PI        B1 (2)
  194   185         103.3323923451        2811.8173457423      PI        B2 (3)
  195    75         103.3436313577        2812.1231748223     SG+        A1 (1)
  196   217         114.9440267191        3127.7859805942      DE        A2 (4)
  197    76         114.9440267191        3127.7859805942      DE        A1 (1)
  198   134         115.0599512068        3130.9404462735      PI        B1 (2)
  199   186         115.0599512068        3130.9404462735      PI        B2 (3)
  200    77         115.2438890671        3135.9456499121     SG+        A1 (1)
  201   135         116.6741464840        3174.8649328432      PI        B1 (2)
  202   187         116.6741464840        3174.8649328440      PI        B2 (3)
  203    78         117.3903728675        3194.3544435669     SG+        A1 (1)
  204    79         121.7839169089        3313.9088549629     SG+        A1 (1)
  205   218         198.5625103633        5403.1605983610      DE        A2 (4)
  206    80         198.5625103633        5403.1605983611      DE        A1 (1)
  207   188         198.6631543916        5405.8992616040      PI        B2 (3)
  208   136         198.6631543916        5405.8992616040      PI        B1 (2)
  209    81         198.7437570038        5408.0925701882     SG+        A1 (1)
  210    82         216.2038062682        5883.2046649021     SG+        A1 (1)
  211   137         224.7549541472        6115.8932283483      PI        B1 (2)
  212   189         224.7549541472        6115.8932283483      PI        B2 (3)
  213    83         225.2128570954        6128.3534010312     SG+        A1 (1)
  214   138         395.2208808589       10754.5069167385      PI        B1 (2)
  215   190         395.2208808590       10754.5069167392      PI        B2 (3)
  216    84         395.7679479471       10769.3933690199     SG+        A1 (1)
  217    85         508.5355223419       13837.9550709644     SG+        A1 (1)
  218    86         895.0148942192       24354.5934353097     SG+        A1 (1)


  VSCF finished.

 @CHECKOUT-I, Total execution time (CPU/WALL):       53.41/      13.40 seconds.
--executable xvscf finished with status     0 in       13.44 seconds (walltime).
 --invoking executable--
/nfs/workspaces/public/cfour_mpi/bin/xvtran
 @GETMEM-I,  Allocated    3814 MB of main memory.
  Full RHF integral transformation
  Transformation of IIII integrals :
  1 pass through the AO integral file was required.
     4401744 AO integrals were read.
     8605106 MO integrals were written to HF2.
  Transformation of IIJJ integrals :
  1 pass through the AO integral file was required.
    10001999 AO integrals were read.
    14363499 MO integrals were written to HF2.
  Transformation of IJIJ integrals :
  1 pass through the AO integral file was required.
    18996151 AO integrals were read.
    26725860 MO integrals were written to HF2.
  Transformation of IJKL integrals :
  1 pass through the AO integral file was required.
    14031641 AO integrals were read.
    18102862 MO integrals were written to HF2.
  Summary of active molecular orbitals: 
------------------------------------------------------------------------
 
  Index      Eigenvalue    Symmetry    Index      Eigenvalue    Symmetry
------------------------------------------------------------------------
     1       -20.6367298        1       110         4.1471305        2
     2       -11.5334105        1       111         4.1476057        2
     3        -1.2521772        1       112         4.4859379        2
     4        -0.8106122        1       113         5.0636939        2
     5        -0.5128547        1       114         5.3550830        2
     6        -0.4857724        2       115         5.8839736        2
     7        -0.4857724        3       116         6.1053282        2
     8         0.0569390        1       117         6.3379410        2
     9         0.0693668        1       118         6.7174216        2
    10         0.1566042        1       119         7.0610167        2
    11         0.1781337        1       120         9.6326550        2
    12         0.2201387        1       121        10.7282054        2
    13         0.2942525        1       122        10.9891451        2
    14         0.3044605        1       123        11.9071669        2
    15         0.4113479        1       124        12.2324146        2
    16         0.5150114        1       125        13.1031466        2
    17         0.5507392        1       126        18.6747726        2
    18         0.6998758        1       127        26.4743075        2
    19         0.7334747        1       128        33.3574243        2
    20         0.8114534        1       129        47.2631990        2
    21         0.8519470        1       130        66.2675366        2
    22         0.8980079        1       131        98.4943885        2
    23         1.1423699        1       132        98.5223819        2
    24         1.3394155        1       133       103.3251847        2
    25         1.5799851        1       134       103.3323923        2
    26         1.5880552        1       135       115.0599512        2
    27         1.6643866        1       136       116.6741465        2
    28         1.9039703        1       137       198.6631544        2
    29         1.9216370        1       138       224.7549541        2
    30         2.0601088        1       139       395.2208809        2
    31         2.1172037        1       140        -0.0187160        3
    32         2.2163816        1       141         0.0804280        3
    33         2.2721872        1       142         0.1825169        3
    34         2.3669600        1       143         0.2810898        3
    35         2.5829207        1       144         0.4074297        3
    36         2.6584622        1       145         0.6237233        3
    37         2.8248367        1       146         0.7273090        3
    38         3.7167593        1       147         0.7705607        3
    39         3.8431002        1       148         0.8719635        3
    40         4.0704785        1       149         1.0492200        3
    41         4.1506753        1       150         1.4193378        3
    42         4.3068275        1       151         1.4648769        3
    43         4.3408905        1       152         1.6406451        3
    44         4.6020023        1       153         2.0411076        3
    45         4.8648676        1       154         2.1800945        3
    46         5.0937604        1       155         2.2001281        3
    47         5.8134413        1       156         2.2076614        3
    48         5.9758221        1       157         2.4822194        3
    49         6.0524432        1       158         2.6192546        3
    50         6.1513460        1       159         3.3044459        3
    51         6.2581294        1       160         3.8785578        3
    52         6.4690053        1       161         4.1471305        3
    53         7.0629966        1       162         4.1476057        3
    54         7.5427022        1       163         4.4859379        3
    55         9.3882020        1       164         5.0636939        3
    56        10.6688205        1       165         5.3550830        3
    57        10.6717975        1       166         5.8839736        3
    58        10.9349495        1       167         6.1053282        3
    59        11.1305046        1       168         6.3379410        3
    60        11.9773519        1       169         6.7174216        3
    61        12.5043116        1       170         7.0610167        3
    62        12.7236833        1       171         9.6326550        3
    63        13.3611744        1       172        10.7282054        3
    64        17.2374555        1       173        10.9891451        3
    65        19.4512257        1       174        11.9071669        3
    66        26.2372007        1       175        12.2324146        3
    67        26.9050673        1       176        13.1031466        3
    68        34.2201919        1       177        18.6747726        3
    69        35.5087352        1       178        26.4743075        3
    70        47.0784151        1       179        33.3574243        3
    71        47.4175931        1       180        47.2631990        3
    72        63.6744294        1       181        66.2675366        3
    73        66.8466995        1       182        98.4943885        3
    74        98.5089639        1       183        98.5223819        3
    75        98.5299702        1       184       103.3251847        3
    76       103.3180338        1       185       103.3323923        3
    77       103.3436314        1       186       115.0599512        3
    78       114.9440267        1       187       116.6741465        3
    79       115.2438891        1       188       198.6631544        3
    80       117.3903729        1       189       224.7549541        3
    81       121.7839169        1       190       395.2208809        3
    82       198.5625104        1       191         0.2201387        4
    83       198.7437570        1       192         0.5507392        4
    84       216.2038063        1       193         0.7334747        4
    85       225.2128571        1       194         0.8519470        4
    86       395.7679479        1       195         1.5880552        4
    87       508.5355223        1       196         1.6643866        4
    88       895.0148942        1       197         2.0601088        4
    89        -0.0187160        2       198         2.1172037        4
    90         0.0804280        2       199         2.2721872        4
    91         0.1825169        2       200         2.5829207        4
    92         0.2810898        2       201         3.7167593        4
    93         0.4074297        2       202         4.1506753        4
    94         0.6237233        2       203         4.3068275        4
    95         0.7273090        2       204         4.6020023        4
    96         0.7705607        2       205         5.8134413        4
    97         0.8719635        2       206         6.0524432        4
    98         1.0492200        2       207         6.2581294        4
    99         1.4193378        2       208         6.4690053        4
   100         1.4648769        2       209        10.6717975        4
   101         1.6406451        2       210        10.9349495        4
   102         2.0411076        2       211        11.9773519        4
   103         2.1800945        2       212        12.7236833        4
   104         2.2001281        2       213        26.2372007        4
   105         2.2076614        2       214        47.0784151        4
   106         2.4822194        2       215        98.5089639        4
   107         2.6192546        2       216       103.3180338        4
   108         3.3044459        2       217       114.9440267        4
   109         3.8785578        2       218       198.5625104        4
------------------------------------------------------------------------
  -20.6367298433101       -11.5334105325350       -1.25217723088363     
 -0.810612212210156      -0.512854708928651      -0.485772402075136     
 -0.485772402075112       5.693904419481077E-002  6.936677090987815E-002
  0.156604180710866       0.178133651837303       0.220138683478601     
  0.294252505845199       0.304460502038172       0.411347927763728     
  0.515011401085997       0.550739156983993       0.699875769776324     
  0.733474731745960       0.811453363284869       0.851946996549875     
  0.898007861628134        1.14236991998743        1.33941553229565     
   1.57998509189622        1.58805518769473        1.66438658631334     
   1.90397027640516        1.92163703984408        2.06010875914276     
   2.11720365003074        2.21638162471786        2.27218721942743     
   2.36696002170276        2.58292068912300        2.65846221377163     
   2.82483668479271        3.71675929347650        3.84310017159561     
   4.07047853387681        4.15067527986374        4.30682747784930     
   4.34089048578142        4.60200227738449        4.86486764801502     
   5.09376037150333        5.81344130798207        5.97582212221273     
   6.05244317727140        6.15134596226487        6.25812937778947     
   6.46900530406281        7.06299660186731        7.54270215003583     
[...]
 Convergence information after    17 iterations: 
 Largest element of residual vector :  0.76548754E-06.
 Largest element of DIIS residual   :  0.32837322E-06.
 Convergence information after    18 iterations: 
 Largest element of residual vector : -0.12742159E-06.
 Largest element of DIIS residual   : -0.10950510E-06.
 Convergence information after    19 iterations: 
 Largest element of residual vector :  0.13101419E-06.
 Largest element of DIIS residual   : -0.45556884E-07.
 Perturbed amplitude equations converged in    19 iterations.
  Dominant contributions to perturbed wavefunction:
    7    7  140   22  -0.2216692351 ABAB
    7    7   22  140  -0.2216692351 ABAB
    7    7  140   45  -0.2146055127 ABAB
    7    7   45  140  -0.2146055127 ABAB
    7    0   36    0   0.2091602158 AA  
    7    0   22    0   0.1920617426 AA  
    7    0   28    0   0.1846327111 AA  
    7    7  140   32  -0.1777937871 ABAB
    7    7   32  140  -0.1777937871 ABAB
    7    7  140   28  -0.1754806300 ABAB
    7    7   28  140  -0.1754806300 ABAB
    7    0   45    0   0.1732843692 AA  
    7    0   46    0  -0.1725470182 AA  
    7    7  140   39  -0.1706170799 ABAB
    7    7   39  140  -0.1706170799 ABAB
    7    0   39    0   0.1621646473 AA  
    7    0   25    0  -0.1534376813 AA  
    7    7  140   56  -0.1533557943 ABAB
    7    7   56  140  -0.1533557943 ABAB
    7    7  140   36  -0.1503702387 ABAB
  norm of converged amps    1.59487403258644     
 Starting iterative solution of the perturbed Lambda equations.
 The DIIS procedure is used to accelerate convergence.
 Convergence criterion is 10**(-7).
 Maximum number of iterations is 100.
 Convergence information after     1 iterations: 
 Largest element of residual vector :  0.78004553E-01.
 Largest element of DIIS residual   :  0.78004553E-01.
 Convergence information after     2 iterations: 
 Largest element of residual vector : -0.17373716E-01.
 Largest element of DIIS residual   :  0.14097175E-01.
 Convergence information after     3 iterations: 
 Largest element of residual vector :  0.63497550E-02.
 Largest element of DIIS residual   :  0.61057755E-02.
 Convergence information after     4 iterations: 
 Largest element of residual vector :  0.34265938E-02.
 Largest element of DIIS residual   :  0.31968350E-02.
 Convergence information after     5 iterations: 
 Largest element of residual vector :  0.32415460E-02.
 Largest element of DIIS residual   :  0.27829046E-02.
 Convergence information after     6 iterations: 
 Largest element of residual vector :  0.18573097E-02.
 Largest element of DIIS residual   :  0.85173691E-03.
 Convergence information after     7 iterations: 
 Largest element of residual vector :  0.92054513E-03.
 Largest element of DIIS residual   :  0.45916802E-03.
 Convergence information after     8 iterations: 
 Largest element of residual vector :  0.34804968E-03.
 Largest element of DIIS residual   : -0.20428101E-03.
 Convergence information after     9 iterations: 
 Largest element of residual vector :  0.15330275E-03.
 Largest element of DIIS residual   : -0.99602838E-04.
 Convergence information after    10 iterations: 
 Largest element of residual vector : -0.89122321E-04.
 Largest element of DIIS residual   : -0.55490469E-04.
 Convergence information after    11 iterations: 
 Largest element of residual vector : -0.29517668E-04.
 Largest element of DIIS residual   : -0.93485785E-05.
 Convergence information after    12 iterations: 
 Largest element of residual vector :  0.13298662E-04.
 Largest element of DIIS residual   :  0.74092093E-05.
 Convergence information after    13 iterations: 
 Largest element of residual vector :  0.34834114E-05.
 Largest element of DIIS residual   :  0.30391009E-05.
 Convergence information after    14 iterations: 
 Largest element of residual vector :  0.37779555E-05.
 Largest element of DIIS residual   :  0.20955280E-05.
 Convergence information after    15 iterations: 
 Largest element of residual vector :  0.20813832E-05.
 Largest element of DIIS residual   :  0.99986273E-06.
 Convergence information after    16 iterations: 
 Largest element of residual vector :  0.88841129E-06.
 Largest element of DIIS residual   :  0.25815058E-06.
 Convergence information after    17 iterations: 
 Largest element of residual vector :  0.43062188E-06.
 Largest element of DIIS residual   :  0.19034392E-06.
 Convergence information after    18 iterations: 
 Largest element of residual vector :  0.78500072E-07.
 Largest element of DIIS residual   : -0.59995073E-07.
 Perturbed Lambda equations converged in    18 iterations.
  Dominant contributions to perturbed wavefunction:
    7    7  140   22  -0.1689498569 ABAB
    7    7   22  140  -0.1689498569 ABAB
    7    7  140   45  -0.1654463851 ABAB
    7    7   45  140  -0.1654463851 ABAB
    7    7  140   32  -0.1363307223 ABAB
    7    7   32  140  -0.1363307223 ABAB
    7    7  140   28  -0.1310739507 ABAB
    7    7   28  140  -0.1310739507 ABAB
    7    7  140   39  -0.1291071315 ABAB
    7    7   39  140  -0.1291071315 ABAB
    7    7  140   56  -0.1164651061 ABAB
    7    7   56  140  -0.1164651061 ABAB
    7    7  140   36  -0.1079663228 ABAB
    7    7   36  140  -0.1079663228 ABAB
    7    6   22   89  -0.1044521634 ABAB
    6    7   89   22  -0.1044521634 ABAB
    7    7  140   16   0.1041088530 ABAB
    7    7   16  140   0.1041088530 ABAB
    7    6   45   89  -0.1029573997 ABAB
    6    7   89   45  -0.1029573997 ABAB
        The DBOC first-order density matrix is being calculated 
             (Symmetry block 3, perturbation   2)
 term   2.63426976154541     
 final tnorm  0.745349628368783     
  norm contr. I: |<0|L dT/dx|0>|^2   0.000000000000000E+000
  norm contr. II: <0|[nabla(1+L)e-T][nabla e^T]|0>   2.63426976154541     
  total norm contribution   2.63426976154541     
 oo  1.101720833641743E-002
 vv  -19.6956688830754     
 vo  3.840769194244315E-002
  Correlated perturbed 1-el contribution to DBOC  -19.6462439827965       cm**-1
  SUM_I |dc_I/dx|^2 contribution to DBOC   9.91726067981015       cm**-1
 
 
  The total diagonal Born-Oppenheimer correction (DBOC) is:      0.0040090375 a.u.
  The total diagonal Born-Oppenheimer correction (DBOC) is:        879.882017 cm-1
 
 Total CC energy including DBOC  -113.041518257313     
 First-order density matrix is being calculated  (Symmetry block 3, perturbation   2)
 Calculation of the contributions of <pq||rs> to dI(i,j)/dx required   3.2 seconds.
 Calculation of the contributions of <pq||rs> to dI(a,b)/dx required  17.8 seconds.
 Calculation of the contributions of <pq||rs> to dI(i,a)/dx required  10.4 seconds.
 First-order Z-vector equations are solved for 1 perturbation.
 Convergence reached after  20 iterations.
        U*G(pq,rs) contribution is being calculated
             (Symmetry block 3, perturbation   2)

 CCSD contribution to force constants 

        0.0000000000        0.0000000000        0.0000000000
        0.0000000000        0.0000000000        0.0000000000
        0.0000000000        0.0000000000        0.0000000000
        0.0000000000        0.0000000000        0.0000000000
        0.0000000000        0.0000000000        0.0000000000
        0.0000000000        0.0000000000        0.0000000000
        0.0000000000        0.0000000000        0.0000000000
        0.0000000000        0.0000000000        0.0000000000
        0.0000000000        0.0000000000        0.0000000000
        0.0000000000        0.0000000000        0.0000000000
        0.0000000000        0.0000000000        0.0000000000
        0.0000000000       -7.2453447806        7.2453447806

 CCSD contribution to dipole derivatives 

        0.0000000000        0.0000000000        0.0000000000
        0.0000000000        0.0000000000        0.0000000000
        0.0000000000        0.0000000000        0.0000000000
        0.0000000000        0.0000000000       -0.0570911601
        0.0000000000        0.0000000000        0.0000000000
        0.0000000000        0.0000000000        0.0000000000
 @CHECKOUT-I, Total execution time (CPU/WALL):     1410.11/     571.80 seconds.
--executable xsdcc finished with status     0 in      572.01 seconds (walltime).
 --invoking executable--
/nfs/workspaces/public/cfour_mpi/bin/xanti
 @GETMEM-I,  Allocated    3814 MB of main memory.
 CCSD MO derivative gammas will be sorted to Mulliken order.
 @CHECKOUT-I, Total execution time (CPU/WALL):       12.40/      23.60 seconds.
--executable xanti finished with status     0 in       23.74 seconds (walltime).
 --invoking executable--
/nfs/workspaces/public/cfour_mpi/bin/xbcktrn
 @GETMEM-I,  Allocated    3814 MB of main memory.
 CCSD MO derivative gammas will be transformed to the AO basis.
 @CHECKOUT-I, Total execution time (CPU/WALL):       25.83/      16.72 seconds.
--executable xbcktrn finished with status     0 in       16.78 seconds (walltime).
 --invoking executable--
/nfs/workspaces/public/cfour_mpi/bin/xvdint
 @GETMEM-I,  Allocated    3814 MB of main memory.
 One- and two-electron integral derivatives are calculated
 for RHF-CC/MBPT hessians and dipole derivatives.
 Spherical gaussians are used.
  magnet F F
                    8722  records have been written to the Sort file.
  Total length of Sort file :             178609116  words.
 Evaluation of 2el integral derivatives

                      Two-electron integral gradient
                      ------------------------------

                         C #1 z     0.0000000000
                         O #2 z     0.0000000000


 C #1       0.0000000000            0.0814910292            0.0000000000
 O #2       0.0000000000           -0.0814910292            0.0000000000


 Evaluation of 2e integral derivatives required  368.98 seconds.
  contribution to Hessian
        0.0000000000        0.0000000000        0.0000000000
        0.0000000000        0.0814910292       -0.0814910292
 @CHECKOUT-I, Total execution time (CPU/WALL):      368.98/      86.08 seconds.
--executable xvdint finished with status     0 in       86.28 seconds (walltime).
 --invoking executable--
/nfs/workspaces/public/cfour_mpi/bin/xanti
 @GETMEM-I,  Allocated    3814 MB of main memory.
 CCSD MO gammas will be sorted to Mulliken order.
 @CHECKOUT-I, Total execution time (CPU/WALL):       17.10/      51.04 seconds.
--executable xanti finished with status     0 in       51.21 seconds (walltime).
 --invoking executable--
/nfs/workspaces/public/cfour_mpi/bin/xbcktrn
 @GETMEM-I,  Allocated    3814 MB of main memory.
 CCSD MO gammas will be transformed to the AO basis.
 @CHECKOUT-I, Total execution time (CPU/WALL):       51.02/       9.64 seconds.
--executable xbcktrn finished with status     0 in        9.72 seconds (walltime).
 --invoking executable--
/nfs/workspaces/public/cfour_mpi/bin/xvdint
 @GETMEM-I,  Allocated    3814 MB of main memory.
 One- and two-electron integral derivatives are calculated
 for RHF-CC/MBPT hessians and dipole derivatives.
 Spherical gaussians are used.
  magnet F F

                     Kinetic energy integral gradient
                     --------------------------------

                         C #1 z    -0.4498428095
                         O #2 z     0.4498428095


 C #1       0.0000000000            0.0000000000           -0.4498428095
 O #2       0.0000000000            0.0000000000            0.4498428095



                   Nuclear attraction integral gradient
                   ------------------------------------

                         C #1 z    12.5933540462
                         O #2 z   -12.5933540462


 C #1       0.0000000000            0.0000000000           12.5933540462
 O #2       0.0000000000            0.0000000000          -12.5933540462



                      Reorthonormalization gradient
                      -----------------------------

                         C #1 z     0.0000000000
                         O #2 z     0.0000000000


 C #1       0.0000000000            0.0000000000            0.0000000000
 O #2       0.0000000000            0.0000000000            0.0000000000



                     Kinetic energy integral Hessian
                     -------------------------------


           Symmetry 1

           C #1 z      O #2 z

 C #1 z    0.475725
 O #2 z   -0.475725    0.475725


           Symmetry 2

           C #1 x      O #2 x

 C #1 x   -0.317832
 O #2 x    0.317832   -0.317832


           Symmetry 3

           C #1 y      O #2 y

 C #1 y   -0.317832
 O #2 y    0.317832   -0.317832




           C #1 x      C #1 y      C #1 z      O #2 x      O #2 y      O #2 z

 C #1 x   -0.317832
 C #1 y    0.000000   -0.317832
 C #1 z    0.000000    0.000000    0.475725

 O #2 x    0.317832    0.000000    0.000000   -0.317832
 O #2 y    0.000000    0.317832    0.000000    0.000000   -0.317832
 O #2 z    0.000000    0.000000   -0.475725    0.000000    0.000000    0.475725




                   Nuclear attraction integral Hessian
                   -----------------------------------


           Symmetry 1

           C #1 z      O #2 z

 C #1 z   -7.538600
 O #2 z    7.538600   -7.538600


           Symmetry 2

           C #1 x      O #2 x

 C #1 x    6.269404
 O #2 x   -6.269404    6.269404


           Symmetry 3

           C #1 y      O #2 y

 C #1 y    6.269404
 O #2 y   -6.269404    6.269404




           C #1 x      C #1 y      C #1 z      O #2 x      O #2 y      O #2 z

 C #1 x    6.269404
 C #1 y    0.000000    6.269404
 C #1 z    0.000000    0.000000   -7.538600

 O #2 x   -6.269404    0.000000    0.000000    6.269404
 O #2 y    0.000000   -6.269404    0.000000    0.000000    6.269404
 O #2 z    0.000000    0.000000    7.538600    0.000000    0.000000   -7.538600




                Highest order reorthonormalization Hessian
                ------------------------------------------


           Symmetry 1

           C #1 z      O #2 z

 C #1 z    0.000000
 O #2 z    0.000000    0.000000


           Symmetry 2

           C #1 x      O #2 x

 C #1 x    0.000000
 O #2 x    0.000000    0.000000


           Symmetry 3

           C #1 y      O #2 y

 C #1 y    0.000000
 O #2 y    0.000000    0.000000




           C #1 x      C #1 y      C #1 z      O #2 x      O #2 y      O #2 z




                Electronic contributions to dipole moment
                -----------------------------------------

                               au             Debye

                    z      1.41734547      3.60253348

  Conversion factor used: 1 a.u. =   2.54174691 Debye 



   Electronic contributions to static part of dipole moment derivatives
   --------------------------------------------------------------------


                     Total dipole moment derivatives
                     -------------------------------


           Symmetry 1
                              Ez

               C #1 z    -5.69278885
               O #2 z    -8.30721115

           Symmetry 2
                              Ex

               C #1 x    -5.68311107
               O #2 x    -8.31688893

           Symmetry 3
                              Ey

               C #1 y    -5.68311107
               O #2 y    -8.31688893



                       Ex          Ey          Ez

      C #1    x   -5.683111    0.000000    0.000000
      C #1    y    0.000000   -5.683111    0.000000
      C #1    z    0.000000    0.000000   -5.692789

      O #2    x   -8.316889    0.000000    0.000000
      O #2    y    0.000000   -8.316889    0.000000
      O #2    z    0.000000    0.000000   -8.307211

 Evaluation of 1e integral derivatives required    1.54 seconds.
                    8815  records have been written to the Sort file.
  Total length of Sort file :             180513570  words.
 Evaluation of 2el integral derivatives

                      Two-electron integral gradient
                      ------------------------------

                         C #1 z    -6.8143793372
                         O #2 z     6.8143793372


 C #1       0.0000000000            0.0000000000           -6.8143793372
 O #2       0.0000000000            0.0000000000            6.8143793372


 Evaluation of 2e integral derivatives required  713.55 seconds.

                            Molecular gradient
                            ------------------

                         C #1 z     0.5431970916
                         O #2 z    -0.5431970916


 C #1       0.0000000000            0.0000000000            0.5431970916
 O #2       0.0000000000            0.0000000000           -0.5431970916


  Molecular gradient norm 0.768E+00

                            Molecular hessian
                            -----------------


           Symmetry 1

           C #1 z      O #2 z

 C #1 z   11.158407
 O #2 z  -11.158407   11.158407


           Symmetry 2

           C #1 x      O #2 x

 C #1 x    7.401276
 O #2 x   -7.401276    7.401276


           Symmetry 3

           C #1 y      O #2 y

 C #1 y    7.401276
 O #2 y   -7.401276    7.401276




           C #1 x      C #1 y      C #1 z      O #2 x      O #2 y      O #2 z

 C #1 x    7.401276
 C #1 y    0.000000    7.401276
 C #1 z    0.000000    0.000000   11.158407

 O #2 x   -7.401276    0.000000    0.000000    7.401276
 O #2 y    0.000000   -7.401276    0.000000    0.000000    7.401276
 O #2 z    0.000000    0.000000  -11.158407    0.000000    0.000000   11.158407




                           Total dipole moment
                           -------------------

                               au             Debye

                    z      0.53739663      1.36592624

  Conversion factor used: 1 a.u. =   2.54174691 Debye 



                     Total dipole moment derivatives
                     -------------------------------


           Symmetry 1
                              Ez

               C #1 z     0.52496679
               O #2 z    -0.52496679

           Symmetry 2
                              Ex

               C #1 x     0.18142032
               O #2 x    -0.18142032

           Symmetry 3
                              Ey

               C #1 y     0.18142032
               O #2 y    -0.18142032



                       Ex          Ey          Ez

      C #1    x    0.181420    0.000000    0.000000
      C #1    y    0.000000    0.181420    0.000000
      C #1    z    0.000000    0.000000    0.524967

      O #2    x   -0.181420    0.000000    0.000000
      O #2    y    0.000000   -0.181420    0.000000
      O #2    z    0.000000    0.000000   -0.524967

 @CHECKOUT-I, Total execution time (CPU/WALL):      715.06/     125.92 seconds.
--executable xvdint finished with status     0 in      126.12 seconds (walltime).
 --invoking executable--
/nfs/workspaces/public/cfour_mpi/bin/xjoda
  @GTFLGS-I, Hessian will be transformed to curvilinear coordinates.
  @GTFLGS-I, Hessian will be transformed to curvilinear coordinates.
  igrd and ihes are                      0                     1
  gradient from JOBARC 
   0.000000000000000   0.000000000000000   0.543197091565833
   0.000000000000000   0.000000000000000  -0.543197091565833
 
  @PROJFCM-I, Projecting force constant matrix onto totally symmetric subspace.
  Largest difference between matrix elements of symmetrized
  and unsymmetrized FCM :    -0.1483257961E-12.
  read isotopes from ZMAT file 
 
  Summary of diagonal Born-Oppenheimer correction at the correlated level
  The total diagonal Born-Oppenheimer correction (DBOC) is:      0.0040090375 a.u.
  The total diagonal Born-Oppenheimer correction (DBOC) is:        879.882017 cm-1
  The total diagonal Born-Oppenheimer correction (DBOC) is:            10.526 kJ/mole
  hellooooooo 
  readis is  F
 
 @CHECKOUT-I, Total execution time (CPU/WALL):        0.01/       0.08 seconds.
--executable xjoda finished with status     0 in        0.13 seconds (walltime).
  The final electronic energy is      -113.041518257312944 a.u. 
  This computation required                         4739.50 seconds (walltime).
