 --invoking executable--
/nfs/workspaces/public/cfour_mpi/bin/xjoda


   *************************************************************************
         <<<     CCCCCC     CCCCCC   |||     CCCCCC     CCCCCC   >>>
       <<<      CCC        CCC       |||    CCC        CCC         >>>
      <<<      CCC        CCC        |||   CCC        CCC            >>>
    <<<        CCC        CCC        |||   CCC        CCC              >>>
      <<<      CCC        CCC        |||   CCC        CCC            >>>
       <<<      CCC        CCC       |||    CCC        CCC         >>>
         <<<     CCCCCC     CCCCCC   |||     CCCCCC     CCCCCC   >>>
   *************************************************************************

     ****************************************************************
     * CFOUR Coupled-Cluster techniques for Computational Chemistry *
     ****************************************************************
 

   Department of Chemistry                Institut fuer Physikalische Chemie
   University of Florida                  Universitaet Mainz
   Gainesville, FL 32611, USA             D-55099 Mainz, Germany

   Department of Chemistry                Fakultaet fuer Chemie und Biowiss.
   Johns Hopkins University               Karlsruher Institut fuer Technologie
   Baltimore, MD 21218, USA               D-76131 Karlsruhe, Germany

   Department of Chemistry                Department of Physical Chemistry
   Southern Methodist University          Eotvos Lorand University
   Dallas, TX 75275, USA                  H-1053 Budapest, Hungary

 
                       Version 2.1
 
                     vincent.theory.phys.ucl.ac.uk                     
                     Fri 28 Feb 19:46:53 GMT 2025                      
                     integer*8 version is running
 
********************************************************************************
*                          Input from ZMAT file                                *
********************************************************************************
Carbon Monoxide DBOC calculation                                                
C                                                                               
O 1 r                                                                           
                                                                                
r=1.706896551724138                                                             
                                                                                
                                                                                
*CFOUR(CALC=CCSD,BASIS=AUG-PCVQZ,SCF_CONV=10                                    
CC_CONV=14,DBOC=ON,MEMORY=500000000                                             
ZFIELD=-200)                                                                    
                                                                                
%isotopes                                                                       
13                                                                              
16                                                                              
********************************************************************************
  @GTFLGS-I, Hessian will be transformed to curvilinear coordinates.
    -------------------------------------------------------------------
                    CFOUR Control Parameters 
    -------------------------------------------------------------------
        External           Internal           Value            Units
          Name               Name
    -------------------------------------------------------------------
       ABCDTYPE             IABCDT         STANDARD    [  0]    ***   
       ANHARMONIC           IANHAR         OFF         [  0]    ***   
       ANH_ALGORIT          IANALG         STANDARD    [  0]    ***   
       ANH_DERIVAT          IANDER         SECOND      [  1]    ***   
       ANH_MODE             ANHMOD         VIBRATION   [  0]    ***   
       ANH_STEPSIZ          ICUBST             50000          x 10-6  
       ANH_SYMMETR          IANHSM         ABELIAN     [  0]    ***   
       AO_LADDERS           IAOLAD         SINGLEPASS  [  1]    ***   
       AV_SCF               IAVSCF         OFF         [  0]    ***   
       BASIS                IBASIS         AUG-PCVQZ   [ 52]    ***   
       BOTHVECTORS          BOTHVC         OFF         [  0]    ***   
       BOX_POTENT           IPIAB          OFF         [  0]    ***   
       BREIT                IBREIT         OFF         [  0]    ***   
       BRUCK_CONV           IBRTOL          10D-  4             ***   
       BRUECKNER            IBRKNR         OFF         [  0]    ***   
       BUFFERSIZE           IBUFFS              4096            ***   
       CACHE_RECS           ICHREC             10               ***   
       CALCLEVEL            ICLLVL         CCSD        [ 10]    ***   
       CCORBOPT             ICCORB         OFF         [  0]  x 0.01  
       CC_CONV              ICCCNV          10D- 14             ***   
       CC_EXPORDER          ICCEOR              5               ***   
       CC_EXTRAPOL          ICCEXT         DIIS        [  1]    ***   
       CC_GUESS             ICCGES         MP2         [  0]    ***   
       CC_MAXCYC            ICCCYC            100              cycles 
       CC_PROGRAM           ICCPRO         VCC         [  0]    ***   
       CHARGE               ICHRGE              0               ***   
       CHOLESKY             ICHOLE         OFF         [  0]    ***   
       CIS_CONV             ICISTL              5               ***   
       COMM_SIZE            IPSIZE            ***               ***   
       CONSTANT             ICONST         OLD         [  1]    ***   
       CONTINUUM            ICONTU         NONE        [  0]    ***   
       CONTRACTION          ICNTYP         GENERAL     [  1]    ***   
       COORDINATES          ICOORD         INTERNAL    [  0]    ***   
       CPHF_CONVER          ICPHFT          10D- 16             ***   
       CPHF_MAXCYC          ICPHFC             64              cycles 
       CUBIC                ICUBIC         OFF         [  0]    ***   
       CURVILINEAR          ICURVY         ON          [  1]    ***   
       DBOC                 IDBOC          ON          [  1]    ***   
       DCT                  IDCT           OFF         [  0]    ***   
       DERIV_LEV            IDRLVL         SECOND      [  2]    ***   
       DEVMEM_SIZE          IDVMEM          50000000           MByte  
       DIAG_MRCC            IEOMST          10D-  0             ***   
       DIFF_TYPE            IDIFTY         RELAXED     [  0]    ***   
       DIRECT               IDIRCT         OFF         [  0]    ***   
       DROPMO               IDRPMO      NONE         
       ECP                  IECP           OFF         [  0]    ***   
       EIGENVECTOR          IVEC                1               ***   
       EL_ANHARM            IELANH         OFF         [  0]    ***   
       EOMFOLLOW            IEOMSR         ENERGY      [  0]    ***   
       EOMIP                IEOMIP         OFF         [  0]    ***   
       EOMLEVEL             HBARFM         SAME        [  0]    ***   
       EOM_MRCC             IMRCCE         NEW         [  1]    ***   
       EOM_NONIT            EOMNON         OFF         [  0]    ***   
       EOM_NSING            IEOMSI          10D-  0             ***   
       EOM_NSTATES          IMRCCD         DAVIDSON    [  0]    ***   
       EOM_NTRIP            IEOMTR          10D-  0             ***   
       EOM_ORDER            IEXORD         ENERGY      [  0]    ***   
       EOM_PROPSTA          IEOMST              0               ***   
       ESTATE_CONV          IEXTOL          10D-  5             ***   
       ESTATE_DIAG          IEXDIG         ITERATIVE   [  0]    ***   
       ESTATE_LOCK          IESLOC         ON          [  1]    ***   
       ESTATE_MAXC          IEXMXC             40               ***   
       ESTATE_PROP          IEXPRP         OFF         [  0]    ***   
       EVAL_HESS            IRECAL              0            # of cyc.
       EXCITATION           IEXCIT              0               ***   
       EXCITE               IEXCIT         NONE        [  0]    ***   
       EXTERN_POT           IEXPOT         OFF         [  0]    ***   
       FCGRADNEW            IFCGNW         OFF         [  0]    ***   
       FC_FIELD             IFINFC              0             x 10-6  
       FD_CALTYPE           IFDCAL         GRADONLY    [  0]    ***   
       FD_PROJECT           IFDPRJ         OFF         [  1]    ***   
       FD_STEPSIZE          IDISFD              0            10-4 bohr
       FD_USEGROUP          IFDGRP         FULL        [  0]    ***   
       FILE_RECSIZ          IFLREC              4096           words  
       FINITE_PERT          IFIPER              0             x 10-6  
       FIXGEOM              IFIXGM         OFF         [  0]    ***   
       FOCK                 IFOCK          AO          [  1]    ***   
       FREQ_ALGORI          IVIALG         STANDARD    [  0]    ***   
       FROZEN_CORE          IFROCO         OFF         [  0]    ***   
       GAMMA_ABCD           IGABCD         STORE       [  0]    ***   
       GAMMA_ABCI           IGABCI         STORE       [  0]    ***   
       GENBAS_1             IGNBS1              0               ***   
       GENBAS_2             IGNBS2              0               ***   
       GENBAS_3             IGNBS3              0               ***   
       GENBAS_4             IGNBS4              0               ***   
       GEO_CONV             ICONTL              5              H/bohr 
       GEO_MAXCYC           IOPTCY             50               ***   
       GEO_MAXSTEP          IMXSTP            300            millibohr
       GEO_METHOD           INR            SINGLE_POINT[  5]    ***   
       GIAO                 IGIAO          OFF         [  1]    ***   
       GIMIC                IGIMIC         OFF         [  0]    ***   
       GRID                 IGRID          OFF         [  0]    ***   
       GRID_ALGO            IGALGO         SERIAL      [  0]    ***   
       GUESS                IGUESS         MOREAD      [  0]    ***   
       HBAR                 IHBAR          OFF         [  0]    ***   
       HESS_TYPE            IHESTP         SCF         [  0]    ***   
       HF2_FILE             IHF2Fl         USE         [  1]    ***   
       HFSTABILITY          ISTABL         OFF         [  0]    ***   
       INCORE               INCORE         OFF         [  0]    ***   
       INPUT_MRCC           IMRCC          ON          [  1]    ***   
       INTEGRALS            INTTYP         VMOL        [  1]    ***   
       JODA_PRINT           IJPRNT              0               ***   
       KEYWORD_OUT          IDMPKW         NO          [  0]    ***   
       LINDEP_TOL           ILINDP              8               ***   
       LINEQ_CONV           IZTACN          10D-  7           cycles  
       LINEQ_EXPOR          ILMAXD              5               ***   
       LINEQ_MAXCY          ILMAXC            100               ***   
       LINEQ_TYPE           ILTYPE         DIIS        [  1]    ***   
       LOCK_ORBOCC          ILOCOC         OFF         [  0]    ***   
       MEMORY_SIZE          IMEMSZ         500000000           words  
       MEM_UNIT             IMEMU          INTEGERWORDS[  0]    ***   
       MRCC                 IMRCCC         OFF         [  0]    ***   
       MULTIPLICTY          IMULTP              1               ***   
       NACOUPLING           IVCOUP         OFF         [  0]    ***   
       NEGEVAL              IDIE           ABORT       [  0]    ***   
       NEWNORM              INEWNO         OFF         [  0]    ***   
       NON-HF               INONHF         OFF         [  0]    ***   
       NTOP_TAMP            ITOPT2             15               ***   
       NUC_MODEL            INUCMO         POINT       [  0]    ***   
       OCCUPATION           IOCCU   ESTIMATED BY SCF 
       OPEN-SHELL           IOPEN          SPIN-ORBITAL[  0]    ***   
       OPTVIB               IOPTVB         OFF         [  0]    ***   
       ORBITALS             IORBTP         STANDARD    [  0]    ***   
       PARALLEL             IPARAL         ON          [  1]    ***   
       PARA_INT             IPINTS         ON          [  1]    ***   
       PARA_PRINT           IPPRIN              0               ***   
       PERT_ORB             IPTORB         STANDARD    [  0]    ***   
       POINTS               IGRDFD              0               ***   
       PRINT                IPRNT               0               ***   
       PROPS                IPROPS         OFF         [  0]    ***   
       PROP_INTEGR          IINTYP         INTERNAL    [  0]    ***   
       PSI                  IPSI           OFF         [  0]    ***   
       QC_ALG               IQCALG         FLM         [  0]    ***   
       QC_LINALG            IQCLIN         TRIDIAG     [  2]    ***   
       QC_MAXCYC            IQCMAX          10D-100           cycles  
       QC_MAXSCFCY          IQCMSC          10D- 15           cycles  
       QC_RTRUST            IQCRTR          10D-  0           x 10-3  
       QC_SKIPSCF           IQCSKI         OFF         [  0]    ***   
       QC_START             IQCSTA          10D-  1             ***   
       QRHFGUESS            IQGUES         OFF         [  0]    ***   
       QUARTIC              IQUART         OFF         [  0]    ***   
       RAMAN_INT            IRAMIN         OFF         [  0]    ***   
       RAMAN_ORB            IRAMRE         UNRELAXED   [  0]    ***   
       RDO                  IRDOFM         ON          [  1]    ***   
       REDUCE_REPR          REDREP         Ir          [  0]    ***   
       REFERENCE            IREFNC         RHF         [  0]    ***   
       RELATIVIST           IRELAT         OFF         [  0]    ***   
       RELAX_DENS           IRDENS         ON          [  1]    ***   
       RESET_FLAGS          IRESET         OFF         [  0]    ***   
       RESTART_CC           ICCRES         OFF         [  0]    ***   
       ROT_EVEC             ROTVEC              0               ***   
       SAVE_INTS            ISVINT         OFF         [  0]    ***   
       SCALE_ON             ISTCRT              0               ***   
       SCF_CONV             ISCFCV          10D- 10             ***   
       SCF_DAMPING          IDAMP               0             x 10-3  
       SCF_EXPORDE          IRPPOR              6               ***   
       SCF_EXPSTAR          IRPPLS              8               ***   
       SCF_EXTRAPO          IRPP           ON          [  1]    ***   
       SCF_MAXCYC           ISCFCY            150              cycles 
       SCF_NOSTOP           ISCFST         OFF         [  0]    ***   
       SCF_PRINT            ISCFPR              0               ***   
       SCF_PROG             ISCFPR         SCF         [  0]    ***   
       SD_FIELD             IFINSD              0             x 10-6  
       SOPERT               IPERSO         OFF         [  0]    ***   
       SPHERICAL            IDFGHI         ON          [  1]    ***   
       SPINORBIT            ISOCAL         OFF         [  0]    ***   
       SPINROTATIO          ISRCON         OFF         [  0]    ***   
       SPIN_FLIP            ISPFLP         OFF         [  0]    ***   
       SPIN_ORBIT           ISPORB         OFF         [  0]    ***   
       SPIN_SCAL            ISCSMP         OFF         [  0]    ***   
       STEEPSCALE           ISTPSC              1000          x 10-3  
       SUBGROUP             ISUBGP         DEFAULT     [  0]    ***   
       SUBGRPAXIS           ISBXYZ         X           [  0]    ***   
       SYMMETRY             ISYM           ON          [  0]    ***   
       SYM_CHECK            ISYMCK         OVERRIDE    [  1]    ***   
       T3_EXTRAPOL          IT3EXT         OFF         [  0]    ***   
       T4_EXTRAPOL          IT4EXP         OFF         [  0]    ***   
       TAMP_SUM             IEVERY              5               ***   
       TESTSUITE            ITESTS         OFF         [  0]    ***   
       THERMOCH             ITHERM         OFF         [  0]    ***   
       TOL_CHOLESK          ITOLCH          10D-  4             ***   
       TRANGRAD             IRESRM         OFF         [  0]    ***   
       TRANS_INV            ITRAIN         IGNORE      [  1]    ***   
       TREAT_PERT           ITREAT         SIMULTANEOUS[  0]    ***   
       TRIP_ALGORI          ITRALG         NORMAL      [  0]    ***   
       UIJ_THRESHO          IUIJTH              1               ***   
       UNITS                IUNITS         ANGSTROM    [  0]    ***   
       UNOS                 IUNOS          OFF         [  0]    ***   
       UPDATE_HESS          IHUPDT         ON          [  1]    ***   
       VIBPHASE             ISETPH         STANDARD    [  0]    ***   
       VIBRATION            IVIB           ANALYTIC    [  1]    ***   
       VIB_ALGORIT          IGEALG         STANDARD    [  0]    ***   
       VNATORB              IVNORB         OFF         [  0]    ***   
       VTRAN                IVTRAN         FULL/PARTIAL[  0]    ***   
       XFIELD               IXEFLD              0             x 10-6  
       XFORM_TOL            IXFTOL          10D- 11             ***   
       YFIELD               IYEFLD              0             x 10-6  
       ZFIELD               IZEFLD            ***             x 10-6  
       ZSCALE_EXP           IZEXPS         OFF         [  0]    ***   
    -------------------------------------------------------------------
   2 entries found in Z-matrix 
   Job Title : Carbon Monoxide DBOC calculation                                                
   There are  1 unique internal coordinates.
   Of these,  0 will be optimized.
   User supplied Z-matrix: 
--------------------------------------------------------------------------------
       SYMBOL    BOND      LENGTH    ANGLE     ANGLE     DIHED     ANGLE
                  TO      (ANGST)    WRT      (DEG)      WRT      (DEG)
--------------------------------------------------------------------------------
        C    
        O          1         r    
                  *Initial values for internal coordinates* 
                      Name             Value
                        r               1.7068965517
--------------------------------------------------------------------------------
  read isotopes from ZMAT file 
   Rotational constants (in cm-1): 
          0.8067089854             0.8067089854
   Rotational constants (in MHz): 
      24184.5303502932         24184.5303502932
********************************************************************************
   The full molecular point group is CXv .
   The largest Abelian subgroup of the full molecular point group is C2v .
   The computational point group is C2v .
********************************************************************************
--------------------------------------------------------------------------------
   Analysis of internal coordinates specified by Z-matrix 
--------------------------------------------------------------------------------
   *The nuclear repulsion energy is   14.881101478787878 a.u.
   *There is   1 degree of freedom within the tot. symm. molecular subspace.
   *Z-matrix requests optimization of   0 coordinates.
   *The optimization is constrained.
   *The following   1 parameters can have non-zero 
    derivatives within the totally symmetric subspace:
             r    [ 1]
   *The following   0 parameters are to be optimized:

   *The following coordinates must be varied in an  unconstrained optimization.
             r    [ 1]
--------------------------------------------------------------------------------


 ----------------------------------------------------------------
         Coordinates used in calculation (QCOMP) 
 ----------------------------------------------------------------
 Z-matrix   Atomic            Coordinates (in bohr)
  Symbol    Number           X              Y              Z
 ----------------------------------------------------------------
     C         6        -0.00000000     0.00000000     1.77916409
     O         8         0.00000000     0.00000000    -1.44640359
 ----------------------------------------------------------------
 
   Interatomic distance matrix (Angstroms) 
 
                 C             O    
                [ 1]        [ 2]
  C    [ 1]     0.00000
  O    [ 2]     1.70690     0.00000
 rotcon2
   Rotational constants (in cm-1): 
          0.8067089854             0.0000000000
   Rotational constants (in MHz): 
      24184.5303502932             0.0000000000
  ECPDATA file not present.   Using default ECPDATA. 
  @GTFLGS-I, Hessian will be transformed to curvilinear coordinates.
  There are  218 basis functions.
 @CHECKOUT-I, Total execution time (CPU/WALL):        0.30/       0.39 seconds.
--executable xjoda finished with status     0 in        0.43 seconds (walltime).
 --invoking executable--
/nfs/workspaces/public/cfour_mpi/bin/xvmol
 SERIAL VERSION OF MOLECULE STARTED
********************************************************************************
                    INPUT FROM MOL FILE
********************************************************************************
INTGRL        1    0    1    0    0    0    0    0    0                         
         *** CFOUR Program System (Release V0.1) ***                            
Carbon Monoxide DBOC calculation                                                
    2    2 X  Y       0.10E-08              0    0                              
   9999.00      3.00                                                            
          6.00000000    1    5    1    1    1    1    1                         
C #1  -0.000000000000000   0.000000000000000   1.779164090547867                
   16    9                                                                      
   33980.0000000000       9.100000000000000E-005 -1.900000000000000E-005        
  0.000000000000000E+000  0.000000000000000E+000  0.000000000000000E+000        
  0.000000000000000E+000  0.000000000000000E+000  0.000000000000000E+000        
  0.000000000000000E+000                                                        
   5089.00000000000       7.040000000000000E-004 -1.510000000000000E-004        
  0.000000000000000E+000  0.000000000000000E+000  0.000000000000000E+000        
  0.000000000000000E+000  0.000000000000000E+000  0.000000000000000E+000        
  0.000000000000000E+000                                                        
   1157.00000000000       3.693000000000000E-003 -7.850000000000000E-004        
  0.000000000000000E+000  0.000000000000000E+000  0.000000000000000E+000        
  0.000000000000000E+000  0.000000000000000E+000  0.000000000000000E+000        
  0.000000000000000E+000                                                        
   326.600000000000       1.536000000000000E-002 -3.324000000000000E-003        
  0.000000000000000E+000  0.000000000000000E+000  0.000000000000000E+000        
  0.000000000000000E+000  0.000000000000000E+000  0.000000000000000E+000        
  0.000000000000000E+000                                                        
   106.100000000000       5.292900000000000E-002 -1.151200000000000E-002        
  0.000000000000000E+000  0.000000000000000E+000  0.000000000000000E+000        
  0.000000000000000E+000  0.000000000000000E+000  0.000000000000000E+000        
  0.000000000000000E+000                                                        
   38.1100000000000       0.147043000000000      -3.416000000000000E-002        
  0.000000000000000E+000  0.000000000000000E+000  0.000000000000000E+000        
  0.000000000000000E+000  0.000000000000000E+000  0.000000000000000E+000        
  0.000000000000000E+000                                                        
   14.7500000000000       0.305631000000000      -7.717300000000001E-002        
  0.000000000000000E+000  0.000000000000000E+000  0.000000000000000E+000        
  0.000000000000000E+000  0.000000000000000E+000  0.000000000000000E+000        
  0.000000000000000E+000                                                        
   6.03500000000000       0.399345000000000      -0.141493000000000             
  0.000000000000000E+000  0.000000000000000E+000  0.000000000000000E+000        
  0.000000000000000E+000  0.000000000000000E+000  0.000000000000000E+000        
  0.000000000000000E+000                                                        
   2.53000000000000       0.217051000000000      -0.118019000000000             
  0.000000000000000E+000  0.000000000000000E+000  0.000000000000000E+000        
  0.000000000000000E+000  0.000000000000000E+000  0.000000000000000E+000        
  0.000000000000000E+000                                                        
  0.735500000000000       1.589400000000000E-002  0.273806000000000             
   1.00000000000000       0.000000000000000E+000  0.000000000000000E+000        
  0.000000000000000E+000  0.000000000000000E+000  0.000000000000000E+000        
  0.000000000000000E+000                                                        
  0.290500000000000      -3.084000000000000E-003  0.586510000000000             
  0.000000000000000E+000   1.00000000000000       0.000000000000000E+000        
  0.000000000000000E+000  0.000000000000000E+000  0.000000000000000E+000        
  0.000000000000000E+000                                                        
  0.111100000000000       9.779999999999999E-004  0.285430000000000             
  0.000000000000000E+000  0.000000000000000E+000   1.00000000000000             
  0.000000000000000E+000  0.000000000000000E+000  0.000000000000000E+000        
  0.000000000000000E+000                                                        
   7.21600000000000       0.000000000000000E+000  0.000000000000000E+000        
  0.000000000000000E+000  0.000000000000000E+000  0.000000000000000E+000        
   1.00000000000000       0.000000000000000E+000  0.000000000000000E+000        
  0.000000000000000E+000                                                        
   19.5700000000000       0.000000000000000E+000  0.000000000000000E+000        
  0.000000000000000E+000  0.000000000000000E+000  0.000000000000000E+000        
  0.000000000000000E+000   1.00000000000000       0.000000000000000E+000        
  0.000000000000000E+000                                                        
   53.0730000000000       0.000000000000000E+000  0.000000000000000E+000        
  0.000000000000000E+000  0.000000000000000E+000  0.000000000000000E+000        
  0.000000000000000E+000  0.000000000000000E+000   1.00000000000000             
  0.000000000000000E+000                                                        
  4.145000000000000E-002  0.000000000000000E+000  0.000000000000000E+000        
  0.000000000000000E+000  0.000000000000000E+000  0.000000000000000E+000        
  0.000000000000000E+000  0.000000000000000E+000  0.000000000000000E+000        
   1.00000000000000                                                             
   10    8                                                                      
   34.5100000000000       5.378000000000000E-003  0.000000000000000E+000        
  0.000000000000000E+000  0.000000000000000E+000  0.000000000000000E+000        
  0.000000000000000E+000  0.000000000000000E+000  0.000000000000000E+000        
   7.91500000000000       3.613200000000000E-002  0.000000000000000E+000        
  0.000000000000000E+000  0.000000000000000E+000  0.000000000000000E+000        
  0.000000000000000E+000  0.000000000000000E+000  0.000000000000000E+000        
   2.36800000000000       0.142493000000000       0.000000000000000E+000        
  0.000000000000000E+000  0.000000000000000E+000  0.000000000000000E+000        
  0.000000000000000E+000  0.000000000000000E+000  0.000000000000000E+000        
  0.813200000000000       0.342150000000000        1.00000000000000             
  0.000000000000000E+000  0.000000000000000E+000  0.000000000000000E+000        
  0.000000000000000E+000  0.000000000000000E+000  0.000000000000000E+000        
  0.289000000000000       0.463864000000000       0.000000000000000E+000        
   1.00000000000000       0.000000000000000E+000  0.000000000000000E+000        
  0.000000000000000E+000  0.000000000000000E+000  0.000000000000000E+000        
  0.100700000000000       0.250028000000000       0.000000000000000E+000        
  0.000000000000000E+000   1.00000000000000       0.000000000000000E+000        
  0.000000000000000E+000  0.000000000000000E+000  0.000000000000000E+000        
   8.18200000000000       0.000000000000000E+000  0.000000000000000E+000        
  0.000000000000000E+000  0.000000000000000E+000   1.00000000000000             
  0.000000000000000E+000  0.000000000000000E+000  0.000000000000000E+000        
   24.1860000000000       0.000000000000000E+000  0.000000000000000E+000        
  0.000000000000000E+000  0.000000000000000E+000  0.000000000000000E+000        
   1.00000000000000       0.000000000000000E+000  0.000000000000000E+000        
   71.4940000000000       0.000000000000000E+000  0.000000000000000E+000        
  0.000000000000000E+000  0.000000000000000E+000  0.000000000000000E+000        
  0.000000000000000E+000   1.00000000000000       0.000000000000000E+000        
  3.218000000000000E-002  0.000000000000000E+000  0.000000000000000E+000        
  0.000000000000000E+000  0.000000000000000E+000  0.000000000000000E+000        
  0.000000000000000E+000  0.000000000000000E+000   1.00000000000000             
    6    6                                                                      
   1.84800000000000        1.00000000000000       0.000000000000000E+000        
  0.000000000000000E+000  0.000000000000000E+000  0.000000000000000E+000        
  0.000000000000000E+000                                                        
  0.649000000000000       0.000000000000000E+000   1.00000000000000             
  0.000000000000000E+000  0.000000000000000E+000  0.000000000000000E+000        
  0.000000000000000E+000                                                        
  0.228000000000000       0.000000000000000E+000  0.000000000000000E+000        
   1.00000000000000       0.000000000000000E+000  0.000000000000000E+000        
  0.000000000000000E+000                                                        
   8.65600000000000       0.000000000000000E+000  0.000000000000000E+000        
  0.000000000000000E+000   1.00000000000000       0.000000000000000E+000        
  0.000000000000000E+000                                                        
   33.2130000000000       0.000000000000000E+000  0.000000000000000E+000        
  0.000000000000000E+000  0.000000000000000E+000   1.00000000000000             
  0.000000000000000E+000                                                        
  7.660000000000000E-002  0.000000000000000E+000  0.000000000000000E+000        
  0.000000000000000E+000  0.000000000000000E+000  0.000000000000000E+000        
   1.00000000000000                                                             
    4    4                                                                      
   1.41900000000000        1.00000000000000       0.000000000000000E+000        
  0.000000000000000E+000  0.000000000000000E+000                                
  0.485000000000000       0.000000000000000E+000   1.00000000000000             
  0.000000000000000E+000  0.000000000000000E+000                                
   24.6940000000000       0.000000000000000E+000  0.000000000000000E+000        
   1.00000000000000       0.000000000000000E+000                                
  0.187000000000000       0.000000000000000E+000  0.000000000000000E+000        
  0.000000000000000E+000   1.00000000000000                                     
    2    2                                                                      
   1.01100000000000        1.00000000000000       0.000000000000000E+000        
  0.424000000000000       0.000000000000000E+000   1.00000000000000             
          8.00000000    1    5    1    1    1    1    1                         
O #2   0.000000000000000   0.000000000000000  -1.446403591281407                
   16    9                                                                      
   61420.0000000000       9.000000000000001E-005 -2.000000000000000E-005        
  0.000000000000000E+000  0.000000000000000E+000  0.000000000000000E+000        
  0.000000000000000E+000  0.000000000000000E+000  0.000000000000000E+000        
  0.000000000000000E+000                                                        
   9199.00000000000       6.980000000000001E-004 -1.590000000000000E-004        
  0.000000000000000E+000  0.000000000000000E+000  0.000000000000000E+000        
  0.000000000000000E+000  0.000000000000000E+000  0.000000000000000E+000        
  0.000000000000000E+000                                                        
   2091.00000000000       3.664000000000000E-003 -8.290000000000000E-004        
  0.000000000000000E+000  0.000000000000000E+000  0.000000000000000E+000        
  0.000000000000000E+000  0.000000000000000E+000  0.000000000000000E+000        
  0.000000000000000E+000                                                        
   590.900000000000       1.521800000000000E-002 -3.508000000000000E-003        
  0.000000000000000E+000  0.000000000000000E+000  0.000000000000000E+000        
  0.000000000000000E+000  0.000000000000000E+000  0.000000000000000E+000        
  0.000000000000000E+000                                                        
   192.300000000000       5.242300000000000E-002 -1.215600000000000E-002        
  0.000000000000000E+000  0.000000000000000E+000  0.000000000000000E+000        
  0.000000000000000E+000  0.000000000000000E+000  0.000000000000000E+000        
  0.000000000000000E+000                                                        
   69.3200000000000       0.145921000000000      -3.626100000000000E-002        
  0.000000000000000E+000  0.000000000000000E+000  0.000000000000000E+000        
  0.000000000000000E+000  0.000000000000000E+000  0.000000000000000E+000        
  0.000000000000000E+000                                                        
   26.9700000000000       0.305258000000000      -8.299200000000000E-002        
  0.000000000000000E+000  0.000000000000000E+000  0.000000000000000E+000        
  0.000000000000000E+000  0.000000000000000E+000  0.000000000000000E+000        
  0.000000000000000E+000                                                        
   11.1000000000000       0.398508000000000      -0.152090000000000             
  0.000000000000000E+000  0.000000000000000E+000  0.000000000000000E+000        
  0.000000000000000E+000  0.000000000000000E+000  0.000000000000000E+000        
  0.000000000000000E+000                                                        
   4.68200000000000       0.216980000000000      -0.115331000000000             
  0.000000000000000E+000  0.000000000000000E+000  0.000000000000000E+000        
  0.000000000000000E+000  0.000000000000000E+000  0.000000000000000E+000        
  0.000000000000000E+000                                                        
   1.42800000000000       1.759400000000000E-002  0.288979000000000             
   1.00000000000000       0.000000000000000E+000  0.000000000000000E+000        
  0.000000000000000E+000  0.000000000000000E+000  0.000000000000000E+000        
  0.000000000000000E+000                                                        
  0.554700000000000      -2.502000000000000E-003  0.586128000000000             
  0.000000000000000E+000   1.00000000000000       0.000000000000000E+000        
  0.000000000000000E+000  0.000000000000000E+000  0.000000000000000E+000        
  0.000000000000000E+000                                                        
  0.206700000000000       9.540000000000000E-004  0.277624000000000             
  0.000000000000000E+000  0.000000000000000E+000   1.00000000000000             
  0.000000000000000E+000  0.000000000000000E+000  0.000000000000000E+000        
  0.000000000000000E+000                                                        
   12.9740000000000       0.000000000000000E+000  0.000000000000000E+000        
  0.000000000000000E+000  0.000000000000000E+000  0.000000000000000E+000        
   1.00000000000000       0.000000000000000E+000  0.000000000000000E+000        
  0.000000000000000E+000                                                        
   34.9000000000000       0.000000000000000E+000  0.000000000000000E+000        
  0.000000000000000E+000  0.000000000000000E+000  0.000000000000000E+000        
  0.000000000000000E+000   1.00000000000000       0.000000000000000E+000        
  0.000000000000000E+000                                                        
   93.8810000000000       0.000000000000000E+000  0.000000000000000E+000        
  0.000000000000000E+000  0.000000000000000E+000  0.000000000000000E+000        
  0.000000000000000E+000  0.000000000000000E+000   1.00000000000000             
  0.000000000000000E+000                                                        
  6.959000000000000E-002  0.000000000000000E+000  0.000000000000000E+000        
  0.000000000000000E+000  0.000000000000000E+000  0.000000000000000E+000        
  0.000000000000000E+000  0.000000000000000E+000  0.000000000000000E+000        
   1.00000000000000                                                             
   10    8                                                                      
   63.4200000000000       6.044000000000000E-003  0.000000000000000E+000        
  0.000000000000000E+000  0.000000000000000E+000  0.000000000000000E+000        
  0.000000000000000E+000  0.000000000000000E+000  0.000000000000000E+000        
   14.6600000000000       4.179900000000000E-002  0.000000000000000E+000        
  0.000000000000000E+000  0.000000000000000E+000  0.000000000000000E+000        
  0.000000000000000E+000  0.000000000000000E+000  0.000000000000000E+000        
   4.45900000000000       0.161143000000000       0.000000000000000E+000        
  0.000000000000000E+000  0.000000000000000E+000  0.000000000000000E+000        
  0.000000000000000E+000  0.000000000000000E+000  0.000000000000000E+000        
   1.53100000000000       0.356731000000000        1.00000000000000             
  0.000000000000000E+000  0.000000000000000E+000  0.000000000000000E+000        
  0.000000000000000E+000  0.000000000000000E+000  0.000000000000000E+000        
  0.530200000000000       0.448309000000000       0.000000000000000E+000        
   1.00000000000000       0.000000000000000E+000  0.000000000000000E+000        
  0.000000000000000E+000  0.000000000000000E+000  0.000000000000000E+000        
  0.175000000000000       0.244940000000000       0.000000000000000E+000        
  0.000000000000000E+000   1.00000000000000       0.000000000000000E+000        
  0.000000000000000E+000  0.000000000000000E+000  0.000000000000000E+000        
   14.4750000000000       0.000000000000000E+000  0.000000000000000E+000        
  0.000000000000000E+000  0.000000000000000E+000   1.00000000000000             
  0.000000000000000E+000  0.000000000000000E+000  0.000000000000000E+000        
   42.7300000000000       0.000000000000000E+000  0.000000000000000E+000        
  0.000000000000000E+000  0.000000000000000E+000  0.000000000000000E+000        
   1.00000000000000       0.000000000000000E+000  0.000000000000000E+000        
   126.140000000000       0.000000000000000E+000  0.000000000000000E+000        
  0.000000000000000E+000  0.000000000000000E+000  0.000000000000000E+000        
  0.000000000000000E+000   1.00000000000000       0.000000000000000E+000        
  5.348000000000000E-002  0.000000000000000E+000  0.000000000000000E+000        
  0.000000000000000E+000  0.000000000000000E+000  0.000000000000000E+000        
  0.000000000000000E+000  0.000000000000000E+000   1.00000000000000             
    6    6                                                                      
   3.77500000000000        1.00000000000000       0.000000000000000E+000        
  0.000000000000000E+000  0.000000000000000E+000  0.000000000000000E+000        
  0.000000000000000E+000                                                        
   1.30000000000000       0.000000000000000E+000   1.00000000000000             
  0.000000000000000E+000  0.000000000000000E+000  0.000000000000000E+000        
  0.000000000000000E+000                                                        
  0.444000000000000       0.000000000000000E+000  0.000000000000000E+000        
   1.00000000000000       0.000000000000000E+000  0.000000000000000E+000        
  0.000000000000000E+000                                                        
   14.9270000000000       0.000000000000000E+000  0.000000000000000E+000        
  0.000000000000000E+000   1.00000000000000       0.000000000000000E+000        
  0.000000000000000E+000                                                        
   57.5440000000000       0.000000000000000E+000  0.000000000000000E+000        
  0.000000000000000E+000  0.000000000000000E+000   1.00000000000000             
  0.000000000000000E+000                                                        
  0.154000000000000       0.000000000000000E+000  0.000000000000000E+000        
  0.000000000000000E+000  0.000000000000000E+000  0.000000000000000E+000        
   1.00000000000000                                                             
    4    4                                                                      
   2.66600000000000        1.00000000000000       0.000000000000000E+000        
  0.000000000000000E+000  0.000000000000000E+000                                
  0.859000000000000       0.000000000000000E+000   1.00000000000000             
  0.000000000000000E+000  0.000000000000000E+000                                
   26.4830000000000       0.000000000000000E+000  0.000000000000000E+000        
   1.00000000000000       0.000000000000000E+000                                
  0.324000000000000       0.000000000000000E+000  0.000000000000000E+000        
  0.000000000000000E+000   1.00000000000000                                     
    2    2                                                                      
   1.84600000000000        1.00000000000000       0.000000000000000E+000        
  0.714000000000000       0.000000000000000E+000   1.00000000000000             
FINISH                                                                          
 
********************************************************************************
 ONE- AND TWO-ELECTRON INTEGRALS OVER SYMMETRY-ADAPTED AOS ARE CALCULATED.

  SPHERICAL HARMONICS ARE USED.
  
  INTEGRALS LESS THAN  0.10E-13 ARE NEGLECTED.

  NUCLEAR REPULSION ENERGY :   14.8811014788 A.U.
  @MOLECU-I, ONE ELECTRON INTEGRALS (CPU/WALL):        0.06/       0.09 SECONDS.
  @TWOEL-I,    4389535 INTEGRALS OF SYMMETRY TYPE  I I I I
  @TWOEL-I,   18944979 INTEGRALS OF SYMMETRY TYPE  I J I J
  @TWOEL-I,    9975521 INTEGRALS OF SYMMETRY TYPE  I I J J
  @TWOEL-I,   13988779 INTEGRALS OF SYMMETRY TYPE  I J K L
  @TWOEL-I, TOTAL NUMBER OF 2-E INTEGRALS   47298814.
  @MOLECU-I, TWO ELECTRON INTEGRALS (CPU/WALL):      254.31/      35.03 SECONDS.
 @CHECKOUT-I, Total execution time (CPU/WALL):      254.39/      35.15 seconds.

Running with 14 threads/proc

--executable xvmol finished with status     0 in       35.21 seconds (walltime).
 --invoking executable--
/nfs/workspaces/public/cfour_mpi/bin/xvmol2ja
 @GETMEM-I,  Allocated    3814 MB of main memory.
 @CHECKOUT-I, Total execution time (CPU/WALL):        0.28/       0.10 seconds.
--executable xvmol2ja finished with status     0 in        0.12 seconds (walltime).
 --invoking executable--
/nfs/workspaces/public/cfour_mpi/bin/xvprop
 @GETMEM-I,  Allocated    3814 MB of main memory.
   Property integrals will be calculated.
    --------------------------------------------------------------
                                   Property evaluated at 
    Property type                X             Y             Z
    --------------------------------------------------------------
    Dipole moment               ----          ----          ----  
    Quadrupole moment           ----          ----          ----  
    Octopole moment             ----          ----          ----  
    Relativisitic corr.         ----          ----          ----  
    Second moment            0.0000000     0.0000000     0.0000000
    Electron density         0.0000000     0.0000000     1.7791641
    Electron density         0.0000000     0.0000000    -1.4464036
    Field gradient           0.0000000     0.0000000     1.7791641
    Field gradient           0.0000000     0.0000000    -1.4464036
    Potential                0.0000000     0.0000000     1.7791641
    Potential                0.0000000     0.0000000    -1.4464036
    --------------------------------------------------------------
 @CHECKOUT-I, Total execution time (CPU/WALL):        1.43/       1.48 seconds.
--executable xvprop finished with status     0 in        1.51 seconds (walltime).
 --invoking executable--
/nfs/workspaces/public/cfour_mpi/bin/xvscf
  There are  218 functions in the AO basis.

  There are 4 irreducible representations.

       Irrep        # of functions
         1                 86
         2                 52
         3                 52
         4                 28


  Parameters for SCF calculation: 
        SCF reference function:  RHF  
  Maximum number of iterations:  150
     Full symmetry point group: CXv 
     Computational point group: C2v 
        Initial density matrix: MOREAD                 
     SCF convergence tolerance: 10**(-10)
  DIIS convergence acceleration:  ON
          Latest start for DIIS:   8
                     DIIS order:   6

  Memory information:    2523578 words required.
  Fock matrices are constructed from AO integral file.
 @GETMEM-I,  Allocated      19 MB of main memory.
  Initialization and symmetry analysis required      0.002 seconds.

  Adding electric field perturbation to one-electron Hamiltonian.
  Field direction     : Z
  Field strength      : -0.0002000 a.u.

  @INITGES-I, Occupancies from core Hamiltonian:

          Alpha population by irrep:   5    1    1    0
           Beta population by irrep:   5    1    1    0


 total no. of electrons in initial guess :  0.000000000000000E+000
  --------------------------------------------------------------------
  Iteration         Total Energy            Largest Density Difference
  --------------------------------------------------------------------
       0            14.880922229950940              0.0000000000D+00
   current occupation vector 
     5  1  1  0
     5  1  1  0
       1           -93.705805319454001              0.1756167973D+02
   current occupation vector 
     5  1  1  0
     5  1  1  0
       2           -97.740483693835031              0.1756167191D+02
   current occupation vector 
     5  1  1  0
     5  1  1  0
       3           -99.932494242054588              0.6931052410D+01
   current occupation vector 
     5  1  1  0
     5  1  1  0
       4           -94.519374231640853              0.6928961665D+01
   current occupation vector 
     5  1  1  0
     5  1  1  0
       5           -99.932406609385495              0.7051780482D+01
   current occupation vector 
     5  1  1  0
     5  1  1  0
       6           -94.406632719565735              0.7051889592D+01
   current occupation vector 
     5  1  1  0
     5  1  1  0
       7           -99.928736935102123              0.7057483744D+01
   current occupation vector 
     5  1  1  0
     5  1  1  0
       8           -94.403788667880391              0.7057489112D+01
   current occupation vector 
     5  1  1  0
     5  1  1  0
       9          -107.151736124246170              0.6043761302D+01
   current occupation vector 
     5  1  1  0
     5  1  1  0
      10          -110.566248517842112              0.1314793901D+01
   current occupation vector 
     5  1  1  0
     5  1  1  0
      11          -112.286646388452937              0.1018295015D+01
   current occupation vector 
     5  1  1  0
     5  1  1  0
      12          -112.417944473727829              0.5893462992D+00
   current occupation vector 
     5  1  1  0
     5  1  1  0
      13          -112.459878172904737              0.1391805538D+00
   current occupation vector 
     5  1  1  0
     5  1  1  0
      14          -112.471791707288233              0.1073803781D+00
   current occupation vector 
     5  1  1  0
     5  1  1  0
      15          -112.472815378955787              0.3932512065D-01
   current occupation vector 
     5  1  1  0
     5  1  1  0
      16          -112.473901758016353              0.6457986224D-01
   current occupation vector 
     5  1  1  0
     5  1  1  0
      17          -112.474503537403479              0.5764971990D-01
   current occupation vector 
     5  1  1  0
     5  1  1  0
      18          -112.474640501710098              0.3667226394D-01
   current occupation vector 
     5  1  1  0
     5  1  1  0
      19          -112.474641831391793              0.2616840308D-02
   current occupation vector 
     5  1  1  0
     5  1  1  0
      20          -112.474641866573791              0.6645851174D-03
   current occupation vector 
     5  1  1  0
     5  1  1  0
      21          -112.474641867506719              0.1277857133D-03
   current occupation vector 
     5  1  1  0
     5  1  1  0
      22          -112.474641867763197              0.5987285645D-04
   current occupation vector 
     5  1  1  0
     5  1  1  0
      23          -112.474641867763367              0.9484099043D-06
   current occupation vector 
     5  1  1  0
     5  1  1  0
      24          -112.474641867763367              0.4308178507D-06
   current occupation vector 
     5  1  1  0
     5  1  1  0
      25          -112.474641867762458              0.4951473531D-07
   current occupation vector 
     5  1  1  0
     5  1  1  0
      26          -112.474641867763921              0.4316724600D-07
   current occupation vector 
     5  1  1  0
     5  1  1  0
      27          -112.474641867763182              0.2209238215D-07
   current occupation vector 
     5  1  1  0
     5  1  1  0
      28          -112.474641867763509              0.9833969417D-08
   current occupation vector 
     5  1  1  0
     5  1  1  0
      29          -112.474641867764149              0.2595754722D-09
   current occupation vector 
     5  1  1  0
     5  1  1  0
      30          -112.474641867762912              0.2999345217D-09
   current occupation vector 
     5  1  1  0
     5  1  1  0

  SCF has converged.

 Density matrix saved to file den.dat
 total electron number:   14.0000000000001     
     E(SCF)=      -112.474641867763538              0.9579714799D-10

  Eigenvector printing suppressed.

 @PUTMOS-I, Writing converged MOs to NEWMOS. 
 @PUTMOS-I, Symmetry   1 Full Blocks 21 Partial Blocksize   2
 @PUTMOS-I, Symmetry   2 Full Blocks 13 Partial Blocksize   0
 @PUTMOS-I, Symmetry   3 Full Blocks 13 Partial Blocksize   0
 @PUTMOS-I, Symmetry   4 Full Blocks  7 Partial Blocksize   0
 @PUTFOCK-I, Writing converged Fock matrix to NEWFOCK. 
 @PUTFOCK-I, Symmetry   1 Full Blocks 21 Partial Blocksize   2
 @PUTFOCK-I, Symmetry   2 Full Blocks 13 Partial Blocksize   0
 @PUTFOCK-I, Symmetry   3 Full Blocks 13 Partial Blocksize   0
 @PUTFOCK-I, Symmetry   4 Full Blocks  7 Partial Blocksize   0


 
  ORBITAL EIGENVALUES (ALPHA)  (1H = 27.2113834 eV)

       MO #        E(hartree)               E(eV)           FULLSYM    COMPSYM
       ----   --------------------   --------------------   -------   ---------
    1     1         -20.6327757512        -561.4463715728     SG+        A1 (1)
    2     2         -11.5356193558        -313.9001610471     SG+        A1 (1)
    3     3          -1.2428937984         -33.8208596751     SG+        A1 (1)
    4     4          -0.8123007113         -22.1038260915     SG+        A1 (1)
    5     5          -0.5050297618         -13.7425584755     SG+        A1 (1)
    6   139          -0.4822330278         -13.1222278063      PI        B2 (3)
    7    87          -0.4822330278         -13.1222278063      PI        B1 (2)
  +++++++++++++++++++++++++++++++++++++++++++++++++++++++++++++++++++++++++++++
    8   140          -0.0224289466          -0.6103226641      PI        B2 (3)
    9    88          -0.0224289466          -0.6103226641      PI        B1 (2)
   10     6           0.0562813998           1.5314947472     SG+        A1 (1)
   11     7           0.0693692566           1.8876334367     SG+        A1 (1)
   12   141           0.0802431150           2.1835261663      PI        B2 (3)
   13    89           0.0802431150           2.1835261663      PI        B1 (2)
   14     8           0.1554228077           4.2292696098     SG+        A1 (1)
   15     9           0.1708670660           4.6495292438     SG+        A1 (1)
   16   142           0.1833311870           4.9886952188      PI        B2 (3)
   17    90           0.1833311870           4.9886952188      PI        B1 (2)
   18   191           0.2195729198           5.9748829042      DE        A2 (4)
   19    10           0.2195729198           5.9748829042      DE        A1 (1)
   20    91           0.2798857026           7.6160771619      PI        B1 (2)
   21   143           0.2798857026           7.6160771619      PI        B2 (3)
   22    11           0.2904268424           7.9029161570     SG+        A1 (1)
   23    12           0.3049176096           8.2972299791     SG+        A1 (1)
   24    92           0.4084855223          11.1154561616      PI        B1 (2)
   25   144           0.4084855223          11.1154561616      PI        B2 (3)
   26    13           0.4094165547          11.1407908413     SG+        A1 (1)
   27    14           0.5155911055          14.0299472504     SG+        A1 (1)
   28    15           0.5508554188          14.9895380000      DE        A1 (1)
   29   192           0.5508554188          14.9895380000      DE        A2 (4)
   30    93           0.6240339037          16.9808258090      PI        B1 (2)
   31   145           0.6240339037          16.9808258090      PI        B2 (3)
   32    16           0.6985132429          19.0075116618     SG+        A1 (1)
   33    94           0.7258131169          19.7503790000      PH        B1 (2)
   34   146           0.7258131169          19.7503790000      PH        B2 (3)
   35    17           0.7318965027          19.9159163449      DE        A1 (1)
   36   193           0.7318965027          19.9159163449      DE        A2 (4)
   37    95           0.7687076103          20.9175975077      PI        B1 (2)
   38   147           0.7687076103          20.9175975077      PI        B2 (3)
   39    18           0.8085040388          22.0005133802     SG+        A1 (1)
   40    19           0.8492270088          23.1086417294      DE        A1 (1)
   41   194           0.8492270088          23.1086417294      DE        A2 (4)
   42   148           0.8670395280          23.5933450186      PI        B2 (3)
   43    96           0.8670395280          23.5933450186      PI        B1 (2)
   44    20           0.9029964650          24.5717830177     SG+        A1 (1)
   45    97           1.0529964828          28.6534910130      PI        B1 (2)
   46   149           1.0529964828          28.6534910130      PI        B2 (3)
   47    21           1.1465038619          31.1979561552     SG+        A1 (1)
   48    22           1.3303842194          36.2015950627     SG+        A1 (1)
   49    98           1.4189003396          38.6102411472      PH        B1 (2)
   50   150           1.4189003396          38.6102411472      PH        B2 (3)
   51   151           1.4577803279          39.6682194166      PI        B2 (3)
   52    99           1.4577803279          39.6682194166      PI        B1 (2)
   53    23           1.5776900156          42.9311279016     SG+        A1 (1)
   54   195           1.5877640498          43.2052563086      DE        A2 (4)
   55    24           1.5877640498          43.2052563086      DE        A1 (1)
   56   100           1.6414592999          44.6663783458      PI        B1 (2)
   57   152           1.6414592999          44.6663783458      PI        B2 (3)
   58    25           1.6606195104          45.1877541798      DE        A1 (1)
   59   196           1.6606195104          45.1877541798      DE        A2 (4)
   60    26           1.8833964724          51.2498235049     SG+        A1 (1)
   61    27           1.9216655227          52.2911773051     SG+        A1 (1)
   62   101           2.0281645946          55.1891643821      PI        B1 (2)
   63   153           2.0281645946          55.1891643821      PI        B2 (3)
   64   197           2.0574165636          55.9851509264      PI        A2 (4)
   65    28           2.0574165636          55.9851509264      PI        A1 (1)
   66    29           2.1146614128          57.5428624657      DE        A1 (1)
   67   198           2.1146614128          57.5428624657      DE        A2 (4)
   68   154           2.1717431916          59.0961366330      PH        B2 (3)
   69   102           2.1717431916          59.0961366330      PH        B1 (2)
   70   103           2.1972549522          59.7903469331      PH        B1 (2)
   71   155           2.1972549522          59.7903469331      PH        B2 (3)
   72   156           2.2027412403          59.9396364207      PI        B2 (3)
   73   104           2.2027412403          59.9396364207      PI        B1 (2)
   74    30           2.2179513191          60.3535237058     SG+        A1 (1)
   75    31           2.2686191322          61.7322649953      DE        A1 (1)
   76   199           2.2686191322          61.7322649953      DE        A2 (4)
   77    32           2.3591464779          64.1956393061     SG+        A1 (1)
   78   105           2.4718255962          67.2617939966      PI        B1 (2)
   79   157           2.4718255962          67.2617939966      PI        B2 (3)
   80    33           2.5632641689          69.7499640541      DE        A1 (1)
   81   200           2.5632641689          69.7499640541      DE        A2 (4)
   82   158           2.6317636487          71.6139296637      PI        B2 (3)
   83   106           2.6317636487          71.6139296637      PI        B1 (2)
   84    34           2.6577945194          72.3222656665     SG+        A1 (1)
   85    35           2.8037158743          76.2929876007     SG+        A1 (1)
   86   159           3.2743035194          89.0983284346      PI        B2 (3)
   87   107           3.2743035194          89.0983284346      PI        B1 (2)
   88   201           3.7199245666         101.2242936010      PI        A2 (4)
   89    36           3.7199245666         101.2242936010      PI        A1 (1)
   90    37           3.8130172922         103.7574754495     SG+        A1 (1)
   91   160           3.8668729924         105.2229635561      PH        B2 (3)
   92   108           3.8668729924         105.2229635561      PH        B1 (2)
   93    38           4.0611372668         110.5091632073     SG+        A1 (1)
   94    39           4.1389156462         112.6256205085      DE        A1 (1)
   95   202           4.1389156462         112.6256205085      DE        A2 (4)
   96   161           4.1428903639         112.7337780772      PI        B2 (3)
   97   109           4.1428903639         112.7337780772      PI        B1 (2)
   98   162           4.1502378066         112.9337121560      PH        B2 (3)
   99   110           4.1502378066         112.9337121560      PH        B1 (2)
  100    40           4.3103576136         117.2907936143      DE        A1 (1)
  101   203           4.3103576136         117.2907936143      DE        A2 (4)
  102    41           4.3214294125         117.5920725797     SG+        A1 (1)
  103   111           4.4736699563         121.7347483855      PI        B1 (2)
  104   163           4.4736699563         121.7347483855      PI        B2 (3)
  105   204           4.5797853838         124.6222959694      DE        A2 (4)
  106    42           4.5797853838         124.6222959694      DE        A1 (1)
  107    43           4.8780862341         132.7394747757     SG+        A1 (1)
  108   164           5.0311318108         136.9040566406      PI        B2 (3)
  109   112           5.0311318108         136.9040566406      PI        B1 (2)
  110    44           5.0710468896         137.9902011520     SG+        A1 (1)
  111   165           5.3556821902         145.7355214465      PI        B2 (3)
  112   113           5.3556821902         145.7355214465      PI        B1 (2)
  113   205           5.8091495156         158.0749946957      PI        A2 (4)
  114    45           5.8091495156         158.0749946957      PI        A1 (1)
  115   166           5.8799733095         160.0022081058      PH        B2 (3)
  116   114           5.8799733095         160.0022081058      PH        B1 (2)
  117    46           5.9514551292         161.9473273078     SG+        A1 (1)
  118    47           6.0383707806         164.3124224229      DE        A1 (1)
  119   206           6.0383707806         164.3124224229      DE        A2 (4)
  120   167           6.1001428383         165.9933255690      PI        B2 (3)
  121   115           6.1001428383         165.9933255690      PI        B1 (2)
  122    48           6.1395957944         167.0668950812     SG+        A1 (1)
  123    49           6.2461989599         169.9677146908      DE        A1 (1)
  124   207           6.2461989599         169.9677146908      DE        A2 (4)
  125   168           6.3333691266         172.3397355173      PH        B2 (3)
  126   116           6.3333691266         172.3397355173      PH        B1 (2)
  127    50           6.4629080255         175.8646681595      DE        A1 (1)
  128   208           6.4629080255         175.8646681595      DE        A2 (4)
  129   169           6.6953628170         182.1900846144      PI        B2 (3)
  130   117           6.6953628170         182.1900846144      PI        B1 (2)
  131   170           7.0026103717         190.5507156252      PI        B2 (3)
  132   118           7.0026103717         190.5507156252      PI        B1 (2)
  133    51           7.0528562527         191.9179755584     SG+        A1 (1)
  134    52           7.4664443951         203.1722810705     SG+        A1 (1)
  135    53           9.3287657033         253.8486202008     SG+        A1 (1)
  136   171           9.6058012276         261.3871400696      PI        B2 (3)
  137   119           9.6058012277         261.3871400698      PI        B1 (2)
  138    54          10.6582243987         290.0250304756     SG+        A1 (1)
  139   209          10.6781188406         290.5663857636      PI        A2 (4)
  140    55          10.6781188406         290.5663857636      PI        A1 (1)
  141   172          10.7260211909         291.8698749825      PH        B2 (3)
  142   120          10.7260211909         291.8698749825      PH        B1 (2)
  143    56          10.9240076504         297.2573604397      DE        A1 (1)
  144   210          10.9240076504         297.2573604397      DE        A2 (4)
  145   173          10.9956206038         299.2060479708      PI        B2 (3)
  146   121          10.9956206038         299.2060479708      PI        B1 (2)
  147    57          11.1129506639         302.3987612207     SG+        A1 (1)
  148   174          11.9129765395         324.1685720503      PH        B2 (3)
  149   122          11.9129765395         324.1685720503      PH        B1 (2)
  150   211          11.9747328747         325.8490473661      DE        A2 (4)
  151    58          11.9747328747         325.8490473667      DE        A1 (1)
  152   175          12.1977218123         331.9168848423      PI        B2 (3)
  153   123          12.1977218123         331.9168848423      PI        B1 (2)
  154    59          12.4792183364         339.5767946845     SG+        A1 (1)
  155   212          12.7237458651         346.2307270190      DE        A2 (4)
  156    60          12.7237458651         346.2307270190      DE        A1 (1)
  157   176          13.0960113661         356.3605862934      PI        B2 (3)
  158   124          13.0960113661         356.3605862934      PI        B1 (2)
  159    61          13.3285266505         362.6876488438     SG+        A1 (1)
  160    62          17.1976179099         467.9709745127     SG+        A1 (1)
  161   177          18.6629564018         507.8448620262      PI        B2 (3)
  162   125          18.6629564018         507.8448620264      PI        B1 (2)
  163    63          19.3958490272         527.7878842482     SG+        A1 (1)
  164    64          26.2326668773         713.8271560031      DE        A1 (1)
  165   213          26.2326668773         713.8271560031      DE        A2 (4)
  166   178          26.4504473235         719.7532632213      PI        B2 (3)
  167   126          26.4504473235         719.7532632213      PI        B1 (2)
  168    65          26.8671434744         731.0921419457     SG+        A1 (1)
  169   179          33.3389685050         907.1994541492      PI        B2 (3)
  170   127          33.3389685050         907.1994541499      PI        B1 (2)
  171    66          34.1678995013         929.7558133022     SG+        A1 (1)
  172    67          35.4977034804         965.9416192259     SG+        A1 (1)
  173   214          47.0814294496        1281.1508277736      DE        A2 (4)
  174    68          47.0814294496        1281.1508277736      DE        A1 (1)
  175   180          47.2611558641        1286.0414321463      PI        B2 (3)
  176   128          47.2611558641        1286.0414321463      PI        B1 (2)
  177    69          47.4012658529        1289.8540187688     SG+        A1 (1)
  178    70          63.6439547323        1731.8400533136     SG+        A1 (1)
  179   181          66.2582158586        1802.9777151277      PI        B2 (3)
  180   129          66.2582158586        1802.9777151278      PI        B1 (2)
  181    71          66.8067274583        1817.9034745659     SG+        A1 (1)
  182   182          98.4915833432        2680.0922360242      PH        B2 (3)
  183   130          98.4915833432        2680.0922360242      PH        B1 (2)
  184   215          98.5066594911        2680.5024788646      DE        A2 (4)
  185    72          98.5066594911        2680.5024788646      DE        A1 (1)
  186   183          98.5204903353        2680.8788352703      PI        B2 (3)
  187   131          98.5204903353        2680.8788352703      PI        B1 (2)
  188    73          98.5274589196        2681.0684600898     SG+        A1 (1)
  189    74         103.3213219157        2811.5161040420      DE        A1 (1)
  190   216         103.3213219158        2811.5161040443      DE        A2 (4)
  191   184         103.3311412069        2811.7833005418      PH        B2 (3)
  192   132         103.3311412069        2811.7833005418      PH        B1 (2)
  193   133         103.3315660031        2811.7948598333      PI        B1 (2)
  194   185         103.3315660031        2811.7948598333      PI        B2 (3)
  195    75         103.3433064016        2812.1143323186     SG+        A1 (1)
  196   217         114.9409101533        3127.7011745266      DE        A2 (4)
  197    76         114.9409101533        3127.7011745266      DE        A1 (1)
  198   186         115.0475497721        3130.6029860782      PI        B2 (3)
  199   134         115.0475497721        3130.6029860782      PI        B1 (2)
  200    77         115.2226629884        3135.3680589451     SG+        A1 (1)
  201   187         116.6597723080        3174.4737916300      PI        B2 (3)
  202   135         116.6597723080        3174.4737916305      PI        B1 (2)
  203    78         117.3560149817        3193.4195179628     SG+        A1 (1)
  204    79         121.7662797690        3313.4289239866     SG+        A1 (1)
  205   218         198.5661048101        5403.2584082316      DE        A2 (4)
  206    80         198.5661048101        5403.2584082317      DE        A1 (1)
  207   136         198.6639156254        5405.9199758268      PI        B1 (2)
  208   188         198.6639156254        5405.9199758269      PI        B2 (3)
  209    81         198.7378787126        5407.9326137508     SG+        A1 (1)
  210    82         216.1768214150        5882.4703697170     SG+        A1 (1)
  211   189         224.7474651717        6115.6894429666      PI        B2 (3)
  212   137         224.7474651718        6115.6894429667      PI        B1 (2)
  213    83         225.1807760174        6127.4804305184     SG+        A1 (1)
  214   190         395.2112416397       10754.2446202469      PI        B2 (3)
  215   138         395.2112416397       10754.2446202474      PI        B1 (2)
  216    84         395.7420317427       10768.6881532446     SG+        A1 (1)
  217    85         508.5217723905       13837.5809157667     SG+        A1 (1)
  218    86         894.9876169402       24353.8511828121     SG+        A1 (1)


  VSCF finished.

 @CHECKOUT-I, Total execution time (CPU/WALL):       58.73/      14.01 seconds.
--executable xvscf finished with status     0 in       14.04 seconds (walltime).
 --invoking executable--
/nfs/workspaces/public/cfour_mpi/bin/xvtran
 @GETMEM-I,  Allocated    3814 MB of main memory.
  Full RHF integral transformation
  Transformation of IIII integrals :
  1 pass through the AO integral file was required.
     4389535 AO integrals were read.
     8569224 MO integrals were written to HF2.
  Transformation of IIJJ integrals :
  1 pass through the AO integral file was required.
     9975521 AO integrals were read.
    14349396 MO integrals were written to HF2.
  Transformation of IJIJ integrals :
  1 pass through the AO integral file was required.
    18944979 AO integrals were read.
    26682688 MO integrals were written to HF2.
  Transformation of IJKL integrals :
  1 pass through the AO integral file was required.
    13988779 AO integrals were read.
    18077064 MO integrals were written to HF2.
  Summary of active molecular orbitals: 
------------------------------------------------------------------------
 
  Index      Eigenvalue    Symmetry    Index      Eigenvalue    Symmetry
------------------------------------------------------------------------
     1       -20.6327758        1       110         4.1428904        2
     2       -11.5356194        1       111         4.1502378        2
     3        -1.2428938        1       112         4.4736700        2
     4        -0.8123007        1       113         5.0311318        2
     5        -0.5050298        1       114         5.3556822        2
     6        -0.4822330        2       115         5.8799733        2
     7        -0.4822330        3       116         6.1001428        2
     8         0.0562814        1       117         6.3333691        2
     9         0.0693693        1       118         6.6953628        2
    10         0.1554228        1       119         7.0026104        2
    11         0.1708671        1       120         9.6058012        2
    12         0.2195729        1       121        10.7260212        2
    13         0.2904268        1       122        10.9956206        2
    14         0.3049176        1       123        11.9129765        2
    15         0.4094166        1       124        12.1977218        2
    16         0.5155911        1       125        13.0960114        2
    17         0.5508554        1       126        18.6629564        2
    18         0.6985132        1       127        26.4504473        2
    19         0.7318965        1       128        33.3389685        2
    20         0.8085040        1       129        47.2611559        2
    21         0.8492270        1       130        66.2582159        2
    22         0.9029965        1       131        98.4915833        2
    23         1.1465039        1       132        98.5204903        2
    24         1.3303842        1       133       103.3311412        2
    25         1.5776900        1       134       103.3315660        2
    26         1.5877640        1       135       115.0475498        2
    27         1.6606195        1       136       116.6597723        2
    28         1.8833965        1       137       198.6639156        2
    29         1.9216655        1       138       224.7474652        2
    30         2.0574166        1       139       395.2112416        2
    31         2.1146614        1       140        -0.0224289        3
    32         2.2179513        1       141         0.0802431        3
    33         2.2686191        1       142         0.1833312        3
    34         2.3591465        1       143         0.2798857        3
    35         2.5632642        1       144         0.4084855        3
    36         2.6577945        1       145         0.6240339        3
    37         2.8037159        1       146         0.7258131        3
    38         3.7199246        1       147         0.7687076        3
    39         3.8130173        1       148         0.8670395        3
    40         4.0611373        1       149         1.0529965        3
    41         4.1389156        1       150         1.4189003        3
    42         4.3103576        1       151         1.4577803        3
    43         4.3214294        1       152         1.6414593        3
    44         4.5797854        1       153         2.0281646        3
    45         4.8780862        1       154         2.1717432        3
    46         5.0710469        1       155         2.1972550        3
    47         5.8091495        1       156         2.2027412        3
    48         5.9514551        1       157         2.4718256        3
    49         6.0383708        1       158         2.6317636        3
    50         6.1395958        1       159         3.2743035        3
    51         6.2461990        1       160         3.8668730        3
    52         6.4629080        1       161         4.1428904        3
    53         7.0528563        1       162         4.1502378        3
    54         7.4664444        1       163         4.4736700        3
    55         9.3287657        1       164         5.0311318        3
    56        10.6582244        1       165         5.3556822        3
    57        10.6781188        1       166         5.8799733        3
    58        10.9240077        1       167         6.1001428        3
    59        11.1129507        1       168         6.3333691        3
    60        11.9747329        1       169         6.6953628        3
    61        12.4792183        1       170         7.0026104        3
    62        12.7237459        1       171         9.6058012        3
    63        13.3285267        1       172        10.7260212        3
    64        17.1976179        1       173        10.9956206        3
    65        19.3958490        1       174        11.9129765        3
    66        26.2326669        1       175        12.1977218        3
    67        26.8671435        1       176        13.0960114        3
    68        34.1678995        1       177        18.6629564        3
    69        35.4977035        1       178        26.4504473        3
    70        47.0814294        1       179        33.3389685        3
    71        47.4012659        1       180        47.2611559        3
    72        63.6439547        1       181        66.2582159        3
    73        66.8067275        1       182        98.4915833        3
    74        98.5066595        1       183        98.5204903        3
    75        98.5274589        1       184       103.3311412        3
    76       103.3213219        1       185       103.3315660        3
    77       103.3433064        1       186       115.0475498        3
    78       114.9409102        1       187       116.6597723        3
    79       115.2226630        1       188       198.6639156        3
    80       117.3560150        1       189       224.7474652        3
    81       121.7662798        1       190       395.2112416        3
    82       198.5661048        1       191         0.2195729        4
    83       198.7378787        1       192         0.5508554        4
    84       216.1768214        1       193         0.7318965        4
    85       225.1807760        1       194         0.8492270        4
    86       395.7420317        1       195         1.5877640        4
    87       508.5217724        1       196         1.6606195        4
    88       894.9876169        1       197         2.0574166        4
    89        -0.0224289        2       198         2.1146614        4
    90         0.0802431        2       199         2.2686191        4
    91         0.1833312        2       200         2.5632642        4
    92         0.2798857        2       201         3.7199246        4
    93         0.4084855        2       202         4.1389156        4
    94         0.6240339        2       203         4.3103576        4
    95         0.7258131        2       204         4.5797854        4
    96         0.7687076        2       205         5.8091495        4
    97         0.8670395        2       206         6.0383708        4
    98         1.0529965        2       207         6.2461990        4
    99         1.4189003        2       208         6.4629080        4
   100         1.4577803        2       209        10.6781188        4
   101         1.6414593        2       210        10.9240077        4
   102         2.0281646        2       211        11.9747329        4
   103         2.1717432        2       212        12.7237459        4
   104         2.1972550        2       213        26.2326669        4
   105         2.2027412        2       214        47.0814294        4
   106         2.4718256        2       215        98.5066595        4
   107         2.6317636        2       216       103.3213219        4
   108         3.2743035        2       217       114.9409102        4
   109         3.8668730        2       218       198.5661048        4
------------------------------------------------------------------------
  -20.6327757512230       -11.5356193557995       -1.24289379844843     
 -0.812300711308672      -0.505029761755305      -0.482233027750989     
 -0.482233027750992       5.628139976049133E-002  6.936925656984712E-002
  0.155422807714605       0.170867066016977       0.219572919773274     
  0.290426842356669       0.304917609559392       0.409416554739481     
  0.515591105535694       0.550855418840547       0.698513242873056     
  0.731896502728454       0.808504038800495       0.849227008774542     
  0.902996464992078        1.14650386188029        1.33038421937286     
   1.57769001562794        1.58776404982712        1.66061951042807     
   1.88339647240710        1.92166552271449        2.05741656362866     
   2.11466141283134        2.21795131907293        2.26861913221500     
   2.35914647787187        2.56326416885226        2.65779451942482     
   2.80371587431651        3.71992456660678        3.81301729222227     
   4.06113726681363        4.13891564618154        4.31035761358195     
   4.32142941250447        4.57978538384169        4.87808623414937     
   5.07104688958980        5.80914951555672        5.95145512917292     
[...]
 Convergence information after    19 iterations: 
 Largest element of residual vector :  0.23442916E-06.
 Largest element of DIIS residual   : -0.11030451E-06.
 Convergence information after    20 iterations: 
 Largest element of residual vector : -0.10080027E-06.
 Largest element of DIIS residual   : -0.55563809E-07.
 Perturbed amplitude equations converged in    20 iterations.
  Dominant contributions to perturbed wavefunction:
    7    0   46    0   0.2275763544 AA  
    7    7  140   22  -0.2222940586 ABAB
    7    7   22  140  -0.2222940586 ABAB
    7    0   22    0   0.2200199345 AA  
    7    0   36    0   0.2175345078 AA  
    7    0   28    0   0.1938985633 AA  
    7    7  140   32  -0.1839554428 ABAB
    7    7   32  140  -0.1839554428 ABAB
    7    7  140   45  -0.1812889647 ABAB
    7    7   45  140  -0.1812889647 ABAB
    7    0   32    0   0.1714202272 AA  
    7    0   25    0  -0.1687951328 AA  
    7    7  140   46  -0.1677177057 ABAB
    7    7   46  140  -0.1677177057 ABAB
    7    0   39    0   0.1653410940 AA  
    7    7  140   28  -0.1590119643 ABAB
    7    7   28  140  -0.1590119643 ABAB
    7    0   56    0   0.1582698651 AA  
    7    0   54    0  -0.1575638192 AA  
    7    0   16    0  -0.1572921691 AA  
  norm of converged amps    1.57908360156921     
 Starting iterative solution of the perturbed Lambda equations.
 The DIIS procedure is used to accelerate convergence.
 Convergence criterion is 10**(-7).
 Maximum number of iterations is 100.
 Convergence information after     1 iterations: 
 Largest element of residual vector :  0.77485114E-01.
 Largest element of DIIS residual   :  0.77485114E-01.
 Convergence information after     2 iterations: 
 Largest element of residual vector : -0.17429921E-01.
 Largest element of DIIS residual   :  0.14504450E-01.
 Convergence information after     3 iterations: 
 Largest element of residual vector :  0.62034448E-02.
 Largest element of DIIS residual   :  0.59263021E-02.
 Convergence information after     4 iterations: 
 Largest element of residual vector :  0.32656885E-02.
 Largest element of DIIS residual   :  0.30827290E-02.
 Convergence information after     5 iterations: 
 Largest element of residual vector :  0.31763847E-02.
 Largest element of DIIS residual   :  0.27707690E-02.
 Convergence information after     6 iterations: 
 Largest element of residual vector :  0.18705167E-02.
 Largest element of DIIS residual   :  0.88811569E-03.
 Convergence information after     7 iterations: 
 Largest element of residual vector :  0.96568268E-03.
 Largest element of DIIS residual   :  0.47730418E-03.
 Convergence information after     8 iterations: 
 Largest element of residual vector :  0.36696847E-03.
 Largest element of DIIS residual   : -0.19693961E-03.
 Convergence information after     9 iterations: 
 Largest element of residual vector :  0.15953795E-03.
 Largest element of DIIS residual   : -0.10153914E-03.
 Convergence information after    10 iterations: 
 Largest element of residual vector :  0.10157453E-03.
 Largest element of DIIS residual   : -0.69440636E-04.
 Convergence information after    11 iterations: 
 Largest element of residual vector : -0.38044519E-04.
 Largest element of DIIS residual   : -0.13576434E-04.
 Convergence information after    12 iterations: 
 Largest element of residual vector :  0.18507623E-04.
 Largest element of DIIS residual   :  0.97948829E-05.
 Convergence information after    13 iterations: 
 Largest element of residual vector :  0.49614988E-05.
 Largest element of DIIS residual   :  0.41804146E-05.
 Convergence information after    14 iterations: 
 Largest element of residual vector :  0.51784655E-05.
 Largest element of DIIS residual   :  0.26965215E-05.
 Convergence information after    15 iterations: 
 Largest element of residual vector :  0.28610513E-05.
 Largest element of DIIS residual   :  0.13870508E-05.
 Convergence information after    16 iterations: 
 Largest element of residual vector :  0.11709138E-05.
 Largest element of DIIS residual   :  0.32812288E-06.
 Convergence information after    17 iterations: 
 Largest element of residual vector :  0.60134839E-06.
 Largest element of DIIS residual   :  0.27881714E-06.
 Convergence information after    18 iterations: 
 Largest element of residual vector :  0.11905173E-06.
 Largest element of DIIS residual   : -0.10462392E-06.
 Convergence information after    19 iterations: 
 Largest element of residual vector :  0.10812711E-06.
 Largest element of DIIS residual   : -0.46002947E-07.
 Perturbed Lambda equations converged in    19 iterations.
  Dominant contributions to perturbed wavefunction:
    7    7  140   22  -0.1631120416 ABAB
    7    7   22  140  -0.1631120416 ABAB
    7    7  140   45  -0.1360147531 ABAB
    7    7   45  140  -0.1360147531 ABAB
    7    7  140   32  -0.1358253392 ABAB
    7    7   32  140  -0.1358253392 ABAB
    7    7  140   46  -0.1173327209 ABAB
    7    7   46  140  -0.1173327209 ABAB
    7    7  140   39  -0.1137468022 ABAB
    7    7   39  140  -0.1137468022 ABAB
    7    7  140   28  -0.1135752683 ABAB
    7    7   28  140  -0.1135752683 ABAB
    7    7  140   56  -0.1092136951 ABAB
    7    7   56  140  -0.1092136951 ABAB
    7    7  140   36  -0.1076885430 ABAB
    7    7   36  140  -0.1076885430 ABAB
    7    6   22   89  -0.1015414363 ABAB
    6    7   89   22  -0.1015414363 ABAB
    7    7  140   16   0.1010890750 ABAB
    7    7   16  140   0.1010890750 ABAB
        The DBOC first-order density matrix is being calculated 
             (Symmetry block 3, perturbation   2)
 term   2.58619238994509     
 final tnorm  0.718101594351473     
  norm contr. I: |<0|L dT/dx|0>|^2   0.000000000000000E+000
  norm contr. II: <0|[nabla(1+L)e-T][nabla e^T]|0>   2.58619238994509     
  total norm contribution   2.58619238994509     
 oo  1.181769586363392E-002
 vv  -19.3301536387208     
 vo  2.190436871460804E-002
  Correlated perturbed 1-el contribution to DBOC  -19.2964315741426       cm**-1
  SUM_I |dc_I/dx|^2 contribution to DBOC   9.73626333704723       cm**-1
 
 
  The total diagonal Born-Oppenheimer correction (DBOC) is:      0.0040080361 a.u.
  The total diagonal Born-Oppenheimer correction (DBOC) is:        879.662254 cm-1
 
 Total CC energy including DBOC  -113.027602093491     
 First-order density matrix is being calculated  (Symmetry block 3, perturbation   2)
 Calculation of the contributions of <pq||rs> to dI(i,j)/dx required   4.7 seconds.
 Calculation of the contributions of <pq||rs> to dI(a,b)/dx required  16.4 seconds.
 Calculation of the contributions of <pq||rs> to dI(i,a)/dx required   9.5 seconds.
 First-order Z-vector equations are solved for 1 perturbation.
 Convergence reached after  20 iterations.
        U*G(pq,rs) contribution is being calculated
             (Symmetry block 3, perturbation   2)

 CCSD contribution to force constants 

        0.0000000000        0.0000000000        0.0000000000
        0.0000000000        0.0000000000        0.0000000000
        0.0000000000        0.0000000000        0.0000000000
        0.0000000000        0.0000000000        0.0000000000
        0.0000000000        0.0000000000        0.0000000000
        0.0000000000        0.0000000000        0.0000000000
        0.0000000000        0.0000000000        0.0000000000
        0.0000000000        0.0000000000        0.0000000000
        0.0000000000        0.0000000000        0.0000000000
        0.0000000000        0.0000000000        0.0000000000
        0.0000000000        0.0000000000        0.0000000000
        0.0000000000       -8.4809022516        8.4809022516

 CCSD contribution to dipole derivatives 

        0.0000000000        0.0000000000        0.0000000000
        0.0000000000        0.0000000000        0.0000000000
        0.0000000000        0.0000000000        0.0000000000
        0.0000000000        0.0000000000       -0.0566277996
        0.0000000000        0.0000000000        0.0000000000
        0.0000000000        0.0000000000        0.0000000000
 @CHECKOUT-I, Total execution time (CPU/WALL):     1397.49/     551.77 seconds.
--executable xsdcc finished with status     0 in      552.01 seconds (walltime).
 --invoking executable--
/nfs/workspaces/public/cfour_mpi/bin/xanti
 @GETMEM-I,  Allocated    3814 MB of main memory.
 CCSD MO derivative gammas will be sorted to Mulliken order.
 @CHECKOUT-I, Total execution time (CPU/WALL):       12.64/      30.73 seconds.
--executable xanti finished with status     0 in       30.88 seconds (walltime).
 --invoking executable--
/nfs/workspaces/public/cfour_mpi/bin/xbcktrn
 @GETMEM-I,  Allocated    3814 MB of main memory.
 CCSD MO derivative gammas will be transformed to the AO basis.
 @CHECKOUT-I, Total execution time (CPU/WALL):       29.31/       5.91 seconds.
--executable xbcktrn finished with status     0 in        5.98 seconds (walltime).
 --invoking executable--
/nfs/workspaces/public/cfour_mpi/bin/xvdint
 @GETMEM-I,  Allocated    3814 MB of main memory.
 One- and two-electron integral derivatives are calculated
 for RHF-CC/MBPT hessians and dipole derivatives.
 Spherical gaussians are used.
  magnet F F
                    8722  records have been written to the Sort file.
  Total length of Sort file :             178609116  words.
 Evaluation of 2el integral derivatives

                      Two-electron integral gradient
                      ------------------------------

                         C #1 z     0.0000000000
                         O #2 z     0.0000000000


 C #1       0.0000000000            0.0781904258            0.0000000000
 O #2       0.0000000000           -0.0781904258            0.0000000000


 Evaluation of 2e integral derivatives required  354.95 seconds.
  contribution to Hessian
        0.0000000000        0.0000000000        0.0000000000
        0.0000000000        0.0781904258       -0.0781904258
 @CHECKOUT-I, Total execution time (CPU/WALL):      354.92/      72.79 seconds.
--executable xvdint finished with status     0 in       72.98 seconds (walltime).
 --invoking executable--
/nfs/workspaces/public/cfour_mpi/bin/xanti
 @GETMEM-I,  Allocated    3814 MB of main memory.
 CCSD MO gammas will be sorted to Mulliken order.
 @CHECKOUT-I, Total execution time (CPU/WALL):       17.56/      48.43 seconds.
--executable xanti finished with status     0 in       48.62 seconds (walltime).
 --invoking executable--
/nfs/workspaces/public/cfour_mpi/bin/xbcktrn
 @GETMEM-I,  Allocated    3814 MB of main memory.
 CCSD MO gammas will be transformed to the AO basis.
 @CHECKOUT-I, Total execution time (CPU/WALL):       39.11/      17.12 seconds.
--executable xbcktrn finished with status     0 in       17.19 seconds (walltime).
 --invoking executable--
/nfs/workspaces/public/cfour_mpi/bin/xvdint
 @GETMEM-I,  Allocated    3814 MB of main memory.
 One- and two-electron integral derivatives are calculated
 for RHF-CC/MBPT hessians and dipole derivatives.
 Spherical gaussians are used.
  magnet F F

                     Kinetic energy integral gradient
                     --------------------------------

                         C #1 z    -0.4214262755
                         O #2 z     0.4214262755


 C #1       0.0000000000            0.0000000000           -0.4214262755
 O #2       0.0000000000            0.0000000000            0.4214262755



                   Nuclear attraction integral gradient
                   ------------------------------------

                         C #1 z    12.1892617457
                         O #2 z   -12.1892617457


 C #1       0.0000000000            0.0000000000           12.1892617457
 O #2       0.0000000000            0.0000000000          -12.1892617457



                      Reorthonormalization gradient
                      -----------------------------

                         C #1 z     0.0000000000
                         O #2 z     0.0000000000


 C #1       0.0000000000            0.0000000000            0.0000000000
 O #2       0.0000000000            0.0000000000            0.0000000000



                     Kinetic energy integral Hessian
                     -------------------------------


           Symmetry 1

           C #1 z      O #2 z

 C #1 z    0.446616
 O #2 z   -0.446616    0.446616


           Symmetry 2

           C #1 x      O #2 x

 C #1 x   -0.289130
 O #2 x    0.289130   -0.289130


           Symmetry 3

           C #1 y      O #2 y

 C #1 y   -0.289130
 O #2 y    0.289130   -0.289130




           C #1 x      C #1 y      C #1 z      O #2 x      O #2 y      O #2 z

 C #1 x   -0.289130
 C #1 y    0.000000   -0.289130
 C #1 z    0.000000    0.000000    0.446616

 O #2 x    0.289130    0.000000    0.000000   -0.289130
 O #2 y    0.000000    0.289130    0.000000    0.000000   -0.289130
 O #2 z    0.000000    0.000000   -0.446616    0.000000    0.000000    0.446616




                   Nuclear attraction integral Hessian
                   -----------------------------------


           Symmetry 1

           C #1 z      O #2 z

 C #1 z   -7.253473
 O #2 z    7.253473   -7.253473


           Symmetry 2

           C #1 x      O #2 x

 C #1 x    5.905178
 O #2 x   -5.905178    5.905178


           Symmetry 3

           C #1 y      O #2 y

 C #1 y    5.905178
 O #2 y   -5.905178    5.905178




           C #1 x      C #1 y      C #1 z      O #2 x      O #2 y      O #2 z

 C #1 x    5.905178
 C #1 y    0.000000    5.905178
 C #1 z    0.000000    0.000000   -7.253473

 O #2 x   -5.905178    0.000000    0.000000    5.905178
 O #2 y    0.000000   -5.905178    0.000000    0.000000    5.905178
 O #2 z    0.000000    0.000000    7.253473    0.000000    0.000000   -7.253473




                Highest order reorthonormalization Hessian
                ------------------------------------------


           Symmetry 1

           C #1 z      O #2 z

 C #1 z    0.000000
 O #2 z    0.000000    0.000000


           Symmetry 2

           C #1 x      O #2 x

 C #1 x    0.000000
 O #2 x    0.000000    0.000000


           Symmetry 3

           C #1 y      O #2 y

 C #1 y    0.000000
 O #2 y    0.000000    0.000000




           C #1 x      C #1 y      C #1 z      O #2 x      O #2 y      O #2 z




                Electronic contributions to dipole moment
                -----------------------------------------

                               au             Debye

                    z      1.45429800      3.69645744

  Conversion factor used: 1 a.u. =   2.54174691 Debye 



   Electronic contributions to static part of dipole moment derivatives
   --------------------------------------------------------------------


                     Total dipole moment derivatives
                     -------------------------------


           Symmetry 1
                              Ez

               C #1 z    -5.69804900
               O #2 z    -8.30195100

           Symmetry 2
                              Ex

               C #1 x    -5.68742146
               O #2 x    -8.31257854

           Symmetry 3
                              Ey

               C #1 y    -5.68742146
               O #2 y    -8.31257854



                       Ex          Ey          Ez

      C #1    x   -5.687421    0.000000    0.000000
      C #1    y    0.000000   -5.687421    0.000000
      C #1    z    0.000000    0.000000   -5.698049

      O #2    x   -8.312579    0.000000    0.000000
      O #2    y    0.000000   -8.312579    0.000000
      O #2    z    0.000000    0.000000   -8.301951

 Evaluation of 1e integral derivatives required    1.64 seconds.
                    8815  records have been written to the Sort file.
  Total length of Sort file :             180513570  words.
 Evaluation of 2el integral derivatives

                      Two-electron integral gradient
                      ------------------------------

                         C #1 z    -6.6282454086
                         O #2 z     6.6282454086


 C #1       0.0000000000            0.0000000000           -6.6282454086
 O #2       0.0000000000            0.0000000000            6.6282454086


 Evaluation of 2e integral derivatives required  731.39 seconds.

                            Molecular gradient
                            ------------------

                         C #1 z     0.5261071195
                         O #2 z    -0.5261071195


 C #1       0.0000000000            0.0000000000            0.5261071195
 O #2       0.0000000000            0.0000000000           -0.5261071195


  Molecular gradient norm 0.744E+00

                            Molecular hessian
                            -----------------


           Symmetry 1

           C #1 z      O #2 z

 C #1 z    9.562525
 O #2 z   -9.562525    9.562525


           Symmetry 2

           C #1 x      O #2 x

 C #1 x    8.634780
 O #2 x   -8.634780    8.634780


           Symmetry 3

           C #1 y      O #2 y

 C #1 y    8.634780
 O #2 y   -8.634780    8.634780




           C #1 x      C #1 y      C #1 z      O #2 x      O #2 y      O #2 z

 C #1 x    8.634780
 C #1 y    0.000000    8.634780
 C #1 z    0.000000    0.000000    9.562525

 O #2 x   -8.634780    0.000000    0.000000    8.634780
 O #2 y    0.000000   -8.634780    0.000000    0.000000    8.634780
 O #2 z    0.000000    0.000000   -9.562525    0.000000    0.000000    9.562525




                           Total dipole moment
                           -------------------

                               au             Debye

                    z      0.55805381      1.41843155

  Conversion factor used: 1 a.u. =   2.54174691 Debye 



                     Total dipole moment derivatives
                     -------------------------------


           Symmetry 1
                              Ez

               C #1 z     0.48949148
               O #2 z    -0.48949148

           Symmetry 2
                              Ex

               C #1 x     0.18608460
               O #2 x    -0.18608460

           Symmetry 3
                              Ey

               C #1 y     0.18608460
               O #2 y    -0.18608460



                       Ex          Ey          Ez

      C #1    x    0.186085    0.000000    0.000000
      C #1    y    0.000000    0.186085    0.000000
      C #1    z    0.000000    0.000000    0.489491

      O #2    x   -0.186085    0.000000    0.000000
      O #2    y    0.000000   -0.186085    0.000000
      O #2    z    0.000000    0.000000   -0.489491

 @CHECKOUT-I, Total execution time (CPU/WALL):      733.02/     123.09 seconds.
--executable xvdint finished with status     0 in      123.27 seconds (walltime).
 --invoking executable--
/nfs/workspaces/public/cfour_mpi/bin/xjoda
  @GTFLGS-I, Hessian will be transformed to curvilinear coordinates.
  @GTFLGS-I, Hessian will be transformed to curvilinear coordinates.
  igrd and ihes are                      0                     1
  gradient from JOBARC 
   0.000000000000000   0.000000000000000   0.526107119510743
   0.000000000000000   0.000000000000000  -0.526107119510743
 
  @PROJFCM-I, Projecting force constant matrix onto totally symmetric subspace.
  Largest difference between matrix elements of symmetrized
  and unsymmetrized FCM :     0.1065814104E-13.
  read isotopes from ZMAT file 
 
  Summary of diagonal Born-Oppenheimer correction at the correlated level
  The total diagonal Born-Oppenheimer correction (DBOC) is:      0.0040080361 a.u.
  The total diagonal Born-Oppenheimer correction (DBOC) is:        879.662254 cm-1
  The total diagonal Born-Oppenheimer correction (DBOC) is:            10.523 kJ/mole
  hellooooooo 
  readis is  F
 
 @CHECKOUT-I, Total execution time (CPU/WALL):        0.01/       0.07 seconds.
--executable xjoda finished with status     0 in        0.12 seconds (walltime).
  The final electronic energy is      -113.027602093490827 a.u. 
  This computation required                         4717.95 seconds (walltime).
