 --invoking executable--
/nfs/workspaces/public/cfour_mpi/bin/xjoda


   *************************************************************************
         <<<     CCCCCC     CCCCCC   |||     CCCCCC     CCCCCC   >>>
       <<<      CCC        CCC       |||    CCC        CCC         >>>
      <<<      CCC        CCC        |||   CCC        CCC            >>>
    <<<        CCC        CCC        |||   CCC        CCC              >>>
      <<<      CCC        CCC        |||   CCC        CCC            >>>
       <<<      CCC        CCC       |||    CCC        CCC         >>>
         <<<     CCCCCC     CCCCCC   |||     CCCCCC     CCCCCC   >>>
   *************************************************************************

     ****************************************************************
     * CFOUR Coupled-Cluster techniques for Computational Chemistry *
     ****************************************************************
 

   Department of Chemistry                Institut fuer Physikalische Chemie
   University of Florida                  Universitaet Mainz
   Gainesville, FL 32611, USA             D-55099 Mainz, Germany

   Department of Chemistry                Fakultaet fuer Chemie und Biowiss.
   Johns Hopkins University               Karlsruher Institut fuer Technologie
   Baltimore, MD 21218, USA               D-76131 Karlsruhe, Germany

   Department of Chemistry                Department of Physical Chemistry
   Southern Methodist University          Eotvos Lorand University
   Dallas, TX 75275, USA                  H-1053 Budapest, Hungary

 
                       Version 2.1
 
                     vincent.theory.phys.ucl.ac.uk                     
                     Thu 27 Feb 20:40:22 GMT 2025                      
                     integer*8 version is running
 
********************************************************************************
*                          Input from ZMAT file                                *
********************************************************************************
Carbon Monoxide DBOC calculation                                                
C                                                                               
O 1 r                                                                           
                                                                                
r=1.4275862068965517                                                            
                                                                                
                                                                                
*CFOUR(CALC=CCSD,BASIS=AUG-PCVQZ,SCF_CONV=10                                    
CC_CONV=14,DBOC=ON,MEMORY=500000000                                             
ZFIELD=-200)                                                                    
                                                                                
%isotopes                                                                       
13                                                                              
16                                                                              
********************************************************************************
  @GTFLGS-I, Hessian will be transformed to curvilinear coordinates.
    -------------------------------------------------------------------
                    CFOUR Control Parameters 
    -------------------------------------------------------------------
        External           Internal           Value            Units
          Name               Name
    -------------------------------------------------------------------
       ABCDTYPE             IABCDT         STANDARD    [  0]    ***   
       ANHARMONIC           IANHAR         OFF         [  0]    ***   
       ANH_ALGORIT          IANALG         STANDARD    [  0]    ***   
       ANH_DERIVAT          IANDER         SECOND      [  1]    ***   
       ANH_MODE             ANHMOD         VIBRATION   [  0]    ***   
       ANH_STEPSIZ          ICUBST             50000          x 10-6  
       ANH_SYMMETR          IANHSM         ABELIAN     [  0]    ***   
       AO_LADDERS           IAOLAD         SINGLEPASS  [  1]    ***   
       AV_SCF               IAVSCF         OFF         [  0]    ***   
       BASIS                IBASIS         AUG-PCVQZ   [ 52]    ***   
       BOTHVECTORS          BOTHVC         OFF         [  0]    ***   
       BOX_POTENT           IPIAB          OFF         [  0]    ***   
       BREIT                IBREIT         OFF         [  0]    ***   
       BRUCK_CONV           IBRTOL          10D-  4             ***   
       BRUECKNER            IBRKNR         OFF         [  0]    ***   
       BUFFERSIZE           IBUFFS              4096            ***   
       CACHE_RECS           ICHREC             10               ***   
       CALCLEVEL            ICLLVL         CCSD        [ 10]    ***   
       CCORBOPT             ICCORB         OFF         [  0]  x 0.01  
       CC_CONV              ICCCNV          10D- 14             ***   
       CC_EXPORDER          ICCEOR              5               ***   
       CC_EXTRAPOL          ICCEXT         DIIS        [  1]    ***   
       CC_GUESS             ICCGES         MP2         [  0]    ***   
       CC_MAXCYC            ICCCYC            100              cycles 
       CC_PROGRAM           ICCPRO         VCC         [  0]    ***   
       CHARGE               ICHRGE              0               ***   
       CHOLESKY             ICHOLE         OFF         [  0]    ***   
       CIS_CONV             ICISTL              5               ***   
       COMM_SIZE            IPSIZE            ***               ***   
       CONSTANT             ICONST         OLD         [  1]    ***   
       CONTINUUM            ICONTU         NONE        [  0]    ***   
       CONTRACTION          ICNTYP         GENERAL     [  1]    ***   
       COORDINATES          ICOORD         INTERNAL    [  0]    ***   
       CPHF_CONVER          ICPHFT          10D- 16             ***   
       CPHF_MAXCYC          ICPHFC             64              cycles 
       CUBIC                ICUBIC         OFF         [  0]    ***   
       CURVILINEAR          ICURVY         ON          [  1]    ***   
       DBOC                 IDBOC          ON          [  1]    ***   
       DCT                  IDCT           OFF         [  0]    ***   
       DERIV_LEV            IDRLVL         SECOND      [  2]    ***   
       DEVMEM_SIZE          IDVMEM          50000000           MByte  
       DIAG_MRCC            IEOMST          10D-  0             ***   
       DIFF_TYPE            IDIFTY         RELAXED     [  0]    ***   
       DIRECT               IDIRCT         OFF         [  0]    ***   
       DROPMO               IDRPMO      NONE         
       ECP                  IECP           OFF         [  0]    ***   
       EIGENVECTOR          IVEC                1               ***   
       EL_ANHARM            IELANH         OFF         [  0]    ***   
       EOMFOLLOW            IEOMSR         ENERGY      [  0]    ***   
       EOMIP                IEOMIP         OFF         [  0]    ***   
       EOMLEVEL             HBARFM         SAME        [  0]    ***   
       EOM_MRCC             IMRCCE         NEW         [  1]    ***   
       EOM_NONIT            EOMNON         OFF         [  0]    ***   
       EOM_NSING            IEOMSI          10D-  0             ***   
       EOM_NSTATES          IMRCCD         DAVIDSON    [  0]    ***   
       EOM_NTRIP            IEOMTR          10D-  0             ***   
       EOM_ORDER            IEXORD         ENERGY      [  0]    ***   
       EOM_PROPSTA          IEOMST              0               ***   
       ESTATE_CONV          IEXTOL          10D-  5             ***   
       ESTATE_DIAG          IEXDIG         ITERATIVE   [  0]    ***   
       ESTATE_LOCK          IESLOC         ON          [  1]    ***   
       ESTATE_MAXC          IEXMXC             40               ***   
       ESTATE_PROP          IEXPRP         OFF         [  0]    ***   
       EVAL_HESS            IRECAL              0            # of cyc.
       EXCITATION           IEXCIT              0               ***   
       EXCITE               IEXCIT         NONE        [  0]    ***   
       EXTERN_POT           IEXPOT         OFF         [  0]    ***   
       FCGRADNEW            IFCGNW         OFF         [  0]    ***   
       FC_FIELD             IFINFC              0             x 10-6  
       FD_CALTYPE           IFDCAL         GRADONLY    [  0]    ***   
       FD_PROJECT           IFDPRJ         OFF         [  1]    ***   
       FD_STEPSIZE          IDISFD              0            10-4 bohr
       FD_USEGROUP          IFDGRP         FULL        [  0]    ***   
       FILE_RECSIZ          IFLREC              4096           words  
       FINITE_PERT          IFIPER              0             x 10-6  
       FIXGEOM              IFIXGM         OFF         [  0]    ***   
       FOCK                 IFOCK          AO          [  1]    ***   
       FREQ_ALGORI          IVIALG         STANDARD    [  0]    ***   
       FROZEN_CORE          IFROCO         OFF         [  0]    ***   
       GAMMA_ABCD           IGABCD         STORE       [  0]    ***   
       GAMMA_ABCI           IGABCI         STORE       [  0]    ***   
       GENBAS_1             IGNBS1              0               ***   
       GENBAS_2             IGNBS2              0               ***   
       GENBAS_3             IGNBS3              0               ***   
       GENBAS_4             IGNBS4              0               ***   
       GEO_CONV             ICONTL              5              H/bohr 
       GEO_MAXCYC           IOPTCY             50               ***   
       GEO_MAXSTEP          IMXSTP            300            millibohr
       GEO_METHOD           INR            SINGLE_POINT[  5]    ***   
       GIAO                 IGIAO          OFF         [  1]    ***   
       GIMIC                IGIMIC         OFF         [  0]    ***   
       GRID                 IGRID          OFF         [  0]    ***   
       GRID_ALGO            IGALGO         SERIAL      [  0]    ***   
       GUESS                IGUESS         MOREAD      [  0]    ***   
       HBAR                 IHBAR          OFF         [  0]    ***   
       HESS_TYPE            IHESTP         SCF         [  0]    ***   
       HF2_FILE             IHF2Fl         USE         [  1]    ***   
       HFSTABILITY          ISTABL         OFF         [  0]    ***   
       INCORE               INCORE         OFF         [  0]    ***   
       INPUT_MRCC           IMRCC          ON          [  1]    ***   
       INTEGRALS            INTTYP         VMOL        [  1]    ***   
       JODA_PRINT           IJPRNT              0               ***   
       KEYWORD_OUT          IDMPKW         NO          [  0]    ***   
       LINDEP_TOL           ILINDP              8               ***   
       LINEQ_CONV           IZTACN          10D-  7           cycles  
       LINEQ_EXPOR          ILMAXD              5               ***   
       LINEQ_MAXCY          ILMAXC            100               ***   
       LINEQ_TYPE           ILTYPE         DIIS        [  1]    ***   
       LOCK_ORBOCC          ILOCOC         OFF         [  0]    ***   
       MEMORY_SIZE          IMEMSZ         500000000           words  
       MEM_UNIT             IMEMU          INTEGERWORDS[  0]    ***   
       MRCC                 IMRCCC         OFF         [  0]    ***   
       MULTIPLICTY          IMULTP              1               ***   
       NACOUPLING           IVCOUP         OFF         [  0]    ***   
       NEGEVAL              IDIE           ABORT       [  0]    ***   
       NEWNORM              INEWNO         OFF         [  0]    ***   
       NON-HF               INONHF         OFF         [  0]    ***   
       NTOP_TAMP            ITOPT2             15               ***   
       NUC_MODEL            INUCMO         POINT       [  0]    ***   
       OCCUPATION           IOCCU   ESTIMATED BY SCF 
       OPEN-SHELL           IOPEN          SPIN-ORBITAL[  0]    ***   
       OPTVIB               IOPTVB         OFF         [  0]    ***   
       ORBITALS             IORBTP         STANDARD    [  0]    ***   
       PARALLEL             IPARAL         ON          [  1]    ***   
       PARA_INT             IPINTS         ON          [  1]    ***   
       PARA_PRINT           IPPRIN              0               ***   
       PERT_ORB             IPTORB         STANDARD    [  0]    ***   
       POINTS               IGRDFD              0               ***   
       PRINT                IPRNT               0               ***   
       PROPS                IPROPS         OFF         [  0]    ***   
       PROP_INTEGR          IINTYP         INTERNAL    [  0]    ***   
       PSI                  IPSI           OFF         [  0]    ***   
       QC_ALG               IQCALG         FLM         [  0]    ***   
       QC_LINALG            IQCLIN         TRIDIAG     [  2]    ***   
       QC_MAXCYC            IQCMAX          10D-100           cycles  
       QC_MAXSCFCY          IQCMSC          10D- 15           cycles  
       QC_RTRUST            IQCRTR          10D-  0           x 10-3  
       QC_SKIPSCF           IQCSKI         OFF         [  0]    ***   
       QC_START             IQCSTA          10D-  1             ***   
       QRHFGUESS            IQGUES         OFF         [  0]    ***   
       QUARTIC              IQUART         OFF         [  0]    ***   
       RAMAN_INT            IRAMIN         OFF         [  0]    ***   
       RAMAN_ORB            IRAMRE         UNRELAXED   [  0]    ***   
       RDO                  IRDOFM         ON          [  1]    ***   
       REDUCE_REPR          REDREP         Ir          [  0]    ***   
       REFERENCE            IREFNC         RHF         [  0]    ***   
       RELATIVIST           IRELAT         OFF         [  0]    ***   
       RELAX_DENS           IRDENS         ON          [  1]    ***   
       RESET_FLAGS          IRESET         OFF         [  0]    ***   
       RESTART_CC           ICCRES         OFF         [  0]    ***   
       ROT_EVEC             ROTVEC              0               ***   
       SAVE_INTS            ISVINT         OFF         [  0]    ***   
       SCALE_ON             ISTCRT              0               ***   
       SCF_CONV             ISCFCV          10D- 10             ***   
       SCF_DAMPING          IDAMP               0             x 10-3  
       SCF_EXPORDE          IRPPOR              6               ***   
       SCF_EXPSTAR          IRPPLS              8               ***   
       SCF_EXTRAPO          IRPP           ON          [  1]    ***   
       SCF_MAXCYC           ISCFCY            150              cycles 
       SCF_NOSTOP           ISCFST         OFF         [  0]    ***   
       SCF_PRINT            ISCFPR              0               ***   
       SCF_PROG             ISCFPR         SCF         [  0]    ***   
       SD_FIELD             IFINSD              0             x 10-6  
       SOPERT               IPERSO         OFF         [  0]    ***   
       SPHERICAL            IDFGHI         ON          [  1]    ***   
       SPINORBIT            ISOCAL         OFF         [  0]    ***   
       SPINROTATIO          ISRCON         OFF         [  0]    ***   
       SPIN_FLIP            ISPFLP         OFF         [  0]    ***   
       SPIN_ORBIT           ISPORB         OFF         [  0]    ***   
       SPIN_SCAL            ISCSMP         OFF         [  0]    ***   
       STEEPSCALE           ISTPSC              1000          x 10-3  
       SUBGROUP             ISUBGP         DEFAULT     [  0]    ***   
       SUBGRPAXIS           ISBXYZ         X           [  0]    ***   
       SYMMETRY             ISYM           ON          [  0]    ***   
       SYM_CHECK            ISYMCK         OVERRIDE    [  1]    ***   
       T3_EXTRAPOL          IT3EXT         OFF         [  0]    ***   
       T4_EXTRAPOL          IT4EXP         OFF         [  0]    ***   
       TAMP_SUM             IEVERY              5               ***   
       TESTSUITE            ITESTS         OFF         [  0]    ***   
       THERMOCH             ITHERM         OFF         [  0]    ***   
       TOL_CHOLESK          ITOLCH          10D-  4             ***   
       TRANGRAD             IRESRM         OFF         [  0]    ***   
       TRANS_INV            ITRAIN         IGNORE      [  1]    ***   
       TREAT_PERT           ITREAT         SIMULTANEOUS[  0]    ***   
       TRIP_ALGORI          ITRALG         NORMAL      [  0]    ***   
       UIJ_THRESHO          IUIJTH              1               ***   
       UNITS                IUNITS         ANGSTROM    [  0]    ***   
       UNOS                 IUNOS          OFF         [  0]    ***   
       UPDATE_HESS          IHUPDT         ON          [  1]    ***   
       VIBPHASE             ISETPH         STANDARD    [  0]    ***   
       VIBRATION            IVIB           ANALYTIC    [  1]    ***   
       VIB_ALGORIT          IGEALG         STANDARD    [  0]    ***   
       VNATORB              IVNORB         OFF         [  0]    ***   
       VTRAN                IVTRAN         FULL/PARTIAL[  0]    ***   
       XFIELD               IXEFLD              0             x 10-6  
       XFORM_TOL            IXFTOL          10D- 11             ***   
       YFIELD               IYEFLD              0             x 10-6  
       ZFIELD               IZEFLD            ***             x 10-6  
       ZSCALE_EXP           IZEXPS         OFF         [  0]    ***   
    -------------------------------------------------------------------
   2 entries found in Z-matrix 
   Job Title : Carbon Monoxide DBOC calculation                                                
   There are  1 unique internal coordinates.
   Of these,  0 will be optimized.
   User supplied Z-matrix: 
--------------------------------------------------------------------------------
       SYMBOL    BOND      LENGTH    ANGLE     ANGLE     DIHED     ANGLE
                  TO      (ANGST)    WRT      (DEG)      WRT      (DEG)
--------------------------------------------------------------------------------
        C    
        O          1         r    
                  *Initial values for internal coordinates* 
                      Name             Value
                        r               1.4275862069
--------------------------------------------------------------------------------
  read isotopes from ZMAT file 
   Rotational constants (in cm-1): 
          1.1532583558             1.1532583558
   Rotational constants (in MHz): 
      34573.8205622102         34573.8205622102
********************************************************************************
   The full molecular point group is CXv .
   The largest Abelian subgroup of the full molecular point group is C2v .
   The computational point group is C2v .
********************************************************************************
--------------------------------------------------------------------------------
   Analysis of internal coordinates specified by Z-matrix 
--------------------------------------------------------------------------------
   *The nuclear repulsion energy is   17.792621333333333 a.u.
   *There is   1 degree of freedom within the tot. symm. molecular subspace.
   *Z-matrix requests optimization of   0 coordinates.
   *The optimization is constrained.
   *The following   1 parameters can have non-zero 
    derivatives within the totally symmetric subspace:
             r    [ 1]
   *The following   0 parameters are to be optimized:

   *The following coordinates must be varied in an  unconstrained optimization.
             r    [ 1]
--------------------------------------------------------------------------------


 ----------------------------------------------------------------
         Coordinates used in calculation (QCOMP) 
 ----------------------------------------------------------------
 Z-matrix   Atomic            Coordinates (in bohr)
  Symbol    Number           X              Y              Z
 ----------------------------------------------------------------
     C         6        -0.00000000     0.00000000     1.48802815
     O         8         0.00000000     0.00000000    -1.20971937
 ----------------------------------------------------------------
 
   Interatomic distance matrix (Angstroms) 
 
                 C             O    
                [ 1]        [ 2]
  C    [ 1]     0.00000
  O    [ 2]     1.42759     0.00000
 rotcon2
   Rotational constants (in cm-1): 
          1.1532583558             0.0000000000
   Rotational constants (in MHz): 
      34573.8205622102             0.0000000000
  ECPDATA file not present.   Using default ECPDATA. 
  @GTFLGS-I, Hessian will be transformed to curvilinear coordinates.
  There are  218 basis functions.
 @CHECKOUT-I, Total execution time (CPU/WALL):        0.26/       0.37 seconds.
--executable xjoda finished with status     0 in        0.40 seconds (walltime).
 --invoking executable--
/nfs/workspaces/public/cfour_mpi/bin/xvmol
 SERIAL VERSION OF MOLECULE STARTED
********************************************************************************
                    INPUT FROM MOL FILE
********************************************************************************
INTGRL        1    0    1    0    0    0    0    0    0                         
         *** CFOUR Program System (Release V0.1) ***                            
Carbon Monoxide DBOC calculation                                                
    2    2 X  Y       0.10E-08              0    0                              
   9999.00      3.00                                                            
          6.00000000    1    5    1    1    1    1    1                         
C #1  -0.000000000000000   0.000000000000000   1.488028148458216                
   16    9                                                                      
   33980.0000000000       9.100000000000000E-005 -1.900000000000000E-005        
  0.000000000000000E+000  0.000000000000000E+000  0.000000000000000E+000        
  0.000000000000000E+000  0.000000000000000E+000  0.000000000000000E+000        
  0.000000000000000E+000                                                        
   5089.00000000000       7.040000000000000E-004 -1.510000000000000E-004        
  0.000000000000000E+000  0.000000000000000E+000  0.000000000000000E+000        
  0.000000000000000E+000  0.000000000000000E+000  0.000000000000000E+000        
  0.000000000000000E+000                                                        
   1157.00000000000       3.693000000000000E-003 -7.850000000000000E-004        
  0.000000000000000E+000  0.000000000000000E+000  0.000000000000000E+000        
  0.000000000000000E+000  0.000000000000000E+000  0.000000000000000E+000        
  0.000000000000000E+000                                                        
   326.600000000000       1.536000000000000E-002 -3.324000000000000E-003        
  0.000000000000000E+000  0.000000000000000E+000  0.000000000000000E+000        
  0.000000000000000E+000  0.000000000000000E+000  0.000000000000000E+000        
  0.000000000000000E+000                                                        
   106.100000000000       5.292900000000000E-002 -1.151200000000000E-002        
  0.000000000000000E+000  0.000000000000000E+000  0.000000000000000E+000        
  0.000000000000000E+000  0.000000000000000E+000  0.000000000000000E+000        
  0.000000000000000E+000                                                        
   38.1100000000000       0.147043000000000      -3.416000000000000E-002        
  0.000000000000000E+000  0.000000000000000E+000  0.000000000000000E+000        
  0.000000000000000E+000  0.000000000000000E+000  0.000000000000000E+000        
  0.000000000000000E+000                                                        
   14.7500000000000       0.305631000000000      -7.717300000000001E-002        
  0.000000000000000E+000  0.000000000000000E+000  0.000000000000000E+000        
  0.000000000000000E+000  0.000000000000000E+000  0.000000000000000E+000        
  0.000000000000000E+000                                                        
   6.03500000000000       0.399345000000000      -0.141493000000000             
  0.000000000000000E+000  0.000000000000000E+000  0.000000000000000E+000        
  0.000000000000000E+000  0.000000000000000E+000  0.000000000000000E+000        
  0.000000000000000E+000                                                        
   2.53000000000000       0.217051000000000      -0.118019000000000             
  0.000000000000000E+000  0.000000000000000E+000  0.000000000000000E+000        
  0.000000000000000E+000  0.000000000000000E+000  0.000000000000000E+000        
  0.000000000000000E+000                                                        
  0.735500000000000       1.589400000000000E-002  0.273806000000000             
   1.00000000000000       0.000000000000000E+000  0.000000000000000E+000        
  0.000000000000000E+000  0.000000000000000E+000  0.000000000000000E+000        
  0.000000000000000E+000                                                        
  0.290500000000000      -3.084000000000000E-003  0.586510000000000             
  0.000000000000000E+000   1.00000000000000       0.000000000000000E+000        
  0.000000000000000E+000  0.000000000000000E+000  0.000000000000000E+000        
  0.000000000000000E+000                                                        
  0.111100000000000       9.779999999999999E-004  0.285430000000000             
  0.000000000000000E+000  0.000000000000000E+000   1.00000000000000             
  0.000000000000000E+000  0.000000000000000E+000  0.000000000000000E+000        
  0.000000000000000E+000                                                        
   7.21600000000000       0.000000000000000E+000  0.000000000000000E+000        
  0.000000000000000E+000  0.000000000000000E+000  0.000000000000000E+000        
   1.00000000000000       0.000000000000000E+000  0.000000000000000E+000        
  0.000000000000000E+000                                                        
   19.5700000000000       0.000000000000000E+000  0.000000000000000E+000        
  0.000000000000000E+000  0.000000000000000E+000  0.000000000000000E+000        
  0.000000000000000E+000   1.00000000000000       0.000000000000000E+000        
  0.000000000000000E+000                                                        
   53.0730000000000       0.000000000000000E+000  0.000000000000000E+000        
  0.000000000000000E+000  0.000000000000000E+000  0.000000000000000E+000        
  0.000000000000000E+000  0.000000000000000E+000   1.00000000000000             
  0.000000000000000E+000                                                        
  4.145000000000000E-002  0.000000000000000E+000  0.000000000000000E+000        
  0.000000000000000E+000  0.000000000000000E+000  0.000000000000000E+000        
  0.000000000000000E+000  0.000000000000000E+000  0.000000000000000E+000        
   1.00000000000000                                                             
   10    8                                                                      
   34.5100000000000       5.378000000000000E-003  0.000000000000000E+000        
  0.000000000000000E+000  0.000000000000000E+000  0.000000000000000E+000        
  0.000000000000000E+000  0.000000000000000E+000  0.000000000000000E+000        
   7.91500000000000       3.613200000000000E-002  0.000000000000000E+000        
  0.000000000000000E+000  0.000000000000000E+000  0.000000000000000E+000        
  0.000000000000000E+000  0.000000000000000E+000  0.000000000000000E+000        
   2.36800000000000       0.142493000000000       0.000000000000000E+000        
  0.000000000000000E+000  0.000000000000000E+000  0.000000000000000E+000        
  0.000000000000000E+000  0.000000000000000E+000  0.000000000000000E+000        
  0.813200000000000       0.342150000000000        1.00000000000000             
  0.000000000000000E+000  0.000000000000000E+000  0.000000000000000E+000        
  0.000000000000000E+000  0.000000000000000E+000  0.000000000000000E+000        
  0.289000000000000       0.463864000000000       0.000000000000000E+000        
   1.00000000000000       0.000000000000000E+000  0.000000000000000E+000        
  0.000000000000000E+000  0.000000000000000E+000  0.000000000000000E+000        
  0.100700000000000       0.250028000000000       0.000000000000000E+000        
  0.000000000000000E+000   1.00000000000000       0.000000000000000E+000        
  0.000000000000000E+000  0.000000000000000E+000  0.000000000000000E+000        
   8.18200000000000       0.000000000000000E+000  0.000000000000000E+000        
  0.000000000000000E+000  0.000000000000000E+000   1.00000000000000             
  0.000000000000000E+000  0.000000000000000E+000  0.000000000000000E+000        
   24.1860000000000       0.000000000000000E+000  0.000000000000000E+000        
  0.000000000000000E+000  0.000000000000000E+000  0.000000000000000E+000        
   1.00000000000000       0.000000000000000E+000  0.000000000000000E+000        
   71.4940000000000       0.000000000000000E+000  0.000000000000000E+000        
  0.000000000000000E+000  0.000000000000000E+000  0.000000000000000E+000        
  0.000000000000000E+000   1.00000000000000       0.000000000000000E+000        
  3.218000000000000E-002  0.000000000000000E+000  0.000000000000000E+000        
  0.000000000000000E+000  0.000000000000000E+000  0.000000000000000E+000        
  0.000000000000000E+000  0.000000000000000E+000   1.00000000000000             
    6    6                                                                      
   1.84800000000000        1.00000000000000       0.000000000000000E+000        
  0.000000000000000E+000  0.000000000000000E+000  0.000000000000000E+000        
  0.000000000000000E+000                                                        
  0.649000000000000       0.000000000000000E+000   1.00000000000000             
  0.000000000000000E+000  0.000000000000000E+000  0.000000000000000E+000        
  0.000000000000000E+000                                                        
  0.228000000000000       0.000000000000000E+000  0.000000000000000E+000        
   1.00000000000000       0.000000000000000E+000  0.000000000000000E+000        
  0.000000000000000E+000                                                        
   8.65600000000000       0.000000000000000E+000  0.000000000000000E+000        
  0.000000000000000E+000   1.00000000000000       0.000000000000000E+000        
  0.000000000000000E+000                                                        
   33.2130000000000       0.000000000000000E+000  0.000000000000000E+000        
  0.000000000000000E+000  0.000000000000000E+000   1.00000000000000             
  0.000000000000000E+000                                                        
  7.660000000000000E-002  0.000000000000000E+000  0.000000000000000E+000        
  0.000000000000000E+000  0.000000000000000E+000  0.000000000000000E+000        
   1.00000000000000                                                             
    4    4                                                                      
   1.41900000000000        1.00000000000000       0.000000000000000E+000        
  0.000000000000000E+000  0.000000000000000E+000                                
  0.485000000000000       0.000000000000000E+000   1.00000000000000             
  0.000000000000000E+000  0.000000000000000E+000                                
   24.6940000000000       0.000000000000000E+000  0.000000000000000E+000        
   1.00000000000000       0.000000000000000E+000                                
  0.187000000000000       0.000000000000000E+000  0.000000000000000E+000        
  0.000000000000000E+000   1.00000000000000                                     
    2    2                                                                      
   1.01100000000000        1.00000000000000       0.000000000000000E+000        
  0.424000000000000       0.000000000000000E+000   1.00000000000000             
          8.00000000    1    5    1    1    1    1    1                         
O #2   0.000000000000000   0.000000000000000  -1.209719367253540                
   16    9                                                                      
   61420.0000000000       9.000000000000001E-005 -2.000000000000000E-005        
  0.000000000000000E+000  0.000000000000000E+000  0.000000000000000E+000        
  0.000000000000000E+000  0.000000000000000E+000  0.000000000000000E+000        
  0.000000000000000E+000                                                        
   9199.00000000000       6.980000000000001E-004 -1.590000000000000E-004        
  0.000000000000000E+000  0.000000000000000E+000  0.000000000000000E+000        
  0.000000000000000E+000  0.000000000000000E+000  0.000000000000000E+000        
  0.000000000000000E+000                                                        
   2091.00000000000       3.664000000000000E-003 -8.290000000000000E-004        
  0.000000000000000E+000  0.000000000000000E+000  0.000000000000000E+000        
  0.000000000000000E+000  0.000000000000000E+000  0.000000000000000E+000        
  0.000000000000000E+000                                                        
   590.900000000000       1.521800000000000E-002 -3.508000000000000E-003        
  0.000000000000000E+000  0.000000000000000E+000  0.000000000000000E+000        
  0.000000000000000E+000  0.000000000000000E+000  0.000000000000000E+000        
  0.000000000000000E+000                                                        
   192.300000000000       5.242300000000000E-002 -1.215600000000000E-002        
  0.000000000000000E+000  0.000000000000000E+000  0.000000000000000E+000        
  0.000000000000000E+000  0.000000000000000E+000  0.000000000000000E+000        
  0.000000000000000E+000                                                        
   69.3200000000000       0.145921000000000      -3.626100000000000E-002        
  0.000000000000000E+000  0.000000000000000E+000  0.000000000000000E+000        
  0.000000000000000E+000  0.000000000000000E+000  0.000000000000000E+000        
  0.000000000000000E+000                                                        
   26.9700000000000       0.305258000000000      -8.299200000000000E-002        
  0.000000000000000E+000  0.000000000000000E+000  0.000000000000000E+000        
  0.000000000000000E+000  0.000000000000000E+000  0.000000000000000E+000        
  0.000000000000000E+000                                                        
   11.1000000000000       0.398508000000000      -0.152090000000000             
  0.000000000000000E+000  0.000000000000000E+000  0.000000000000000E+000        
  0.000000000000000E+000  0.000000000000000E+000  0.000000000000000E+000        
  0.000000000000000E+000                                                        
   4.68200000000000       0.216980000000000      -0.115331000000000             
  0.000000000000000E+000  0.000000000000000E+000  0.000000000000000E+000        
  0.000000000000000E+000  0.000000000000000E+000  0.000000000000000E+000        
  0.000000000000000E+000                                                        
   1.42800000000000       1.759400000000000E-002  0.288979000000000             
   1.00000000000000       0.000000000000000E+000  0.000000000000000E+000        
  0.000000000000000E+000  0.000000000000000E+000  0.000000000000000E+000        
  0.000000000000000E+000                                                        
  0.554700000000000      -2.502000000000000E-003  0.586128000000000             
  0.000000000000000E+000   1.00000000000000       0.000000000000000E+000        
  0.000000000000000E+000  0.000000000000000E+000  0.000000000000000E+000        
  0.000000000000000E+000                                                        
  0.206700000000000       9.540000000000000E-004  0.277624000000000             
  0.000000000000000E+000  0.000000000000000E+000   1.00000000000000             
  0.000000000000000E+000  0.000000000000000E+000  0.000000000000000E+000        
  0.000000000000000E+000                                                        
   12.9740000000000       0.000000000000000E+000  0.000000000000000E+000        
  0.000000000000000E+000  0.000000000000000E+000  0.000000000000000E+000        
   1.00000000000000       0.000000000000000E+000  0.000000000000000E+000        
  0.000000000000000E+000                                                        
   34.9000000000000       0.000000000000000E+000  0.000000000000000E+000        
  0.000000000000000E+000  0.000000000000000E+000  0.000000000000000E+000        
  0.000000000000000E+000   1.00000000000000       0.000000000000000E+000        
  0.000000000000000E+000                                                        
   93.8810000000000       0.000000000000000E+000  0.000000000000000E+000        
  0.000000000000000E+000  0.000000000000000E+000  0.000000000000000E+000        
  0.000000000000000E+000  0.000000000000000E+000   1.00000000000000             
  0.000000000000000E+000                                                        
  6.959000000000000E-002  0.000000000000000E+000  0.000000000000000E+000        
  0.000000000000000E+000  0.000000000000000E+000  0.000000000000000E+000        
  0.000000000000000E+000  0.000000000000000E+000  0.000000000000000E+000        
   1.00000000000000                                                             
   10    8                                                                      
   63.4200000000000       6.044000000000000E-003  0.000000000000000E+000        
  0.000000000000000E+000  0.000000000000000E+000  0.000000000000000E+000        
  0.000000000000000E+000  0.000000000000000E+000  0.000000000000000E+000        
   14.6600000000000       4.179900000000000E-002  0.000000000000000E+000        
  0.000000000000000E+000  0.000000000000000E+000  0.000000000000000E+000        
  0.000000000000000E+000  0.000000000000000E+000  0.000000000000000E+000        
   4.45900000000000       0.161143000000000       0.000000000000000E+000        
  0.000000000000000E+000  0.000000000000000E+000  0.000000000000000E+000        
  0.000000000000000E+000  0.000000000000000E+000  0.000000000000000E+000        
   1.53100000000000       0.356731000000000        1.00000000000000             
  0.000000000000000E+000  0.000000000000000E+000  0.000000000000000E+000        
  0.000000000000000E+000  0.000000000000000E+000  0.000000000000000E+000        
  0.530200000000000       0.448309000000000       0.000000000000000E+000        
   1.00000000000000       0.000000000000000E+000  0.000000000000000E+000        
  0.000000000000000E+000  0.000000000000000E+000  0.000000000000000E+000        
  0.175000000000000       0.244940000000000       0.000000000000000E+000        
  0.000000000000000E+000   1.00000000000000       0.000000000000000E+000        
  0.000000000000000E+000  0.000000000000000E+000  0.000000000000000E+000        
   14.4750000000000       0.000000000000000E+000  0.000000000000000E+000        
  0.000000000000000E+000  0.000000000000000E+000   1.00000000000000             
  0.000000000000000E+000  0.000000000000000E+000  0.000000000000000E+000        
   42.7300000000000       0.000000000000000E+000  0.000000000000000E+000        
  0.000000000000000E+000  0.000000000000000E+000  0.000000000000000E+000        
   1.00000000000000       0.000000000000000E+000  0.000000000000000E+000        
   126.140000000000       0.000000000000000E+000  0.000000000000000E+000        
  0.000000000000000E+000  0.000000000000000E+000  0.000000000000000E+000        
  0.000000000000000E+000   1.00000000000000       0.000000000000000E+000        
  5.348000000000000E-002  0.000000000000000E+000  0.000000000000000E+000        
  0.000000000000000E+000  0.000000000000000E+000  0.000000000000000E+000        
  0.000000000000000E+000  0.000000000000000E+000   1.00000000000000             
    6    6                                                                      
   3.77500000000000        1.00000000000000       0.000000000000000E+000        
  0.000000000000000E+000  0.000000000000000E+000  0.000000000000000E+000        
  0.000000000000000E+000                                                        
   1.30000000000000       0.000000000000000E+000   1.00000000000000             
  0.000000000000000E+000  0.000000000000000E+000  0.000000000000000E+000        
  0.000000000000000E+000                                                        
  0.444000000000000       0.000000000000000E+000  0.000000000000000E+000        
   1.00000000000000       0.000000000000000E+000  0.000000000000000E+000        
  0.000000000000000E+000                                                        
   14.9270000000000       0.000000000000000E+000  0.000000000000000E+000        
  0.000000000000000E+000   1.00000000000000       0.000000000000000E+000        
  0.000000000000000E+000                                                        
   57.5440000000000       0.000000000000000E+000  0.000000000000000E+000        
  0.000000000000000E+000  0.000000000000000E+000   1.00000000000000             
  0.000000000000000E+000                                                        
  0.154000000000000       0.000000000000000E+000  0.000000000000000E+000        
  0.000000000000000E+000  0.000000000000000E+000  0.000000000000000E+000        
   1.00000000000000                                                             
    4    4                                                                      
   2.66600000000000        1.00000000000000       0.000000000000000E+000        
  0.000000000000000E+000  0.000000000000000E+000                                
  0.859000000000000       0.000000000000000E+000   1.00000000000000             
  0.000000000000000E+000  0.000000000000000E+000                                
   26.4830000000000       0.000000000000000E+000  0.000000000000000E+000        
   1.00000000000000       0.000000000000000E+000                                
  0.324000000000000       0.000000000000000E+000  0.000000000000000E+000        
  0.000000000000000E+000   1.00000000000000                                     
    2    2                                                                      
   1.84600000000000        1.00000000000000       0.000000000000000E+000        
  0.714000000000000       0.000000000000000E+000   1.00000000000000             
FINISH                                                                          
 
********************************************************************************
 ONE- AND TWO-ELECTRON INTEGRALS OVER SYMMETRY-ADAPTED AOS ARE CALCULATED.

  SPHERICAL HARMONICS ARE USED.
  
  INTEGRALS LESS THAN  0.10E-13 ARE NEGLECTED.

  NUCLEAR REPULSION ENERGY :   17.7926213333 A.U.
  @MOLECU-I, ONE ELECTRON INTEGRALS (CPU/WALL):        0.07/       0.10 SECONDS.
  @TWOEL-I,    4490007 INTEGRALS OF SYMMETRY TYPE  I I I I
  @TWOEL-I,   19359778 INTEGRALS OF SYMMETRY TYPE  I J I J
  @TWOEL-I,   10193908 INTEGRALS OF SYMMETRY TYPE  I I J J
  @TWOEL-I,   14327117 INTEGRALS OF SYMMETRY TYPE  I J K L
  @TWOEL-I, TOTAL NUMBER OF 2-E INTEGRALS   48370810.
  @MOLECU-I, TWO ELECTRON INTEGRALS (CPU/WALL):      247.14/      34.05 SECONDS.
 @CHECKOUT-I, Total execution time (CPU/WALL):      247.22/      34.19 seconds.

Running with 14 threads/proc

--executable xvmol finished with status     0 in       34.32 seconds (walltime).
 --invoking executable--
/nfs/workspaces/public/cfour_mpi/bin/xvmol2ja
 @GETMEM-I,  Allocated    3814 MB of main memory.
 @CHECKOUT-I, Total execution time (CPU/WALL):        0.19/       0.16 seconds.
--executable xvmol2ja finished with status     0 in        0.19 seconds (walltime).
 --invoking executable--
/nfs/workspaces/public/cfour_mpi/bin/xvprop
 @GETMEM-I,  Allocated    3814 MB of main memory.
   Property integrals will be calculated.
    --------------------------------------------------------------
                                   Property evaluated at 
    Property type                X             Y             Z
    --------------------------------------------------------------
    Dipole moment               ----          ----          ----  
    Quadrupole moment           ----          ----          ----  
    Octopole moment             ----          ----          ----  
    Relativisitic corr.         ----          ----          ----  
    Second moment            0.0000000     0.0000000     0.0000000
    Electron density         0.0000000     0.0000000     1.4880281
    Electron density         0.0000000     0.0000000    -1.2097194
    Field gradient           0.0000000     0.0000000     1.4880281
    Field gradient           0.0000000     0.0000000    -1.2097194
    Potential                0.0000000     0.0000000     1.4880281
    Potential                0.0000000     0.0000000    -1.2097194
    --------------------------------------------------------------
 @CHECKOUT-I, Total execution time (CPU/WALL):        1.32/       1.39 seconds.
--executable xvprop finished with status     0 in        1.43 seconds (walltime).
 --invoking executable--
/nfs/workspaces/public/cfour_mpi/bin/xvscf
  There are  218 functions in the AO basis.

  There are 4 irreducible representations.

       Irrep        # of functions
         1                 86
         2                 52
         3                 52
         4                 28


  Parameters for SCF calculation: 
        SCF reference function:  RHF  
  Maximum number of iterations:  150
     Full symmetry point group: CXv 
     Computational point group: C2v 
        Initial density matrix: MOREAD                 
     SCF convergence tolerance: 10**(-10)
  DIIS convergence acceleration:  ON
          Latest start for DIIS:   8
                     DIIS order:   6

  Memory information:    2523578 words required.
  Fock matrices are constructed from AO integral file.
 @GETMEM-I,  Allocated      19 MB of main memory.
  Initialization and symmetry analysis required      0.002 seconds.

  Adding electric field perturbation to one-electron Hamiltonian.
  Field direction     : Z
  Field strength      : -0.0002000 a.u.

  @INITGES-I, Occupancies from core Hamiltonian:

          Alpha population by irrep:   5    1    1    0
           Beta population by irrep:   5    1    1    0


 total no. of electrons in initial guess :  0.000000000000000E+000
  --------------------------------------------------------------------
  Iteration         Total Energy            Largest Density Difference
  --------------------------------------------------------------------
       0            17.792471416124258              0.0000000000D+00
   current occupation vector 
     5  1  1  0
     5  1  1  0
       1           -93.247220449365997              0.1756600802D+02
   current occupation vector 
     5  1  1  0
     5  1  1  0
       2           -98.350115415168702              0.1756367599D+02
   current occupation vector 
     5  1  1  0
     5  1  1  0
       3          -103.128623380793371              0.6480358793D+01
   current occupation vector 
     5  1  1  0
     5  1  1  0
       4           -98.268604618005924              0.6473801834D+01
   current occupation vector 
     5  1  1  0
     5  1  1  0
       5          -101.113006689421056              0.6544123307D+01
   current occupation vector 
     5  1  1  0
     5  1  1  0
       6           -96.675751799049905              0.6534953288D+01
   current occupation vector 
     5  1  1  0
     5  1  1  0
       7          -101.077287790674660              0.6664746025D+01
   current occupation vector 
     5  1  1  0
     5  1  1  0
       8           -96.597354037563733              0.6664930868D+01
   current occupation vector 
     5  1  1  0
     5  1  1  0
       9          -107.888475056480061              0.5166421012D+01
   current occupation vector 
     5  1  1  0
     5  1  1  0
      10          -109.702507962689026              0.9416366244D+00
   current occupation vector 
     5  1  1  0
     5  1  1  0
      11          -112.341846263130961              0.1510461349D+01
   current occupation vector 
     5  1  1  0
     5  1  1  0
      12          -112.637990429545667              0.5300080094D+00
   current occupation vector 
     5  1  1  0
     5  1  1  0
      13          -112.641201625378571              0.9694659176D-01
   current occupation vector 
     5  1  1  0
     5  1  1  0
      14          -112.641907464612771              0.4002241261D-01
   current occupation vector 
     5  1  1  0
     5  1  1  0
      15          -112.641955027325011              0.1051483970D-01
   current occupation vector 
     5  1  1  0
     5  1  1  0
      16          -112.641960662460164              0.3997284200D-02
   current occupation vector 
     5  1  1  0
     5  1  1  0
      17          -112.641962142351687              0.2740803802D-02
   current occupation vector 
     5  1  1  0
     5  1  1  0
      18          -112.641962263935639              0.8107063555D-03
   current occupation vector 
     5  1  1  0
     5  1  1  0
      19          -112.641962265590976              0.1168726340D-03
   current occupation vector 
     5  1  1  0
     5  1  1  0
      20          -112.641962265644750              0.7280637497D-05
   current occupation vector 
     5  1  1  0
     5  1  1  0
      21          -112.641962265644722              0.8893845307D-06
   current occupation vector 
     5  1  1  0
     5  1  1  0
      22          -112.641962265645375              0.1690819675D-06
   current occupation vector 
     5  1  1  0
     5  1  1  0
      23          -112.641962265644892              0.2280515088D-07
   current occupation vector 
     5  1  1  0
     5  1  1  0
      24          -112.641962265644835              0.5338754994D-08
   current occupation vector 
     5  1  1  0
     5  1  1  0
      25          -112.641962265644864              0.1411081918D-08
   current occupation vector 
     5  1  1  0
     5  1  1  0
      26          -112.641962265645319              0.3211915178D-09
   current occupation vector 
     5  1  1  0
     5  1  1  0
      27          -112.641962265645063              0.2875091276D-09
   current occupation vector 
     5  1  1  0
     5  1  1  0
      28          -112.641962265644750              0.1394615534D-09
   current occupation vector 
     5  1  1  0
     5  1  1  0
      29          -112.641962265645461              0.2685507233D-09
   current occupation vector 
     5  1  1  0
     5  1  1  0
      30          -112.641962265644722              0.4214525812D-09
   current occupation vector 
     5  1  1  0
     5  1  1  0

  SCF has converged.

 Density matrix saved to file den.dat
 total electron number:   14.0000000000003     
     E(SCF)=      -112.641962265644750              0.3744737853D-10

  Eigenvector printing suppressed.

 @PUTMOS-I, Writing converged MOs to NEWMOS. 
 @PUTMOS-I, Symmetry   1 Full Blocks 21 Partial Blocksize   2
 @PUTMOS-I, Symmetry   2 Full Blocks 13 Partial Blocksize   0
 @PUTMOS-I, Symmetry   3 Full Blocks 13 Partial Blocksize   0
 @PUTMOS-I, Symmetry   4 Full Blocks  7 Partial Blocksize   0
 @PUTFOCK-I, Writing converged Fock matrix to NEWFOCK. 
 @PUTFOCK-I, Symmetry   1 Full Blocks 21 Partial Blocksize   2
 @PUTFOCK-I, Symmetry   2 Full Blocks 13 Partial Blocksize   0
 @PUTFOCK-I, Symmetry   3 Full Blocks 13 Partial Blocksize   0
 @PUTFOCK-I, Symmetry   4 Full Blocks  7 Partial Blocksize   0


 
  ORBITAL EIGENVALUES (ALPHA)  (1H = 27.2113834 eV)

       MO #        E(hartree)               E(eV)           FULLSYM    COMPSYM
       ----   --------------------   --------------------   -------   ---------
    1     1         -20.6596755650        -562.1783527193     SG+        A1 (1)
    2     2         -11.4778665359        -312.3286269216     SG+        A1 (1)
    3     3          -1.3466902620         -36.6453050397     SG+        A1 (1)
    4     4          -0.7943328676         -21.6148962064     SG+        A1 (1)
    5     5          -0.5591539670         -15.2153529747     SG+        A1 (1)
    6   139          -0.5363299314         -14.5942793917      PI        B2 (3)
    7    87          -0.5363299314         -14.5942793917      PI        B1 (2)
  +++++++++++++++++++++++++++++++++++++++++++++++++++++++++++++++++++++++++++++
    8   140           0.0269294344           0.7327871647      PI        B2 (3)
    9    88           0.0269294344           0.7327871647      PI        B1 (2)
   10     6           0.0631209216           1.7176075985     SG+        A1 (1)
   11     7           0.0684078486           1.8614721948     SG+        A1 (1)
   12   141           0.0876597945           2.3853442774      PI        B2 (3)
   13    89           0.0876597945           2.3853442774      PI        B1 (2)
   14     8           0.1573717837           4.2823039436     SG+        A1 (1)
   15   142           0.1738823057           4.7315780882      PI        B2 (3)
   16    90           0.1738823057           4.7315780882      PI        B1 (2)
   17     9           0.2230019415           6.0681913302     SG+        A1 (1)
   18    10           0.2246877079           6.1140633637      DE        A1 (1)
   19   191           0.2246877079           6.1140633637      DE        A2 (4)
   20   143           0.2948847185           8.0242211329      PI        B2 (3)
   21    91           0.2948847185           8.0242211329      PI        B1 (2)
   22    11           0.2994817308           8.1493121973     SG+        A1 (1)
   23    12           0.3617959238           9.8449675962     SG+        A1 (1)
   24   144           0.3996110690          10.8739700105      PI        B2 (3)
   25    92           0.3996110690          10.8739700105      PI        B1 (2)
   26    13           0.4749527424          12.9241211694     SG+        A1 (1)
   27    14           0.5118855376          13.9291136198     SG+        A1 (1)
   28   192           0.5474291043          14.8963032426      DE        A2 (4)
   29    15           0.5474291043          14.8963032426      DE        A1 (1)
   30   145           0.6250382273          17.0081548437      PI        B2 (3)
   31    93           0.6250382273          17.0081548437      PI        B1 (2)
   32    16           0.7285708957          19.8254219768     SG+        A1 (1)
   33   146           0.7389249346          20.1071696993      PH        B2 (3)
   34    94           0.7389249346          20.1071696993      PH        B1 (2)
   35   193           0.7501345976          20.4122001364      DE        A2 (4)
   36    17           0.7501345976          20.4122001364      DE        A1 (1)
   37   147           0.7900135144          21.4973606313      PI        B2 (3)
   38    95           0.7900135144          21.4973606313      PI        B1 (2)
   39    18           0.8252911018          22.4573125865     SG+        A1 (1)
   40    19           0.8684977536          23.6330253561     SG+        A1 (1)
   41    20           0.8722670760          23.7355938322      DE        A1 (1)
   42   194           0.8722670760          23.7355938322      DE        A2 (4)
   43   148           0.8974173200          24.4199667632      PI        B2 (3)
   44    96           0.8974173200          24.4199667632      PI        B1 (2)
   45   149           1.0328685272          28.1057814957      PI        B2 (3)
   46    97           1.0328685272          28.1057814957      PI        B1 (2)
   47    21           1.1228675122          30.5547783809     SG+        A1 (1)
   48    22           1.3954276792          37.9715175858     SG+        A1 (1)
   49   150           1.4276473196          38.8482585728      PH        B2 (3)
   50    98           1.4276473196          38.8482585728      PH        B1 (2)
   51   151           1.5474855453          42.1092224799      PI        B2 (3)
   52    99           1.5474855453          42.1092224799      PI        B1 (2)
   53   195           1.5667863779          42.6344248337      DE        A2 (4)
   54    23           1.5667863779          42.6344248337      DE        A1 (1)
   55    24           1.6267802522          44.2669411493     SG+        A1 (1)
   56   100           1.6441904674          44.7406971911      PI        B1 (2)
   57   152           1.6441904674          44.7406971911      PI        B2 (3)
   58    25           1.7116006085          46.5750203865      DE        A1 (1)
   59   196           1.7116006085          46.5750203865      DE        A2 (4)
   60    26           1.8882185583          51.3810391332     SG+        A1 (1)
   61    27           2.0021201889          54.4804600740     SG+        A1 (1)
   62   197           2.0821266787          56.6575473418      PI        A2 (4)
   63    28           2.0821266787          56.6575473418      PI        A1 (1)
   64   153           2.0879700202          56.8165527483      PI        B2 (3)
   65   101           2.0879700202          56.8165527483      PI        B1 (2)
   66   198           2.1463872701          58.4061669310      DE        A2 (4)
   67    29           2.1463872701          58.4061669310      DE        A1 (1)
   68   154           2.2230513037          60.4923013429      PH        B2 (3)
   69   102           2.2230513037          60.4923013429      PH        B1 (2)
   70   155           2.2582657934          61.4505363241      PI        B2 (3)
   71   103           2.2582657934          61.4505363241      PI        B1 (2)
   72   156           2.2587644303          61.4641049219      PH        B2 (3)
   73   104           2.2587644303          61.4641049219      PH        B1 (2)
   74    30           2.2642302343          61.6128370107     SG+        A1 (1)
   75    31           2.3111642826          62.8899773955      DE        A1 (1)
   76   199           2.3111642826          62.8899773955      DE        A2 (4)
   77    32           2.4889648524          67.7281768681     SG+        A1 (1)
   78   105           2.5230557347          68.6558369365      PI        B1 (2)
   79   157           2.5230557347          68.6558369365      PI        B2 (3)
   80    33           2.6034773860          70.8442213233     SG+        A1 (1)
   81   106           2.6334692335          71.6603409855      PI        B1 (2)
   82   158           2.6334692335          71.6603409855      PI        B2 (3)
   83    34           2.7589212369          75.0740635468      DE        A1 (1)
   84   200           2.7589212369          75.0740635469      DE        A2 (4)
   85    35           3.1978270041          87.0172966559     SG+        A1 (1)
   86   107           3.5457224360          96.4840126364      PI        B1 (2)
   87   159           3.5457224360          96.4840126364      PI        B2 (3)
   88    36           3.7014094005         100.7204703174      PI        A1 (1)
   89   201           3.7014094005         100.7204703174      PI        A2 (4)
   90    37           3.9032210061         106.2120432923     SG+        A1 (1)
   91   160           4.0033340338         108.9362572730      PH        B2 (3)
   92   108           4.0033340338         108.9362572730      PH        B1 (2)
   93   161           4.1274120417         112.3125915162      PH        B2 (3)
   94   109           4.1274120417         112.3125915162      PH        B1 (2)
   95   110           4.1660991636         113.3653216244      PI        B1 (2)
   96   162           4.1660991636         113.3653216244      PI        B2 (3)
   97    38           4.2023702673         114.3523085326     SG+        A1 (1)
   98   202           4.2222903215         114.8943607646      DE        A2 (4)
   99    39           4.2222903215         114.8943607646      DE        A1 (1)
  100    40           4.2746346632         116.3187227149      DE        A1 (1)
  101   203           4.2746346632         116.3187227150      DE        A2 (4)
  102    41           4.4157613142         120.1589741243     SG+        A1 (1)
  103   111           4.6844075806         127.4692106772      PI        B1 (2)
  104   163           4.6844075806         127.4692106772      PI        B2 (3)
  105   204           4.8493115771         131.9564765501      DE        A2 (4)
  106    42           4.8493115771         131.9564765502      DE        A1 (1)
  107    43           4.8653192059         132.3920662750     SG+        A1 (1)
  108   112           5.1169603085         139.2395687978      PI        B1 (2)
  109   164           5.1169603085         139.2395687979      PI        B2 (3)
  110    44           5.3791684634         146.3746154294     SG+        A1 (1)
  111   165           5.4446857228         148.1574306970      PI        B2 (3)
  112   113           5.4446857229         148.1574306970      PI        B1 (2)
  113   205           5.8534432300         159.2802879404      PI        A2 (4)
  114    45           5.8534432300         159.2802879404      PI        A1 (1)
  115   166           5.9426470443         161.7076471326      PH        B2 (3)
  116   114           5.9426470443         161.7076471326      PH        B1 (2)
  117    46           6.1481720397         167.3002665816     SG+        A1 (1)
  118   206           6.1795686621         168.1546121108      DE        A2 (4)
  119    47           6.1795686621         168.1546121108      DE        A1 (1)
  120   115           6.2016247647         168.7547891765      PI        B1 (2)
  121   167           6.2016247647         168.7547891765      PI        B2 (3)
  122    48           6.2852015788         171.0290299065     SG+        A1 (1)
  123   168           6.3860038480         173.7719991022      PH        B2 (3)
  124   116           6.3860038480         173.7719991022      PH        B1 (2)
  125    49           6.5132383607         177.2342262097      DE        A1 (1)
  126   207           6.5132383607         177.2342262098      DE        A2 (4)
  127   208           6.5208917113         177.4424844653      DE        A2 (4)
  128    50           6.5208917113         177.4424844653      DE        A1 (1)
  129   117           6.9502212484         189.1251351062      PI        B1 (2)
  130   169           6.9502212484         189.1251351062      PI        B2 (3)
  131    51           7.2394603542         196.9957313063     SG+        A1 (1)
  132   118           7.6246853129         207.4782353547      PI        B1 (2)
  133   170           7.6246853129         207.4782353547      PI        B2 (3)
  134    52           8.2543665762         224.6127336282     SG+        A1 (1)
  135    53           9.7178741887         264.4368003807     SG+        A1 (1)
  136   119           9.9382441288         270.4333713115      PI        B1 (2)
  137   171           9.9382441288         270.4333713116      PI        B2 (3)
  138    54          10.6307978367         289.2787157834      PI        A1 (1)
  139   209          10.6307978367         289.2787157834      PI        A2 (4)
  140    55          10.7515466046         292.5644568005     SG+        A1 (1)
  141   172          10.7622772016         292.8564511891      PH        B2 (3)
  142   120          10.7622772016         292.8564511891      PH        B1 (2)
  143   210          10.9970963344         299.2462046421      DE        A2 (4)
  144    56          10.9970963344         299.2462046421      DE        A1 (1)
  145   121          11.0394944970         300.3999173012      PI        B1 (2)
  146   173          11.0394944970         300.3999173012      PI        B2 (3)
  147    57          11.3120978754         307.8178323453     SG+        A1 (1)
  148   174          11.8718366385         323.0490984332      PH        B2 (3)
  149   122          11.8718366385         323.0490984333      PH        B1 (2)
  150   211          12.0487754553         327.8638484156      DE        A2 (4)
  151    58          12.0487754553         327.8638484158      DE        A1 (1)
  152   123          12.5758819533         342.2071454236      PI        B1 (2)
  153   175          12.5758819533         342.2071454236      PI        B2 (3)
  154    59          12.7535310171         347.0412222089      DE        A1 (1)
  155   212          12.7535310171         347.0412222089      DE        A2 (4)
  156    60          12.8463595925         349.5672161669     SG+        A1 (1)
  157   124          13.0996182734         356.4587352305      PI        B1 (2)
  158   176          13.0996182734         356.4587352305      PI        B2 (3)
  159    61          13.8968036889         378.1512532129     SG+        A1 (1)
  160    62          17.4866155399         475.8349998248     SG+        A1 (1)
  161   177          18.8618429717         513.2568407345      PI        B2 (3)
  162   125          18.8618429717         513.2568407347      PI        B1 (2)
  163    63          20.2141262757         550.0543401829     SG+        A1 (1)
  164   213          26.3192949271         716.1844250802      DE        A2 (4)
  165    64          26.3192949271         716.1844250802      DE        A1 (1)
  166   126          26.7186005908         727.0500845866      PI        B1 (2)
  167   178          26.7186005908         727.0500845866      PI        B2 (3)
  168    65          27.2258430257         740.8528529603     SG+        A1 (1)
  169   127          33.5949049498         914.1638388742      PI        B1 (2)
  170   179          33.5949049498         914.1638388744      PI        B2 (3)
  171    66          34.3482616422         934.6637166682     SG+        A1 (1)
  172    67          35.9359377398         977.8665796774     SG+        A1 (1)
  173    68          47.0767316866        1281.0229951437      DE        A1 (1)
  174   214          47.0767316866        1281.0229951437      DE        A2 (4)
  175   128          47.2634260190        1286.1032061993      PI        B1 (2)
  176   180          47.2634260190        1286.1032061994      PI        B2 (3)
  177    69          47.7449616562        1299.2064570462     SG+        A1 (1)
  178    70          63.8910003508        1738.5625063540     SG+        A1 (1)
  179   181          66.4174552554        1807.3108394079      PI        B2 (3)
  180   129          66.4174552554        1807.3108394081      PI        B1 (2)
  181    71          67.3863025690        1833.6745151135     SG+        A1 (1)
  182   182          98.5530889369        2681.7658883169      PH        B2 (3)
  183   130          98.5530889369        2681.7658883169      PH        B1 (2)
  184   215          98.5665745766        2682.1328512276      DE        A2 (4)
  185    72          98.5665745766        2682.1328512276      DE        A1 (1)
  186   131          98.5849031859        2682.6315980437      PI        B1 (2)
  187   183          98.5849031859        2682.6315980437      PI        B2 (3)
  188    73          98.6032697521        2683.1313777181     SG+        A1 (1)
  189   184         103.2927769357        2810.7393556492      PH        B2 (3)
  190   132         103.2927769357        2810.7393556492      PH        B1 (2)
  191   216         103.3061717058        2811.1038458725      DE        A2 (4)
  192    74         103.3061717058        2811.1038458726      DE        A1 (1)
  193   185         103.3491478644        2812.2732866028      PI        B2 (3)
  194   133         103.3491478644        2812.2732866028      PI        B1 (2)
  195    75         103.3514595347        2812.3361903487     SG+        A1 (1)
  196   217         115.0133249518        3129.6716813709      DE        A2 (4)
  197    76         115.0133249518        3129.6716813710      DE        A1 (1)
  198   186         115.2049770166        3134.8867991860      PI        B2 (3)
  199   134         115.2049770166        3134.8867991860      PI        B1 (2)
  200    77         115.4816115107        3142.4144064678     SG+        A1 (1)
  201   135         116.8730823330        3180.2782525017      PI        B1 (2)
  202   187         116.8730823330        3180.2782525017      PI        B2 (3)
  203    78         117.4906467093        3197.0830335209     SG+        A1 (1)
  204    79         122.1322699522        3323.3880231816     SG+        A1 (1)
  205   218         198.5516294391        5402.8645133620      DE        A2 (4)
  206    80         198.5516294391        5402.8645133620      DE        A1 (1)
  207   136         198.6525100051        5405.6096131214      PI        B1 (2)
  208   188         198.6525100051        5405.6096131215      PI        B2 (3)
  209    81         198.9050386778        5412.4812676529     SG+        A1 (1)
  210    82         216.4232690882        5889.1765518400     SG+        A1 (1)
  211   189         224.8833580095        6119.3872750759      PI        B2 (3)
  212   137         224.8833580095        6119.3872750760      PI        B1 (2)
  213    83         225.6361716214        6139.8723748982     SG+        A1 (1)
  214   138         395.3605238074       10758.3067945469      PI        B1 (2)
  215   190         395.3605238074       10758.3067945471      PI        B2 (3)
  216    84         395.8897037801       10772.7065136735     SG+        A1 (1)
  217    85         508.7880506009       13844.8267142391     SG+        A1 (1)
  218    86         895.2537557255       24361.0931873373     SG+        A1 (1)


  VSCF finished.

 @CHECKOUT-I, Total execution time (CPU/WALL):       54.64/      12.55 seconds.
--executable xvscf finished with status     0 in       12.58 seconds (walltime).
 --invoking executable--
/nfs/workspaces/public/cfour_mpi/bin/xvtran
 @GETMEM-I,  Allocated    3814 MB of main memory.
  Full RHF integral transformation
  Transformation of IIII integrals :
  1 pass through the AO integral file was required.
     4490007 AO integrals were read.
     8713939 MO integrals were written to HF2.
  Transformation of IIJJ integrals :
  1 pass through the AO integral file was required.
    10193908 AO integrals were read.
    14486660 MO integrals were written to HF2.
  Transformation of IJIJ integrals :
  1 pass through the AO integral file was required.
    19359778 AO integrals were read.
    27096463 MO integrals were written to HF2.
  Transformation of IJKL integrals :
  1 pass through the AO integral file was required.
    14327117 AO integrals were read.
    18315096 MO integrals were written to HF2.
  Summary of active molecular orbitals: 
------------------------------------------------------------------------
 
  Index      Eigenvalue    Symmetry    Index      Eigenvalue    Symmetry
------------------------------------------------------------------------
     1       -20.6596756        1       110         4.1274120        2
     2       -11.4778665        1       111         4.1660992        2
     3        -1.3466903        1       112         4.6844076        2
     4        -0.7943329        1       113         5.1169603        2
     5        -0.5591540        1       114         5.4446857        2
     6        -0.5363299        2       115         5.9426470        2
     7        -0.5363299        3       116         6.2016248        2
     8         0.0631209        1       117         6.3860038        2
     9         0.0684078        1       118         6.9502212        2
    10         0.1573718        1       119         7.6246853        2
    11         0.2230019        1       120         9.9382441        2
    12         0.2246877        1       121        10.7622772        2
    13         0.2994817        1       122        11.0394945        2
    14         0.3617959        1       123        11.8718366        2
    15         0.4749527        1       124        12.5758820        2
    16         0.5118855        1       125        13.0996183        2
    17         0.5474291        1       126        18.8618430        2
    18         0.7285709        1       127        26.7186006        2
    19         0.7501346        1       128        33.5949049        2
    20         0.8252911        1       129        47.2634260        2
    21         0.8684978        1       130        66.4174553        2
    22         0.8722671        1       131        98.5530889        2
    23         1.1228675        1       132        98.5849032        2
    24         1.3954277        1       133       103.2927769        2
    25         1.5667864        1       134       103.3491479        2
    26         1.6267803        1       135       115.2049770        2
    27         1.7116006        1       136       116.8730823        2
    28         1.8882186        1       137       198.6525100        2
    29         2.0021202        1       138       224.8833580        2
    30         2.0821267        1       139       395.3605238        2
    31         2.1463873        1       140         0.0269294        3
    32         2.2642302        1       141         0.0876598        3
    33         2.3111643        1       142         0.1738823        3
    34         2.4889649        1       143         0.2948847        3
    35         2.6034774        1       144         0.3996111        3
    36         2.7589212        1       145         0.6250382        3
    37         3.1978270        1       146         0.7389249        3
    38         3.7014094        1       147         0.7900135        3
    39         3.9032210        1       148         0.8974173        3
    40         4.2023703        1       149         1.0328685        3
    41         4.2222903        1       150         1.4276473        3
    42         4.2746347        1       151         1.5474855        3
    43         4.4157613        1       152         1.6441905        3
    44         4.8493116        1       153         2.0879700        3
    45         4.8653192        1       154         2.2230513        3
    46         5.3791685        1       155         2.2582658        3
    47         5.8534432        1       156         2.2587644        3
    48         6.1481720        1       157         2.5230557        3
    49         6.1795687        1       158         2.6334692        3
    50         6.2852016        1       159         3.5457224        3
    51         6.5132384        1       160         4.0033340        3
    52         6.5208917        1       161         4.1274120        3
    53         7.2394604        1       162         4.1660992        3
    54         8.2543666        1       163         4.6844076        3
    55         9.7178742        1       164         5.1169603        3
    56        10.6307978        1       165         5.4446857        3
    57        10.7515466        1       166         5.9426470        3
    58        10.9970963        1       167         6.2016248        3
    59        11.3120979        1       168         6.3860038        3
    60        12.0487755        1       169         6.9502212        3
    61        12.7535310        1       170         7.6246853        3
    62        12.8463596        1       171         9.9382441        3
    63        13.8968037        1       172        10.7622772        3
    64        17.4866155        1       173        11.0394945        3
    65        20.2141263        1       174        11.8718366        3
    66        26.3192949        1       175        12.5758820        3
    67        27.2258430        1       176        13.0996183        3
    68        34.3482616        1       177        18.8618430        3
    69        35.9359377        1       178        26.7186006        3
    70        47.0767317        1       179        33.5949049        3
    71        47.7449617        1       180        47.2634260        3
    72        63.8910004        1       181        66.4174553        3
    73        67.3863026        1       182        98.5530889        3
    74        98.5665746        1       183        98.5849032        3
    75        98.6032698        1       184       103.2927769        3
    76       103.3061717        1       185       103.3491479        3
    77       103.3514595        1       186       115.2049770        3
    78       115.0133250        1       187       116.8730823        3
    79       115.4816115        1       188       198.6525100        3
    80       117.4906467        1       189       224.8833580        3
    81       122.1322700        1       190       395.3605238        3
    82       198.5516294        1       191         0.2246877        4
    83       198.9050387        1       192         0.5474291        4
    84       216.4232691        1       193         0.7501346        4
    85       225.6361716        1       194         0.8722671        4
    86       395.8897038        1       195         1.5667864        4
    87       508.7880506        1       196         1.7116006        4
    88       895.2537557        1       197         2.0821267        4
    89         0.0269294        2       198         2.1463873        4
    90         0.0876598        2       199         2.3111643        4
    91         0.1738823        2       200         2.7589212        4
    92         0.2948847        2       201         3.7014094        4
    93         0.3996111        2       202         4.2222903        4
    94         0.6250382        2       203         4.2746347        4
    95         0.7389249        2       204         4.8493116        4
    96         0.7900135        2       205         5.8534432        4
    97         0.8974173        2       206         6.1795687        4
    98         1.0328685        2       207         6.5132384        4
    99         1.4276473        2       208         6.5208917        4
   100         1.5474855        2       209        10.6307978        4
   101         1.6441905        2       210        10.9970963        4
   102         2.0879700        2       211        12.0487755        4
   103         2.2230513        2       212        12.7535310        4
   104         2.2582658        2       213        26.3192949        4
   105         2.2587644        2       214        47.0767317        4
   106         2.5230557        2       215        98.5665746        4
   107         2.6334692        2       216       103.3061717        4
   108         3.5457224        2       217       115.0133250        4
   109         4.0033340        2       218       198.5516294        4
------------------------------------------------------------------------
  -20.6596755650165       -11.4778665358722       -1.34669026197713     
 -0.794332867559566      -0.559153966963857      -0.536329931379397     
 -0.536329931379442       6.312092161062102E-002  6.840784856091701E-002
  0.157371783738442       0.223001941541516       0.224687707855403     
  0.299481730771863       0.361795923840848       0.474952742364432     
  0.511885537571576       0.547429104344310       0.728570895692955     
  0.750134597582488       0.825291101757518       0.868497753630515     
  0.872267075999071        1.12286751216514        1.39542767920377     
   1.56678637785616        1.62678025216812        1.71160060853289     
   1.88821855831022        2.00212018893718        2.08212667871067     
   2.14638727007736        2.26423023427371        2.31116428264810     
   2.48896485241202        2.60347738598685        2.75892123686901     
   3.19782700411538        3.70140940050140        3.90322100611532     
   4.20237026731203        4.22229032150661        4.27463466318842     
   4.41576131422747        4.84931157708734        4.86531920589363     
   5.37916846335005        5.85344322995248        6.14817203970747     
[...]
 Convergence information after    14 iterations: 
 Largest element of residual vector : -0.13150043E-05.
 Largest element of DIIS residual   : -0.88718327E-06.
 Convergence information after    15 iterations: 
 Largest element of residual vector : -0.67801586E-06.
 Largest element of DIIS residual   : -0.49817885E-06.
 Convergence information after    16 iterations: 
 Largest element of residual vector : -0.40118117E-06.
 Largest element of DIIS residual   : -0.17033560E-06.
 Convergence information after    17 iterations: 
 Largest element of residual vector : -0.12253423E-06.
 Largest element of DIIS residual   : -0.43287178E-07.
 Perturbed amplitude equations converged in    17 iterations.
  Dominant contributions to perturbed wavefunction:
    7    7  140   28   0.2460087335 ABAB
    7    7   28  140   0.2460087335 ABAB
    7    7  140   39  -0.2220034293 ABAB
    7    7   39  140  -0.2220034293 ABAB
    7    7  140   54  -0.1709964982 ABAB
    7    7   54  140  -0.1709964982 ABAB
    7    7  140   21  -0.1673850161 ABAB
    7    7   21  140  -0.1673850161 ABAB
    7    7  140   45   0.1572910672 ABAB
    7    7   45  140   0.1572910672 ABAB
    7    6   28   89   0.1556957951 ABAB
    6    7   89   28   0.1556957951 ABAB
    7    6   39   89  -0.1412141027 ABAB
    6    7   89   39  -0.1412141027 ABAB
    7    7  140   57   0.1355176187 ABAB
    7    7   57  140   0.1355176187 ABAB
    7    7  140   20  -0.1328349195 ABAB
    7    7   20  140  -0.1328349195 ABAB
    7    7  140   24   0.1313170791 ABAB
    7    7   24  140   0.1313170791 ABAB
  norm of converged amps    1.86454379149669     
 Starting iterative solution of the perturbed Lambda equations.
 The DIIS procedure is used to accelerate convergence.
 Convergence criterion is 10**(-7).
 Maximum number of iterations is 100.
 Convergence information after     1 iterations: 
 Largest element of residual vector :  0.64975177E-01.
 Largest element of DIIS residual   :  0.64975177E-01.
 Convergence information after     2 iterations: 
 Largest element of residual vector : -0.12061795E-01.
 Largest element of DIIS residual   : -0.85392991E-02.
 Convergence information after     3 iterations: 
 Largest element of residual vector :  0.59635857E-02.
 Largest element of DIIS residual   :  0.54812245E-02.
 Convergence information after     4 iterations: 
 Largest element of residual vector :  0.37319320E-02.
 Largest element of DIIS residual   :  0.32795985E-02.
 Convergence information after     5 iterations: 
 Largest element of residual vector :  0.27902940E-02.
 Largest element of DIIS residual   :  0.17946686E-02.
 Convergence information after     6 iterations: 
 Largest element of residual vector :  0.11950837E-02.
 Largest element of DIIS residual   :  0.51482139E-03.
 Convergence information after     7 iterations: 
 Largest element of residual vector :  0.50849965E-03.
 Largest element of DIIS residual   : -0.19224838E-03.
 Convergence information after     8 iterations: 
 Largest element of residual vector :  0.12137375E-03.
 Largest element of DIIS residual   :  0.90720305E-04.
 Convergence information after     9 iterations: 
 Largest element of residual vector :  0.55069746E-04.
 Largest element of DIIS residual   : -0.16684072E-04.
 Convergence information after    10 iterations: 
 Largest element of residual vector : -0.14267338E-04.
 Largest element of DIIS residual   : -0.63652317E-05.
 Convergence information after    11 iterations: 
 Largest element of residual vector : -0.35162980E-05.
 Largest element of DIIS residual   : -0.25916940E-05.
 Convergence information after    12 iterations: 
 Largest element of residual vector : -0.21840453E-05.
 Largest element of DIIS residual   : -0.16756884E-05.
 Convergence information after    13 iterations: 
 Largest element of residual vector : -0.13137409E-05.
 Largest element of DIIS residual   : -0.12099129E-05.
 Convergence information after    14 iterations: 
 Largest element of residual vector : -0.10171351E-05.
 Largest element of DIIS residual   : -0.82905574E-06.
 Convergence information after    15 iterations: 
 Largest element of residual vector : -0.61586615E-06.
 Largest element of DIIS residual   : -0.43669910E-06.
 Convergence information after    16 iterations: 
 Largest element of residual vector : -0.35461919E-06.
 Largest element of DIIS residual   : -0.18486304E-06.
 Convergence information after    17 iterations: 
 Largest element of residual vector : -0.13137547E-06.
 Largest element of DIIS residual   :  0.50939773E-07.
 Perturbed Lambda equations converged in    17 iterations.
  Dominant contributions to perturbed wavefunction:
    7    7  140   28   0.2196720934 ABAB
    7    7   28  140   0.2196720934 ABAB
    7    7  140   39  -0.1954912704 ABAB
    7    7   39  140  -0.1954912704 ABAB
    7    7  140   54  -0.1536384145 ABAB
    7    7   54  140  -0.1536384145 ABAB
    7    7  140   21  -0.1483837164 ABAB
    7    7   21  140  -0.1483837164 ABAB
    7    7  140   45   0.1386205872 ABAB
    7    7   45  140   0.1386205872 ABAB
    7    6   28   89   0.1365896711 ABAB
    6    7   89   28   0.1365896711 ABAB
    7    6   39   89  -0.1222576278 ABAB
    6    7   89   39  -0.1222576278 ABAB
    7    7  140   57   0.1185955872 ABAB
    7    7   57  140   0.1185955872 ABAB
    7    7  140   20  -0.1158972967 ABAB
    7    7   20  140  -0.1158972967 ABAB
    7    7  140   29  -0.1132014152 ABAB
    7    7   29  140  -0.1132014152 ABAB
        The DBOC first-order density matrix is being calculated 
             (Symmetry block 3, perturbation   2)
 term   3.82783728108965     
 final tnorm  0.840509914761538     
  norm contr. I: |<0|L dT/dx|0>|^2   0.000000000000000E+000
  norm contr. II: <0|[nabla(1+L)e-T][nabla e^T]|0>   3.82783728108965     
  total norm contribution   3.82783728108965     
 oo  8.037433970065708E-003
 vv  -28.6852896257905     
 vo  7.136002971536842E-002
  Correlated perturbed 1-el contribution to DBOC  -28.6058921621050       cm**-1
  SUM_I |dc_I/dx|^2 contribution to DBOC   14.4106957877357       cm**-1
 
 
  The total diagonal Born-Oppenheimer correction (DBOC) is:      0.0040080777 a.u.
  The total diagonal Born-Oppenheimer correction (DBOC) is:        879.671376 cm-1
 
 Total CC energy including DBOC  -113.167686196306     
 First-order density matrix is being calculated  (Symmetry block 3, perturbation   2)
 Calculation of the contributions of <pq||rs> to dI(i,j)/dx required   6.3 seconds.
 Calculation of the contributions of <pq||rs> to dI(a,b)/dx required  16.9 seconds.
 Calculation of the contributions of <pq||rs> to dI(i,a)/dx required   9.9 seconds.
 First-order Z-vector equations are solved for 1 perturbation.
 Convergence reached after  20 iterations.
        U*G(pq,rs) contribution is being calculated
             (Symmetry block 3, perturbation   2)

 CCSD contribution to force constants 

        0.0000000000        0.0000000000        0.0000000000
        0.0000000000        0.0000000000        0.0000000000
        0.0000000000        0.0000000000        0.0000000000
        0.0000000000        0.0000000000        0.0000000000
        0.0000000000        0.0000000000        0.0000000000
        0.0000000000        0.0000000000        0.0000000000
        0.0000000000        0.0000000000        0.0000000000
        0.0000000000        0.0000000000        0.0000000000
        0.0000000000        0.0000000000        0.0000000000
        0.0000000000        0.0000000000        0.0000000000
        0.0000000000        0.0000000000        0.0000000000
        0.0000000000       -0.2646242176        0.2646242176

 CCSD contribution to dipole derivatives 

        0.0000000000        0.0000000000        0.0000000000
        0.0000000000        0.0000000000        0.0000000000
        0.0000000000        0.0000000000        0.0000000000
        0.0000000000        0.0000000000       -0.0549902239
        0.0000000000        0.0000000000        0.0000000000
        0.0000000000        0.0000000000        0.0000000000
 @CHECKOUT-I, Total execution time (CPU/WALL):     1343.60/     513.74 seconds.
--executable xsdcc finished with status     0 in      513.99 seconds (walltime).
 --invoking executable--
/nfs/workspaces/public/cfour_mpi/bin/xanti
 @GETMEM-I,  Allocated    3814 MB of main memory.
 CCSD MO derivative gammas will be sorted to Mulliken order.
 @CHECKOUT-I, Total execution time (CPU/WALL):       13.09/      36.30 seconds.
--executable xanti finished with status     0 in       36.45 seconds (walltime).
 --invoking executable--
/nfs/workspaces/public/cfour_mpi/bin/xbcktrn
 @GETMEM-I,  Allocated    3814 MB of main memory.
 CCSD MO derivative gammas will be transformed to the AO basis.
 @CHECKOUT-I, Total execution time (CPU/WALL):       25.82/       3.98 seconds.
--executable xbcktrn finished with status     0 in        4.04 seconds (walltime).
 --invoking executable--
/nfs/workspaces/public/cfour_mpi/bin/xvdint
 @GETMEM-I,  Allocated    3814 MB of main memory.
 One- and two-electron integral derivatives are calculated
 for RHF-CC/MBPT hessians and dipole derivatives.
 Spherical gaussians are used.
  magnet F F
                    8722  records have been written to the Sort file.
  Total length of Sort file :             178609116  words.
 Evaluation of 2el integral derivatives

                      Two-electron integral gradient
                      ------------------------------

                         C #1 z     0.0000000000
                         O #2 z     0.0000000000


 C #1       0.0000000000           -0.0311030925            0.0000000000
 O #2       0.0000000000            0.0311030925            0.0000000000


 Evaluation of 2e integral derivatives required  362.10 seconds.
  contribution to Hessian
        0.0000000000        0.0000000000        0.0000000000
        0.0000000000       -0.0311030925        0.0311030925
 @CHECKOUT-I, Total execution time (CPU/WALL):      362.10/      74.28 seconds.
--executable xvdint finished with status     0 in       74.43 seconds (walltime).
 --invoking executable--
/nfs/workspaces/public/cfour_mpi/bin/xanti
 @GETMEM-I,  Allocated    3814 MB of main memory.
 CCSD MO gammas will be sorted to Mulliken order.
 @CHECKOUT-I, Total execution time (CPU/WALL):       15.88/      61.31 seconds.
--executable xanti finished with status     0 in       61.48 seconds (walltime).
 --invoking executable--
/nfs/workspaces/public/cfour_mpi/bin/xbcktrn
 @GETMEM-I,  Allocated    3814 MB of main memory.
 CCSD MO gammas will be transformed to the AO basis.
 @CHECKOUT-I, Total execution time (CPU/WALL):       59.13/      11.13 seconds.
--executable xbcktrn finished with status     0 in       11.20 seconds (walltime).
 --invoking executable--
/nfs/workspaces/public/cfour_mpi/bin/xvdint
 @GETMEM-I,  Allocated    3814 MB of main memory.
 One- and two-electron integral derivatives are calculated
 for RHF-CC/MBPT hessians and dipole derivatives.
 Spherical gaussians are used.
  magnet F F

                     Kinetic energy integral gradient
                     --------------------------------

                         C #1 z    -0.7711272863
                         O #2 z     0.7711272863


 C #1       0.0000000000            0.0000000000           -0.7711272863
 O #2       0.0000000000            0.0000000000            0.7711272863



                   Nuclear attraction integral gradient
                   ------------------------------------

                         C #1 z    16.5801268264
                         O #2 z   -16.5801268264


 C #1       0.0000000000            0.0000000000           16.5801268264
 O #2       0.0000000000            0.0000000000          -16.5801268264



                      Reorthonormalization gradient
                      -----------------------------

                         C #1 z     0.0000000000
                         O #2 z     0.0000000000


 C #1       0.0000000000            0.0000000000            0.0000000000
 O #2       0.0000000000            0.0000000000            0.0000000000



                     Kinetic energy integral Hessian
                     -------------------------------


           Symmetry 1

           C #1 z      O #2 z

 C #1 z    0.781361
 O #2 z   -0.781361    0.781361


           Symmetry 2

           C #1 x      O #2 x

 C #1 x   -0.698875
 O #2 x    0.698875   -0.698875


           Symmetry 3

           C #1 y      O #2 y

 C #1 y   -0.698875
 O #2 y    0.698875   -0.698875




           C #1 x      C #1 y      C #1 z      O #2 x      O #2 y      O #2 z

 C #1 x   -0.698875
 C #1 y    0.000000   -0.698875
 C #1 z    0.000000    0.000000    0.781361

 O #2 x    0.698875    0.000000    0.000000   -0.698875
 O #2 y    0.000000    0.698875    0.000000    0.000000   -0.698875
 O #2 z    0.000000    0.000000   -0.781361    0.000000    0.000000    0.781361




                   Nuclear attraction integral Hessian
                   -----------------------------------


           Symmetry 1

           C #1 z      O #2 z

 C #1 z  -10.272690
 O #2 z   10.272690  -10.272690


           Symmetry 2

           C #1 x      O #2 x

 C #1 x   10.432605
 O #2 x  -10.432605   10.432605


           Symmetry 3

           C #1 y      O #2 y

 C #1 y   10.432605
 O #2 y  -10.432605   10.432605




           C #1 x      C #1 y      C #1 z      O #2 x      O #2 y      O #2 z

 C #1 x   10.432605
 C #1 y    0.000000   10.432605
 C #1 z    0.000000    0.000000  -10.272690

 O #2 x  -10.432605    0.000000    0.000000   10.432605
 O #2 y    0.000000  -10.432605    0.000000    0.000000   10.432605
 O #2 z    0.000000    0.000000   10.272690    0.000000    0.000000  -10.272690




                Highest order reorthonormalization Hessian
                ------------------------------------------


           Symmetry 1

           C #1 z      O #2 z

 C #1 z    0.000000
 O #2 z    0.000000    0.000000


           Symmetry 2

           C #1 x      O #2 x

 C #1 x    0.000000
 O #2 x    0.000000    0.000000


           Symmetry 3

           C #1 y      O #2 y

 C #1 y    0.000000
 O #2 y    0.000000    0.000000




           C #1 x      C #1 y      C #1 z      O #2 x      O #2 y      O #2 z




                Electronic contributions to dipole moment
                -----------------------------------------

                               au             Debye

                    z      1.05715094      2.68701013

  Conversion factor used: 1 a.u. =   2.54174691 Debye 



   Electronic contributions to static part of dipole moment derivatives
   --------------------------------------------------------------------


                     Total dipole moment derivatives
                     -------------------------------


           Symmetry 1
                              Ez

               C #1 z    -5.66907899
               O #2 z    -8.33092101

           Symmetry 2
                              Ex

               C #1 x    -5.67691947
               O #2 x    -8.32308053

           Symmetry 3
                              Ey

               C #1 y    -5.67691947
               O #2 y    -8.32308053



                       Ex          Ey          Ez

      C #1    x   -5.676919    0.000000    0.000000
      C #1    y    0.000000   -5.676919    0.000000
      C #1    z    0.000000    0.000000   -5.669079

      O #2    x   -8.323081    0.000000    0.000000
      O #2    y    0.000000   -8.323081    0.000000
      O #2    z    0.000000    0.000000   -8.330921

 Evaluation of 1e integral derivatives required    1.92 seconds.
                    8815  records have been written to the Sort file.
  Total length of Sort file :             180513570  words.
 Evaluation of 2el integral derivatives

                      Two-electron integral gradient
                      ------------------------------

                         C #1 z    -8.5510148214
                         O #2 z     8.5510148214


 C #1       0.0000000000            0.0000000000           -8.5510148214
 O #2       0.0000000000            0.0000000000            8.5510148214


 Evaluation of 2e integral derivatives required  721.62 seconds.

                            Molecular gradient
                            ------------------

                         C #1 z     0.6626227622
                         O #2 z    -0.6626227622


 C #1       0.0000000000            0.0000000000            0.6626227622
 O #2       0.0000000000            0.0000000000           -0.6626227622


  Molecular gradient norm 0.937E+00

                            Molecular hessian
                            -----------------


           Symmetry 1

           C #1 z      O #2 z

 C #1 z   28.298265
 O #2 z  -28.298265   28.298265


           Symmetry 2

           C #1 x      O #2 x

 C #1 x    0.578375
 O #2 x   -0.578375    0.578375


           Symmetry 3

           C #1 y      O #2 y

 C #1 y    0.578375
 O #2 y   -0.578375    0.578375




           C #1 x      C #1 y      C #1 z      O #2 x      O #2 y      O #2 z

 C #1 x    0.578375
 C #1 y    0.000000    0.578375
 C #1 z    0.000000    0.000000   28.298265

 O #2 x   -0.578375    0.000000    0.000000    0.578375
 O #2 y    0.000000   -0.578375    0.000000    0.000000    0.578375
 O #2 z    0.000000    0.000000  -28.298265    0.000000    0.000000   28.298265




                           Total dipole moment
                           -------------------

                               au             Debye

                    z      0.30756489      0.78175211

  Conversion factor used: 1 a.u. =   2.54174691 Debye 



                     Total dipole moment derivatives
                     -------------------------------


           Symmetry 1
                              Ez

               C #1 z     0.65734030
               O #2 z    -0.65734030

           Symmetry 2
                              Ex

               C #1 x     0.11814299
               O #2 x    -0.11814299

           Symmetry 3
                              Ey

               C #1 y     0.11814299
               O #2 y    -0.11814299



                       Ex          Ey          Ez

      C #1    x    0.118143    0.000000    0.000000
      C #1    y    0.000000    0.118143    0.000000
      C #1    z    0.000000    0.000000    0.657340

      O #2    x   -0.118143    0.000000    0.000000
      O #2    y    0.000000   -0.118143    0.000000
      O #2    z    0.000000    0.000000   -0.657340

 @CHECKOUT-I, Total execution time (CPU/WALL):      723.53/     132.48 seconds.
--executable xvdint finished with status     0 in      132.67 seconds (walltime).
 --invoking executable--
/nfs/workspaces/public/cfour_mpi/bin/xjoda
  @GTFLGS-I, Hessian will be transformed to curvilinear coordinates.
  @GTFLGS-I, Hessian will be transformed to curvilinear coordinates.
  igrd and ihes are                      0                     1
  gradient from JOBARC 
   0.000000000000000   0.000000000000000   0.662622762236639
   0.000000000000000   0.000000000000000  -0.662622762236639
 
  @PROJFCM-I, Projecting force constant matrix onto totally symmetric subspace.
  Largest difference between matrix elements of symmetrized
  and unsymmetrized FCM :    -0.4995748260E-10.
  read isotopes from ZMAT file 
 
  Summary of diagonal Born-Oppenheimer correction at the correlated level
  The total diagonal Born-Oppenheimer correction (DBOC) is:      0.0040080777 a.u.
  The total diagonal Born-Oppenheimer correction (DBOC) is:        879.671376 cm-1
  The total diagonal Born-Oppenheimer correction (DBOC) is:            10.523 kJ/mole
  hellooooooo 
  readis is  F
 
 @CHECKOUT-I, Total execution time (CPU/WALL):        0.01/       0.10 seconds.
--executable xjoda finished with status     0 in        0.16 seconds (walltime).
  The final electronic energy is      -113.167686196305681 a.u. 
  This computation required                         4561.97 seconds (walltime).
