 --invoking executable--
/nfs/workspaces/public/cfour_mpi/bin/xjoda


   *************************************************************************
         <<<     CCCCCC     CCCCCC   |||     CCCCCC     CCCCCC   >>>
       <<<      CCC        CCC       |||    CCC        CCC         >>>
      <<<      CCC        CCC        |||   CCC        CCC            >>>
    <<<        CCC        CCC        |||   CCC        CCC              >>>
      <<<      CCC        CCC        |||   CCC        CCC            >>>
       <<<      CCC        CCC       |||    CCC        CCC         >>>
         <<<     CCCCCC     CCCCCC   |||     CCCCCC     CCCCCC   >>>
   *************************************************************************

     ****************************************************************
     * CFOUR Coupled-Cluster techniques for Computational Chemistry *
     ****************************************************************
 

   Department of Chemistry                Institut fuer Physikalische Chemie
   University of Florida                  Universitaet Mainz
   Gainesville, FL 32611, USA             D-55099 Mainz, Germany

   Department of Chemistry                Fakultaet fuer Chemie und Biowiss.
   Johns Hopkins University               Karlsruher Institut fuer Technologie
   Baltimore, MD 21218, USA               D-76131 Karlsruhe, Germany

   Department of Chemistry                Department of Physical Chemistry
   Southern Methodist University          Eotvos Lorand University
   Dallas, TX 75275, USA                  H-1053 Budapest, Hungary

 
                       Version 2.1
 
                     vincent.theory.phys.ucl.ac.uk                     
                     Wed 26 Feb 18:50:06 GMT 2025                      
                     integer*8 version is running
 
********************************************************************************
*                          Input from ZMAT file                                *
********************************************************************************
Carbon Monoxide DBOC calculation                                                
C                                                                               
O 1 r                                                                           
                                                                                
r=1.0241379310344827                                                            
                                                                                
                                                                                
*CFOUR(CALC=CCSD,BASIS=AUG-PCVQZ,SCF_CONV=10                                    
CC_CONV=14,DBOC=ON,MEMORY=500000000                                             
ZFIELD=200)                                                                     
                                                                                
%isotopes                                                                       
13                                                                              
16                                                                              
********************************************************************************
  @GTFLGS-I, Hessian will be transformed to curvilinear coordinates.
    -------------------------------------------------------------------
                    CFOUR Control Parameters 
    -------------------------------------------------------------------
        External           Internal           Value            Units
          Name               Name
    -------------------------------------------------------------------
       ABCDTYPE             IABCDT         STANDARD    [  0]    ***   
       ANHARMONIC           IANHAR         OFF         [  0]    ***   
       ANH_ALGORIT          IANALG         STANDARD    [  0]    ***   
       ANH_DERIVAT          IANDER         SECOND      [  1]    ***   
       ANH_MODE             ANHMOD         VIBRATION   [  0]    ***   
       ANH_STEPSIZ          ICUBST             50000          x 10-6  
       ANH_SYMMETR          IANHSM         ABELIAN     [  0]    ***   
       AO_LADDERS           IAOLAD         SINGLEPASS  [  1]    ***   
       AV_SCF               IAVSCF         OFF         [  0]    ***   
       BASIS                IBASIS         AUG-PCVQZ   [ 52]    ***   
       BOTHVECTORS          BOTHVC         OFF         [  0]    ***   
       BOX_POTENT           IPIAB          OFF         [  0]    ***   
       BREIT                IBREIT         OFF         [  0]    ***   
       BRUCK_CONV           IBRTOL          10D-  4             ***   
       BRUECKNER            IBRKNR         OFF         [  0]    ***   
       BUFFERSIZE           IBUFFS              4096            ***   
       CACHE_RECS           ICHREC             10               ***   
       CALCLEVEL            ICLLVL         CCSD        [ 10]    ***   
       CCORBOPT             ICCORB         OFF         [  0]  x 0.01  
       CC_CONV              ICCCNV          10D- 14             ***   
       CC_EXPORDER          ICCEOR              5               ***   
       CC_EXTRAPOL          ICCEXT         DIIS        [  1]    ***   
       CC_GUESS             ICCGES         MP2         [  0]    ***   
       CC_MAXCYC            ICCCYC            100              cycles 
       CC_PROGRAM           ICCPRO         VCC         [  0]    ***   
       CHARGE               ICHRGE              0               ***   
       CHOLESKY             ICHOLE         OFF         [  0]    ***   
       CIS_CONV             ICISTL              5               ***   
       COMM_SIZE            IPSIZE            ***               ***   
       CONSTANT             ICONST         OLD         [  1]    ***   
       CONTINUUM            ICONTU         NONE        [  0]    ***   
       CONTRACTION          ICNTYP         GENERAL     [  1]    ***   
       COORDINATES          ICOORD         INTERNAL    [  0]    ***   
       CPHF_CONVER          ICPHFT          10D- 16             ***   
       CPHF_MAXCYC          ICPHFC             64              cycles 
       CUBIC                ICUBIC         OFF         [  0]    ***   
       CURVILINEAR          ICURVY         ON          [  1]    ***   
       DBOC                 IDBOC          ON          [  1]    ***   
       DCT                  IDCT           OFF         [  0]    ***   
       DERIV_LEV            IDRLVL         SECOND      [  2]    ***   
       DEVMEM_SIZE          IDVMEM          50000000           MByte  
       DIAG_MRCC            IEOMST          10D-  0             ***   
       DIFF_TYPE            IDIFTY         RELAXED     [  0]    ***   
       DIRECT               IDIRCT         OFF         [  0]    ***   
       DROPMO               IDRPMO      NONE         
       ECP                  IECP           OFF         [  0]    ***   
       EIGENVECTOR          IVEC                1               ***   
       EL_ANHARM            IELANH         OFF         [  0]    ***   
       EOMFOLLOW            IEOMSR         ENERGY      [  0]    ***   
       EOMIP                IEOMIP         OFF         [  0]    ***   
       EOMLEVEL             HBARFM         SAME        [  0]    ***   
       EOM_MRCC             IMRCCE         NEW         [  1]    ***   
       EOM_NONIT            EOMNON         OFF         [  0]    ***   
       EOM_NSING            IEOMSI          10D-  0             ***   
       EOM_NSTATES          IMRCCD         DAVIDSON    [  0]    ***   
       EOM_NTRIP            IEOMTR          10D-  0             ***   
       EOM_ORDER            IEXORD         ENERGY      [  0]    ***   
       EOM_PROPSTA          IEOMST              0               ***   
       ESTATE_CONV          IEXTOL          10D-  5             ***   
       ESTATE_DIAG          IEXDIG         ITERATIVE   [  0]    ***   
       ESTATE_LOCK          IESLOC         ON          [  1]    ***   
       ESTATE_MAXC          IEXMXC             40               ***   
       ESTATE_PROP          IEXPRP         OFF         [  0]    ***   
       EVAL_HESS            IRECAL              0            # of cyc.
       EXCITATION           IEXCIT              0               ***   
       EXCITE               IEXCIT         NONE        [  0]    ***   
       EXTERN_POT           IEXPOT         OFF         [  0]    ***   
       FCGRADNEW            IFCGNW         OFF         [  0]    ***   
       FC_FIELD             IFINFC              0             x 10-6  
       FD_CALTYPE           IFDCAL         GRADONLY    [  0]    ***   
       FD_PROJECT           IFDPRJ         OFF         [  1]    ***   
       FD_STEPSIZE          IDISFD              0            10-4 bohr
       FD_USEGROUP          IFDGRP         FULL        [  0]    ***   
       FILE_RECSIZ          IFLREC              4096           words  
       FINITE_PERT          IFIPER              0             x 10-6  
       FIXGEOM              IFIXGM         OFF         [  0]    ***   
       FOCK                 IFOCK          AO          [  1]    ***   
       FREQ_ALGORI          IVIALG         STANDARD    [  0]    ***   
       FROZEN_CORE          IFROCO         OFF         [  0]    ***   
       GAMMA_ABCD           IGABCD         STORE       [  0]    ***   
       GAMMA_ABCI           IGABCI         STORE       [  0]    ***   
       GENBAS_1             IGNBS1              0               ***   
       GENBAS_2             IGNBS2              0               ***   
       GENBAS_3             IGNBS3              0               ***   
       GENBAS_4             IGNBS4              0               ***   
       GEO_CONV             ICONTL              5              H/bohr 
       GEO_MAXCYC           IOPTCY             50               ***   
       GEO_MAXSTEP          IMXSTP            300            millibohr
       GEO_METHOD           INR            SINGLE_POINT[  5]    ***   
       GIAO                 IGIAO          OFF         [  1]    ***   
       GIMIC                IGIMIC         OFF         [  0]    ***   
       GRID                 IGRID          OFF         [  0]    ***   
       GRID_ALGO            IGALGO         SERIAL      [  0]    ***   
       GUESS                IGUESS         MOREAD      [  0]    ***   
       HBAR                 IHBAR          OFF         [  0]    ***   
       HESS_TYPE            IHESTP         SCF         [  0]    ***   
       HF2_FILE             IHF2Fl         USE         [  1]    ***   
       HFSTABILITY          ISTABL         OFF         [  0]    ***   
       INCORE               INCORE         OFF         [  0]    ***   
       INPUT_MRCC           IMRCC          ON          [  1]    ***   
       INTEGRALS            INTTYP         VMOL        [  1]    ***   
       JODA_PRINT           IJPRNT              0               ***   
       KEYWORD_OUT          IDMPKW         NO          [  0]    ***   
       LINDEP_TOL           ILINDP              8               ***   
       LINEQ_CONV           IZTACN          10D-  7           cycles  
       LINEQ_EXPOR          ILMAXD              5               ***   
       LINEQ_MAXCY          ILMAXC            100               ***   
       LINEQ_TYPE           ILTYPE         DIIS        [  1]    ***   
       LOCK_ORBOCC          ILOCOC         OFF         [  0]    ***   
       MEMORY_SIZE          IMEMSZ         500000000           words  
       MEM_UNIT             IMEMU          INTEGERWORDS[  0]    ***   
       MRCC                 IMRCCC         OFF         [  0]    ***   
       MULTIPLICTY          IMULTP              1               ***   
       NACOUPLING           IVCOUP         OFF         [  0]    ***   
       NEGEVAL              IDIE           ABORT       [  0]    ***   
       NEWNORM              INEWNO         OFF         [  0]    ***   
       NON-HF               INONHF         OFF         [  0]    ***   
       NTOP_TAMP            ITOPT2             15               ***   
       NUC_MODEL            INUCMO         POINT       [  0]    ***   
       OCCUPATION           IOCCU   ESTIMATED BY SCF 
       OPEN-SHELL           IOPEN          SPIN-ORBITAL[  0]    ***   
       OPTVIB               IOPTVB         OFF         [  0]    ***   
       ORBITALS             IORBTP         STANDARD    [  0]    ***   
       PARALLEL             IPARAL         ON          [  1]    ***   
       PARA_INT             IPINTS         ON          [  1]    ***   
       PARA_PRINT           IPPRIN              0               ***   
       PERT_ORB             IPTORB         STANDARD    [  0]    ***   
       POINTS               IGRDFD              0               ***   
       PRINT                IPRNT               0               ***   
       PROPS                IPROPS         OFF         [  0]    ***   
       PROP_INTEGR          IINTYP         INTERNAL    [  0]    ***   
       PSI                  IPSI           OFF         [  0]    ***   
       QC_ALG               IQCALG         FLM         [  0]    ***   
       QC_LINALG            IQCLIN         TRIDIAG     [  2]    ***   
       QC_MAXCYC            IQCMAX          10D-100           cycles  
       QC_MAXSCFCY          IQCMSC          10D- 15           cycles  
       QC_RTRUST            IQCRTR          10D-  0           x 10-3  
       QC_SKIPSCF           IQCSKI         OFF         [  0]    ***   
       QC_START             IQCSTA          10D-  1             ***   
       QRHFGUESS            IQGUES         OFF         [  0]    ***   
       QUARTIC              IQUART         OFF         [  0]    ***   
       RAMAN_INT            IRAMIN         OFF         [  0]    ***   
       RAMAN_ORB            IRAMRE         UNRELAXED   [  0]    ***   
       RDO                  IRDOFM         ON          [  1]    ***   
       REDUCE_REPR          REDREP         Ir          [  0]    ***   
       REFERENCE            IREFNC         RHF         [  0]    ***   
       RELATIVIST           IRELAT         OFF         [  0]    ***   
       RELAX_DENS           IRDENS         ON          [  1]    ***   
       RESET_FLAGS          IRESET         OFF         [  0]    ***   
       RESTART_CC           ICCRES         OFF         [  0]    ***   
       ROT_EVEC             ROTVEC              0               ***   
       SAVE_INTS            ISVINT         OFF         [  0]    ***   
       SCALE_ON             ISTCRT              0               ***   
       SCF_CONV             ISCFCV          10D- 10             ***   
       SCF_DAMPING          IDAMP               0             x 10-3  
       SCF_EXPORDE          IRPPOR              6               ***   
       SCF_EXPSTAR          IRPPLS              8               ***   
       SCF_EXTRAPO          IRPP           ON          [  1]    ***   
       SCF_MAXCYC           ISCFCY            150              cycles 
       SCF_NOSTOP           ISCFST         OFF         [  0]    ***   
       SCF_PRINT            ISCFPR              0               ***   
       SCF_PROG             ISCFPR         SCF         [  0]    ***   
       SD_FIELD             IFINSD              0             x 10-6  
       SOPERT               IPERSO         OFF         [  0]    ***   
       SPHERICAL            IDFGHI         ON          [  1]    ***   
       SPINORBIT            ISOCAL         OFF         [  0]    ***   
       SPINROTATIO          ISRCON         OFF         [  0]    ***   
       SPIN_FLIP            ISPFLP         OFF         [  0]    ***   
       SPIN_ORBIT           ISPORB         OFF         [  0]    ***   
       SPIN_SCAL            ISCSMP         OFF         [  0]    ***   
       STEEPSCALE           ISTPSC              1000          x 10-3  
       SUBGROUP             ISUBGP         DEFAULT     [  0]    ***   
       SUBGRPAXIS           ISBXYZ         X           [  0]    ***   
       SYMMETRY             ISYM           ON          [  0]    ***   
       SYM_CHECK            ISYMCK         OVERRIDE    [  1]    ***   
       T3_EXTRAPOL          IT3EXT         OFF         [  0]    ***   
       T4_EXTRAPOL          IT4EXP         OFF         [  0]    ***   
       TAMP_SUM             IEVERY              5               ***   
       TESTSUITE            ITESTS         OFF         [  0]    ***   
       THERMOCH             ITHERM         OFF         [  0]    ***   
       TOL_CHOLESK          ITOLCH          10D-  4             ***   
       TRANGRAD             IRESRM         OFF         [  0]    ***   
       TRANS_INV            ITRAIN         IGNORE      [  1]    ***   
       TREAT_PERT           ITREAT         SIMULTANEOUS[  0]    ***   
       TRIP_ALGORI          ITRALG         NORMAL      [  0]    ***   
       UIJ_THRESHO          IUIJTH              1               ***   
       UNITS                IUNITS         ANGSTROM    [  0]    ***   
       UNOS                 IUNOS          OFF         [  0]    ***   
       UPDATE_HESS          IHUPDT         ON          [  1]    ***   
       VIBPHASE             ISETPH         STANDARD    [  0]    ***   
       VIBRATION            IVIB           ANALYTIC    [  1]    ***   
       VIB_ALGORIT          IGEALG         STANDARD    [  0]    ***   
       VNATORB              IVNORB         OFF         [  0]    ***   
       VTRAN                IVTRAN         FULL/PARTIAL[  0]    ***   
       XFIELD               IXEFLD              0             x 10-6  
       XFORM_TOL            IXFTOL          10D- 11             ***   
       YFIELD               IYEFLD              0             x 10-6  
       ZFIELD               IZEFLD            200             x 10-6  
       ZSCALE_EXP           IZEXPS         OFF         [  0]    ***   
    -------------------------------------------------------------------
   2 entries found in Z-matrix 
   Job Title : Carbon Monoxide DBOC calculation                                                
   There are  1 unique internal coordinates.
   Of these,  0 will be optimized.
   User supplied Z-matrix: 
--------------------------------------------------------------------------------
       SYMBOL    BOND      LENGTH    ANGLE     ANGLE     DIHED     ANGLE
                  TO      (ANGST)    WRT      (DEG)      WRT      (DEG)
--------------------------------------------------------------------------------
        C    
        O          1         r    
                  *Initial values for internal coordinates* 
                      Name             Value
                        r               1.0241379310
--------------------------------------------------------------------------------
  read isotopes from ZMAT file 
   Rotational constants (in cm-1): 
          2.2408582928             2.2408582928
   Rotational constants (in MHz): 
      67179.2509730366         67179.2509730366
********************************************************************************
   The full molecular point group is CXv .
   The largest Abelian subgroup of the full molecular point group is C2v .
   The computational point group is C2v .
********************************************************************************
--------------------------------------------------------------------------------
   Analysis of internal coordinates specified by Z-matrix 
--------------------------------------------------------------------------------
   *The nuclear repulsion energy is   24.801835797979798 a.u.
   *There is   1 degree of freedom within the tot. symm. molecular subspace.
   *Z-matrix requests optimization of   0 coordinates.
   *The optimization is constrained.
   *The following   1 parameters can have non-zero 
    derivatives within the totally symmetric subspace:
             r    [ 1]
   *The following   0 parameters are to be optimized:

   *The following coordinates must be varied in an  unconstrained optimization.
             r    [ 1]
--------------------------------------------------------------------------------


 ----------------------------------------------------------------
         Coordinates used in calculation (QCOMP) 
 ----------------------------------------------------------------
 Z-matrix   Atomic            Coordinates (in bohr)
  Symbol    Number           X              Y              Z
 ----------------------------------------------------------------
     C         6        -0.00000000     0.00000000     1.06749845
     O         8         0.00000000     0.00000000    -0.86784215
 ----------------------------------------------------------------
 
   Interatomic distance matrix (Angstroms) 
 
                 C             O    
                [ 1]        [ 2]
  C    [ 1]     0.00000
  O    [ 2]     1.02414     0.00000
 rotcon2
   Rotational constants (in cm-1): 
          2.2408582928             0.0000000000
   Rotational constants (in MHz): 
      67179.2509730366             0.0000000000
  ECPDATA file not present.   Using default ECPDATA. 
  @GTFLGS-I, Hessian will be transformed to curvilinear coordinates.
  There are  218 basis functions.
 @CHECKOUT-I, Total execution time (CPU/WALL):        0.13/       0.33 seconds.
--executable xjoda finished with status     0 in        0.35 seconds (walltime).
 --invoking executable--
/nfs/workspaces/public/cfour_mpi/bin/xvmol
 SERIAL VERSION OF MOLECULE STARTED
********************************************************************************
                    INPUT FROM MOL FILE
********************************************************************************
INTGRL        1    0    1    0    0    0    0    0    0                         
         *** CFOUR Program System (Release V0.1) ***                            
Carbon Monoxide DBOC calculation                                                
    2    2 X  Y       0.10E-08              0    0                              
   9999.00      3.00                                                            
          6.00000000    1    5    1    1    1    1    1                         
C #1  -0.000000000000000   0.000000000000000   1.067498454328720                
   16    9                                                                      
   33980.0000000000       9.100000000000000E-005 -1.900000000000000E-005        
  0.000000000000000E+000  0.000000000000000E+000  0.000000000000000E+000        
  0.000000000000000E+000  0.000000000000000E+000  0.000000000000000E+000        
  0.000000000000000E+000                                                        
   5089.00000000000       7.040000000000000E-004 -1.510000000000000E-004        
  0.000000000000000E+000  0.000000000000000E+000  0.000000000000000E+000        
  0.000000000000000E+000  0.000000000000000E+000  0.000000000000000E+000        
  0.000000000000000E+000                                                        
   1157.00000000000       3.693000000000000E-003 -7.850000000000000E-004        
  0.000000000000000E+000  0.000000000000000E+000  0.000000000000000E+000        
  0.000000000000000E+000  0.000000000000000E+000  0.000000000000000E+000        
  0.000000000000000E+000                                                        
   326.600000000000       1.536000000000000E-002 -3.324000000000000E-003        
  0.000000000000000E+000  0.000000000000000E+000  0.000000000000000E+000        
  0.000000000000000E+000  0.000000000000000E+000  0.000000000000000E+000        
  0.000000000000000E+000                                                        
   106.100000000000       5.292900000000000E-002 -1.151200000000000E-002        
  0.000000000000000E+000  0.000000000000000E+000  0.000000000000000E+000        
  0.000000000000000E+000  0.000000000000000E+000  0.000000000000000E+000        
  0.000000000000000E+000                                                        
   38.1100000000000       0.147043000000000      -3.416000000000000E-002        
  0.000000000000000E+000  0.000000000000000E+000  0.000000000000000E+000        
  0.000000000000000E+000  0.000000000000000E+000  0.000000000000000E+000        
  0.000000000000000E+000                                                        
   14.7500000000000       0.305631000000000      -7.717300000000001E-002        
  0.000000000000000E+000  0.000000000000000E+000  0.000000000000000E+000        
  0.000000000000000E+000  0.000000000000000E+000  0.000000000000000E+000        
  0.000000000000000E+000                                                        
   6.03500000000000       0.399345000000000      -0.141493000000000             
  0.000000000000000E+000  0.000000000000000E+000  0.000000000000000E+000        
  0.000000000000000E+000  0.000000000000000E+000  0.000000000000000E+000        
  0.000000000000000E+000                                                        
   2.53000000000000       0.217051000000000      -0.118019000000000             
  0.000000000000000E+000  0.000000000000000E+000  0.000000000000000E+000        
  0.000000000000000E+000  0.000000000000000E+000  0.000000000000000E+000        
  0.000000000000000E+000                                                        
  0.735500000000000       1.589400000000000E-002  0.273806000000000             
   1.00000000000000       0.000000000000000E+000  0.000000000000000E+000        
  0.000000000000000E+000  0.000000000000000E+000  0.000000000000000E+000        
  0.000000000000000E+000                                                        
  0.290500000000000      -3.084000000000000E-003  0.586510000000000             
  0.000000000000000E+000   1.00000000000000       0.000000000000000E+000        
  0.000000000000000E+000  0.000000000000000E+000  0.000000000000000E+000        
  0.000000000000000E+000                                                        
  0.111100000000000       9.779999999999999E-004  0.285430000000000             
  0.000000000000000E+000  0.000000000000000E+000   1.00000000000000             
  0.000000000000000E+000  0.000000000000000E+000  0.000000000000000E+000        
  0.000000000000000E+000                                                        
   7.21600000000000       0.000000000000000E+000  0.000000000000000E+000        
  0.000000000000000E+000  0.000000000000000E+000  0.000000000000000E+000        
   1.00000000000000       0.000000000000000E+000  0.000000000000000E+000        
  0.000000000000000E+000                                                        
   19.5700000000000       0.000000000000000E+000  0.000000000000000E+000        
  0.000000000000000E+000  0.000000000000000E+000  0.000000000000000E+000        
  0.000000000000000E+000   1.00000000000000       0.000000000000000E+000        
  0.000000000000000E+000                                                        
   53.0730000000000       0.000000000000000E+000  0.000000000000000E+000        
  0.000000000000000E+000  0.000000000000000E+000  0.000000000000000E+000        
  0.000000000000000E+000  0.000000000000000E+000   1.00000000000000             
  0.000000000000000E+000                                                        
  4.145000000000000E-002  0.000000000000000E+000  0.000000000000000E+000        
  0.000000000000000E+000  0.000000000000000E+000  0.000000000000000E+000        
  0.000000000000000E+000  0.000000000000000E+000  0.000000000000000E+000        
   1.00000000000000                                                             
   10    8                                                                      
   34.5100000000000       5.378000000000000E-003  0.000000000000000E+000        
  0.000000000000000E+000  0.000000000000000E+000  0.000000000000000E+000        
  0.000000000000000E+000  0.000000000000000E+000  0.000000000000000E+000        
   7.91500000000000       3.613200000000000E-002  0.000000000000000E+000        
  0.000000000000000E+000  0.000000000000000E+000  0.000000000000000E+000        
  0.000000000000000E+000  0.000000000000000E+000  0.000000000000000E+000        
   2.36800000000000       0.142493000000000       0.000000000000000E+000        
  0.000000000000000E+000  0.000000000000000E+000  0.000000000000000E+000        
  0.000000000000000E+000  0.000000000000000E+000  0.000000000000000E+000        
  0.813200000000000       0.342150000000000        1.00000000000000             
  0.000000000000000E+000  0.000000000000000E+000  0.000000000000000E+000        
  0.000000000000000E+000  0.000000000000000E+000  0.000000000000000E+000        
  0.289000000000000       0.463864000000000       0.000000000000000E+000        
   1.00000000000000       0.000000000000000E+000  0.000000000000000E+000        
  0.000000000000000E+000  0.000000000000000E+000  0.000000000000000E+000        
  0.100700000000000       0.250028000000000       0.000000000000000E+000        
  0.000000000000000E+000   1.00000000000000       0.000000000000000E+000        
  0.000000000000000E+000  0.000000000000000E+000  0.000000000000000E+000        
   8.18200000000000       0.000000000000000E+000  0.000000000000000E+000        
  0.000000000000000E+000  0.000000000000000E+000   1.00000000000000             
  0.000000000000000E+000  0.000000000000000E+000  0.000000000000000E+000        
   24.1860000000000       0.000000000000000E+000  0.000000000000000E+000        
  0.000000000000000E+000  0.000000000000000E+000  0.000000000000000E+000        
   1.00000000000000       0.000000000000000E+000  0.000000000000000E+000        
   71.4940000000000       0.000000000000000E+000  0.000000000000000E+000        
  0.000000000000000E+000  0.000000000000000E+000  0.000000000000000E+000        
  0.000000000000000E+000   1.00000000000000       0.000000000000000E+000        
  3.218000000000000E-002  0.000000000000000E+000  0.000000000000000E+000        
  0.000000000000000E+000  0.000000000000000E+000  0.000000000000000E+000        
  0.000000000000000E+000  0.000000000000000E+000   1.00000000000000             
    6    6                                                                      
   1.84800000000000        1.00000000000000       0.000000000000000E+000        
  0.000000000000000E+000  0.000000000000000E+000  0.000000000000000E+000        
  0.000000000000000E+000                                                        
  0.649000000000000       0.000000000000000E+000   1.00000000000000             
  0.000000000000000E+000  0.000000000000000E+000  0.000000000000000E+000        
  0.000000000000000E+000                                                        
  0.228000000000000       0.000000000000000E+000  0.000000000000000E+000        
   1.00000000000000       0.000000000000000E+000  0.000000000000000E+000        
  0.000000000000000E+000                                                        
   8.65600000000000       0.000000000000000E+000  0.000000000000000E+000        
  0.000000000000000E+000   1.00000000000000       0.000000000000000E+000        
  0.000000000000000E+000                                                        
   33.2130000000000       0.000000000000000E+000  0.000000000000000E+000        
  0.000000000000000E+000  0.000000000000000E+000   1.00000000000000             
  0.000000000000000E+000                                                        
  7.660000000000000E-002  0.000000000000000E+000  0.000000000000000E+000        
  0.000000000000000E+000  0.000000000000000E+000  0.000000000000000E+000        
   1.00000000000000                                                             
    4    4                                                                      
   1.41900000000000        1.00000000000000       0.000000000000000E+000        
  0.000000000000000E+000  0.000000000000000E+000                                
  0.485000000000000       0.000000000000000E+000   1.00000000000000             
  0.000000000000000E+000  0.000000000000000E+000                                
   24.6940000000000       0.000000000000000E+000  0.000000000000000E+000        
   1.00000000000000       0.000000000000000E+000                                
  0.187000000000000       0.000000000000000E+000  0.000000000000000E+000        
  0.000000000000000E+000   1.00000000000000                                     
    2    2                                                                      
   1.01100000000000        1.00000000000000       0.000000000000000E+000        
  0.424000000000000       0.000000000000000E+000   1.00000000000000             
          8.00000000    1    5    1    1    1    1    1                         
O #2   0.000000000000000   0.000000000000000  -0.867842154768844                
   16    9                                                                      
   61420.0000000000       9.000000000000001E-005 -2.000000000000000E-005        
  0.000000000000000E+000  0.000000000000000E+000  0.000000000000000E+000        
  0.000000000000000E+000  0.000000000000000E+000  0.000000000000000E+000        
  0.000000000000000E+000                                                        
   9199.00000000000       6.980000000000001E-004 -1.590000000000000E-004        
  0.000000000000000E+000  0.000000000000000E+000  0.000000000000000E+000        
  0.000000000000000E+000  0.000000000000000E+000  0.000000000000000E+000        
  0.000000000000000E+000                                                        
   2091.00000000000       3.664000000000000E-003 -8.290000000000000E-004        
  0.000000000000000E+000  0.000000000000000E+000  0.000000000000000E+000        
  0.000000000000000E+000  0.000000000000000E+000  0.000000000000000E+000        
  0.000000000000000E+000                                                        
   590.900000000000       1.521800000000000E-002 -3.508000000000000E-003        
  0.000000000000000E+000  0.000000000000000E+000  0.000000000000000E+000        
  0.000000000000000E+000  0.000000000000000E+000  0.000000000000000E+000        
  0.000000000000000E+000                                                        
   192.300000000000       5.242300000000000E-002 -1.215600000000000E-002        
  0.000000000000000E+000  0.000000000000000E+000  0.000000000000000E+000        
  0.000000000000000E+000  0.000000000000000E+000  0.000000000000000E+000        
  0.000000000000000E+000                                                        
   69.3200000000000       0.145921000000000      -3.626100000000000E-002        
  0.000000000000000E+000  0.000000000000000E+000  0.000000000000000E+000        
  0.000000000000000E+000  0.000000000000000E+000  0.000000000000000E+000        
  0.000000000000000E+000                                                        
   26.9700000000000       0.305258000000000      -8.299200000000000E-002        
  0.000000000000000E+000  0.000000000000000E+000  0.000000000000000E+000        
  0.000000000000000E+000  0.000000000000000E+000  0.000000000000000E+000        
  0.000000000000000E+000                                                        
   11.1000000000000       0.398508000000000      -0.152090000000000             
  0.000000000000000E+000  0.000000000000000E+000  0.000000000000000E+000        
  0.000000000000000E+000  0.000000000000000E+000  0.000000000000000E+000        
  0.000000000000000E+000                                                        
   4.68200000000000       0.216980000000000      -0.115331000000000             
  0.000000000000000E+000  0.000000000000000E+000  0.000000000000000E+000        
  0.000000000000000E+000  0.000000000000000E+000  0.000000000000000E+000        
  0.000000000000000E+000                                                        
   1.42800000000000       1.759400000000000E-002  0.288979000000000             
   1.00000000000000       0.000000000000000E+000  0.000000000000000E+000        
  0.000000000000000E+000  0.000000000000000E+000  0.000000000000000E+000        
  0.000000000000000E+000                                                        
  0.554700000000000      -2.502000000000000E-003  0.586128000000000             
  0.000000000000000E+000   1.00000000000000       0.000000000000000E+000        
  0.000000000000000E+000  0.000000000000000E+000  0.000000000000000E+000        
  0.000000000000000E+000                                                        
  0.206700000000000       9.540000000000000E-004  0.277624000000000             
  0.000000000000000E+000  0.000000000000000E+000   1.00000000000000             
  0.000000000000000E+000  0.000000000000000E+000  0.000000000000000E+000        
  0.000000000000000E+000                                                        
   12.9740000000000       0.000000000000000E+000  0.000000000000000E+000        
  0.000000000000000E+000  0.000000000000000E+000  0.000000000000000E+000        
   1.00000000000000       0.000000000000000E+000  0.000000000000000E+000        
  0.000000000000000E+000                                                        
   34.9000000000000       0.000000000000000E+000  0.000000000000000E+000        
  0.000000000000000E+000  0.000000000000000E+000  0.000000000000000E+000        
  0.000000000000000E+000   1.00000000000000       0.000000000000000E+000        
  0.000000000000000E+000                                                        
   93.8810000000000       0.000000000000000E+000  0.000000000000000E+000        
  0.000000000000000E+000  0.000000000000000E+000  0.000000000000000E+000        
  0.000000000000000E+000  0.000000000000000E+000   1.00000000000000             
  0.000000000000000E+000                                                        
  6.959000000000000E-002  0.000000000000000E+000  0.000000000000000E+000        
  0.000000000000000E+000  0.000000000000000E+000  0.000000000000000E+000        
  0.000000000000000E+000  0.000000000000000E+000  0.000000000000000E+000        
   1.00000000000000                                                             
   10    8                                                                      
   63.4200000000000       6.044000000000000E-003  0.000000000000000E+000        
  0.000000000000000E+000  0.000000000000000E+000  0.000000000000000E+000        
  0.000000000000000E+000  0.000000000000000E+000  0.000000000000000E+000        
   14.6600000000000       4.179900000000000E-002  0.000000000000000E+000        
  0.000000000000000E+000  0.000000000000000E+000  0.000000000000000E+000        
  0.000000000000000E+000  0.000000000000000E+000  0.000000000000000E+000        
   4.45900000000000       0.161143000000000       0.000000000000000E+000        
  0.000000000000000E+000  0.000000000000000E+000  0.000000000000000E+000        
  0.000000000000000E+000  0.000000000000000E+000  0.000000000000000E+000        
   1.53100000000000       0.356731000000000        1.00000000000000             
  0.000000000000000E+000  0.000000000000000E+000  0.000000000000000E+000        
  0.000000000000000E+000  0.000000000000000E+000  0.000000000000000E+000        
  0.530200000000000       0.448309000000000       0.000000000000000E+000        
   1.00000000000000       0.000000000000000E+000  0.000000000000000E+000        
  0.000000000000000E+000  0.000000000000000E+000  0.000000000000000E+000        
  0.175000000000000       0.244940000000000       0.000000000000000E+000        
  0.000000000000000E+000   1.00000000000000       0.000000000000000E+000        
  0.000000000000000E+000  0.000000000000000E+000  0.000000000000000E+000        
   14.4750000000000       0.000000000000000E+000  0.000000000000000E+000        
  0.000000000000000E+000  0.000000000000000E+000   1.00000000000000             
  0.000000000000000E+000  0.000000000000000E+000  0.000000000000000E+000        
   42.7300000000000       0.000000000000000E+000  0.000000000000000E+000        
  0.000000000000000E+000  0.000000000000000E+000  0.000000000000000E+000        
   1.00000000000000       0.000000000000000E+000  0.000000000000000E+000        
   126.140000000000       0.000000000000000E+000  0.000000000000000E+000        
  0.000000000000000E+000  0.000000000000000E+000  0.000000000000000E+000        
  0.000000000000000E+000   1.00000000000000       0.000000000000000E+000        
  5.348000000000000E-002  0.000000000000000E+000  0.000000000000000E+000        
  0.000000000000000E+000  0.000000000000000E+000  0.000000000000000E+000        
  0.000000000000000E+000  0.000000000000000E+000   1.00000000000000             
    6    6                                                                      
   3.77500000000000        1.00000000000000       0.000000000000000E+000        
  0.000000000000000E+000  0.000000000000000E+000  0.000000000000000E+000        
  0.000000000000000E+000                                                        
   1.30000000000000       0.000000000000000E+000   1.00000000000000             
  0.000000000000000E+000  0.000000000000000E+000  0.000000000000000E+000        
  0.000000000000000E+000                                                        
  0.444000000000000       0.000000000000000E+000  0.000000000000000E+000        
   1.00000000000000       0.000000000000000E+000  0.000000000000000E+000        
  0.000000000000000E+000                                                        
   14.9270000000000       0.000000000000000E+000  0.000000000000000E+000        
  0.000000000000000E+000   1.00000000000000       0.000000000000000E+000        
  0.000000000000000E+000                                                        
   57.5440000000000       0.000000000000000E+000  0.000000000000000E+000        
  0.000000000000000E+000  0.000000000000000E+000   1.00000000000000             
  0.000000000000000E+000                                                        
  0.154000000000000       0.000000000000000E+000  0.000000000000000E+000        
  0.000000000000000E+000  0.000000000000000E+000  0.000000000000000E+000        
   1.00000000000000                                                             
    4    4                                                                      
   2.66600000000000        1.00000000000000       0.000000000000000E+000        
  0.000000000000000E+000  0.000000000000000E+000                                
  0.859000000000000       0.000000000000000E+000   1.00000000000000             
  0.000000000000000E+000  0.000000000000000E+000                                
   26.4830000000000       0.000000000000000E+000  0.000000000000000E+000        
   1.00000000000000       0.000000000000000E+000                                
  0.324000000000000       0.000000000000000E+000  0.000000000000000E+000        
  0.000000000000000E+000   1.00000000000000                                     
    2    2                                                                      
   1.84600000000000        1.00000000000000       0.000000000000000E+000        
  0.714000000000000       0.000000000000000E+000   1.00000000000000             
FINISH                                                                          
 
********************************************************************************
 ONE- AND TWO-ELECTRON INTEGRALS OVER SYMMETRY-ADAPTED AOS ARE CALCULATED.

  SPHERICAL HARMONICS ARE USED.
  
  INTEGRALS LESS THAN  0.10E-13 ARE NEGLECTED.

  NUCLEAR REPULSION ENERGY :   24.8018357980 A.U.
  @MOLECU-I, ONE ELECTRON INTEGRALS (CPU/WALL):        0.09/       0.09 SECONDS.
  @TWOEL-I,    4650572 INTEGRALS OF SYMMETRY TYPE  I I I I
  @TWOEL-I,   19908553 INTEGRALS OF SYMMETRY TYPE  I J I J
  @TWOEL-I,   10498396 INTEGRALS OF SYMMETRY TYPE  I I J J
  @TWOEL-I,   14717509 INTEGRALS OF SYMMETRY TYPE  I J K L
  @TWOEL-I, TOTAL NUMBER OF 2-E INTEGRALS   49775030.
  @MOLECU-I, TWO ELECTRON INTEGRALS (CPU/WALL):      204.55/      48.17 SECONDS.
 @CHECKOUT-I, Total execution time (CPU/WALL):      204.64/      48.30 seconds.

Running with 14 threads/proc

--executable xvmol finished with status     0 in       48.35 seconds (walltime).
 --invoking executable--
/nfs/workspaces/public/cfour_mpi/bin/xvmol2ja
 @GETMEM-I,  Allocated    3814 MB of main memory.
 @CHECKOUT-I, Total execution time (CPU/WALL):        0.13/       0.06 seconds.
--executable xvmol2ja finished with status     0 in        0.11 seconds (walltime).
 --invoking executable--
/nfs/workspaces/public/cfour_mpi/bin/xvprop
 @GETMEM-I,  Allocated    3814 MB of main memory.
   Property integrals will be calculated.
    --------------------------------------------------------------
                                   Property evaluated at 
    Property type                X             Y             Z
    --------------------------------------------------------------
    Dipole moment               ----          ----          ----  
    Quadrupole moment           ----          ----          ----  
    Octopole moment             ----          ----          ----  
    Relativisitic corr.         ----          ----          ----  
    Second moment            0.0000000     0.0000000     0.0000000
    Electron density         0.0000000     0.0000000     1.0674985
    Electron density         0.0000000     0.0000000    -0.8678422
    Field gradient           0.0000000     0.0000000     1.0674985
    Field gradient           0.0000000     0.0000000    -0.8678422
    Potential                0.0000000     0.0000000     1.0674985
    Potential                0.0000000     0.0000000    -0.8678422
    --------------------------------------------------------------
 @CHECKOUT-I, Total execution time (CPU/WALL):        1.58/       2.14 seconds.
--executable xvprop finished with status     0 in        2.20 seconds (walltime).
 --invoking executable--
/nfs/workspaces/public/cfour_mpi/bin/xvscf
  There are  218 functions in the AO basis.

  There are 4 irreducible representations.

       Irrep        # of functions
         1                 86
         2                 52
         3                 52
         4                 28


  Parameters for SCF calculation: 
        SCF reference function:  RHF  
  Maximum number of iterations:  150
     Full symmetry point group: CXv 
     Computational point group: C2v 
        Initial density matrix: MOREAD                 
     SCF convergence tolerance: 10**(-10)
  DIIS convergence acceleration:  ON
          Latest start for DIIS:   8
                     DIIS order:   6

  Memory information:    2523578 words required.
  Fock matrices are constructed from AO integral file.
 @GETMEM-I,  Allocated      19 MB of main memory.
  Initialization and symmetry analysis required      0.001 seconds.

  Adding electric field perturbation to one-electron Hamiltonian.
  Field direction     : Z
  Field strength      :  0.0002000 a.u.

  @INITGES-I, Occupancies from core Hamiltonian:

          Alpha population by irrep:   5    1    1    0
           Beta population by irrep:   5    1    1    0


 total no. of electrons in initial guess :  0.000000000000000E+000
  --------------------------------------------------------------------
  Iteration         Total Energy            Largest Density Difference
  --------------------------------------------------------------------
       0            24.801943347281966              0.0000000000D+00
   current occupation vector 
     5  1  1  0
     5  1  1  0
       1           -90.842382410306897              0.1953671783D+02
   current occupation vector 
     5  1  1  0
     5  1  1  0
       2           -93.723522184184631              0.8476926557D+02
   current occupation vector 
     5  1  1  0
     5  1  1  0
       3          -103.250312486434211              0.8475133175D+02
   current occupation vector 
     5  1  1  0
     5  1  1  0
       4          -100.712911944148473              0.1201880704D+02
   current occupation vector 
     5  1  1  0
     5  1  1  0
       5          -105.109573004344412              0.1204067370D+02
   current occupation vector 
     5  1  1  0
     5  1  1  0
       6          -102.421632340594499              0.6527421230D+01
   current occupation vector 
     5  1  1  0
     5  1  1  0
       7          -104.247951824147378              0.6523447100D+01
   current occupation vector 
     5  1  1  0
     5  1  1  0
       8          -101.606868610713960              0.5298424779D+01
   current occupation vector 
     5  1  1  0
     5  1  1  0
       9          -111.483523885141153              0.3599005239D+01
   current occupation vector 
     5  1  1  0
     5  1  1  0
      10          -112.559513181608025              0.8834672177D+00
   current occupation vector 
     5  1  1  0
     5  1  1  0
      11          -112.768551506469976              0.3892474447D+00
   current occupation vector 
     5  1  1  0
     5  1  1  0
      12          -112.771166035136162              0.4769357855D-01
   current occupation vector 
     5  1  1  0
     5  1  1  0
      13          -112.771275732594603              0.1507186917D-01
   current occupation vector 
     5  1  1  0
     5  1  1  0
      14          -112.771285602141234              0.5169836787D-02
   current occupation vector 
     5  1  1  0
     5  1  1  0
      15          -112.771285764240872              0.4284008063D-03
   current occupation vector 
     5  1  1  0
     5  1  1  0
      16          -112.771285767144121              0.5074412450D-04
   current occupation vector 
     5  1  1  0
     5  1  1  0
      17          -112.771285767264033              0.1972113830D-04
   current occupation vector 
     5  1  1  0
     5  1  1  0
      18          -112.771285767271678              0.1687914895D-05
   current occupation vector 
     5  1  1  0
     5  1  1  0
      19          -112.771285767273042              0.6572007853D-06
   current occupation vector 
     5  1  1  0
     5  1  1  0
      20          -112.771285767270882              0.4411413285D-07
   current occupation vector 
     5  1  1  0
     5  1  1  0
      21          -112.771285767273383              0.1948808193D-07
   current occupation vector 
     5  1  1  0
     5  1  1  0
      22          -112.771285767273838              0.8500481652D-08
   current occupation vector 
     5  1  1  0
     5  1  1  0
      23          -112.771285767273440              0.5529721125D-09
   current occupation vector 
     5  1  1  0
     5  1  1  0
      24          -112.771285767273099              0.2163306201D-09
   current occupation vector 
     5  1  1  0
     5  1  1  0
      25          -112.771285767273156              0.1638115841D-09
   current occupation vector 
     5  1  1  0
     5  1  1  0

  SCF has converged.

 Density matrix saved to file den.dat
 total electron number:   14.0000000000002     
     E(SCF)=      -112.771285767272929              0.6107447881D-10

  Eigenvector printing suppressed.

 @PUTMOS-I, Writing converged MOs to NEWMOS. 
 @PUTMOS-I, Symmetry   1 Full Blocks 21 Partial Blocksize   2
 @PUTMOS-I, Symmetry   2 Full Blocks 13 Partial Blocksize   0
 @PUTMOS-I, Symmetry   3 Full Blocks 13 Partial Blocksize   0
 @PUTMOS-I, Symmetry   4 Full Blocks  7 Partial Blocksize   0
 @PUTFOCK-I, Writing converged Fock matrix to NEWFOCK. 
 @PUTFOCK-I, Symmetry   1 Full Blocks 21 Partial Blocksize   2
 @PUTFOCK-I, Symmetry   2 Full Blocks 13 Partial Blocksize   0
 @PUTFOCK-I, Symmetry   3 Full Blocks 13 Partial Blocksize   0
 @PUTFOCK-I, Symmetry   4 Full Blocks  7 Partial Blocksize   0


 
  ORBITAL EIGENVALUES (ALPHA)  (1H = 27.2113834 eV)

       MO #        E(hartree)               E(eV)           FULLSYM    COMPSYM
       ----   --------------------   --------------------   -------   ---------
    1     1         -20.6586657209        -562.1508734648     SG+        A1 (1)
    2     2         -11.3123119785        -307.8236583864     SG+        A1 (1)
    3     3          -1.5957082217         -43.4214282151     SG+        A1 (1)
    4     4          -0.8139686227         -22.1492122665     SG+        A1 (1)
    5    87          -0.6899399422         -18.7742202912      PI        B1 (2)
    6   139          -0.6899399422         -18.7742202912      PI        B2 (3)
    7     5          -0.5404270038         -14.7057664003     SG+        A1 (1)
  +++++++++++++++++++++++++++++++++++++++++++++++++++++++++++++++++++++++++++++
    8     6           0.0577054914           1.5702462503     SG+        A1 (1)
    9   140           0.0650880709           1.7711364520      PI        B2 (3)
   10    88           0.0650880709           1.7711364520      PI        B1 (2)
   11     7           0.0773111782           2.1037441124     SG+        A1 (1)
   12   141           0.1538517284           4.1865183689      PI        B2 (3)
   13    89           0.1538517284           4.1865183689      PI        B1 (2)
   14     8           0.1558155117           4.2399556281     SG+        A1 (1)
   15   142           0.1831087142           4.9826414263      PI        B2 (3)
   16    90           0.1831087142           4.9826414263      PI        B1 (2)
   17     9           0.2270355385           6.1779510830     SG+        A1 (1)
   18   191           0.2280154794           6.2046166314      DE        A2 (4)
   19    10           0.2280154794           6.2046166314      DE        A1 (1)
   20    11           0.3025410921           8.2325616502     SG+        A1 (1)
   21   143           0.3337407613           9.0815478130      PI        B2 (3)
   22    91           0.3337407613           9.0815478130      PI        B1 (2)
   23    12           0.3960180003          10.7761976390     SG+        A1 (1)
   24    92           0.3998215499          10.8796974869      PI        B1 (2)
   25   144           0.3998215499          10.8796974870      PI        B2 (3)
   26    13           0.5076690777          13.8143779137     SG+        A1 (1)
   27   192           0.5267436616          14.3334237284      DE        A2 (4)
   28    14           0.5267436616          14.3334237284      DE        A1 (1)
   29    93           0.6193093069          16.8522629921      PI        B1 (2)
   30   145           0.6193093069          16.8522629921      PI        B2 (3)
   31    15           0.6609613614          17.9856730177     SG+        A1 (1)
   32   146           0.7503505090          20.4180753860      PH        B2 (3)
   33    94           0.7503505090          20.4180753860      PH        B1 (2)
   34   193           0.7709348304          20.9782032461      DE        A2 (4)
   35    16           0.7709348304          20.9782032461      DE        A1 (1)
   36    17           0.7860156906          21.3885743153     SG+        A1 (1)
   37   147           0.8372863833          22.7837207904      PI        B2 (3)
   38    95           0.8372863833          22.7837207904      PI        B1 (2)
   39    96           0.8740633527          23.7844730069      PI        B1 (2)
   40   148           0.8740633527          23.7844730069      PI        B2 (3)
   41    18           0.8765029692          23.8508583457     SG+        A1 (1)
   42    19           0.8994697574          24.4758164257      DE        A1 (1)
   43   194           0.8994697574          24.4758164257      DE        A2 (4)
   44    20           0.9493087908          25.8320054718     SG+        A1 (1)
   45    97           1.1039384248          30.0396917269      PI        B1 (2)
   46   149           1.1039384248          30.0396917269      PI        B2 (3)
   47    21           1.2908604772          35.1260993597     SG+        A1 (1)
   48    98           1.4546716949          39.5836292108      PH        B1 (2)
   49   150           1.4546716949          39.5836292108      PH        B2 (3)
   50   195           1.5033051497          40.9070127957      DE        A2 (4)
   51    22           1.5033051497          40.9070127957      DE        A1 (1)
   52    23           1.5294702410          41.6190011271     SG+        A1 (1)
   53    99           1.5364953317          41.8101635631      PI        B1 (2)
   54   151           1.5364953317          41.8101635632      PI        B2 (3)
   55    24           1.6567443157          45.0823047708     SG+        A1 (1)
   56    25           1.7524817400          47.6874525291     SG+        A1 (1)
   57   196           1.7764011568          48.3383329498      DE        A2 (4)
   58    26           1.7764011568          48.3383329498      DE        A1 (1)
   59   100           1.8692515488          50.8649205661      PI        B1 (2)
   60   152           1.8692515488          50.8649205662      PI        B2 (3)
   61   101           1.9515834561          53.1052856604      PI        B1 (2)
   62   153           1.9515834561          53.1052856604      PI        B2 (3)
   63   197           2.1122025693          57.4759539325      PI        A2 (4)
   64    27           2.1122025693          57.4759539325      PI        A1 (1)
   65    28           2.1980069910          59.8108109489     SG+        A1 (1)
   66    29           2.2199406371          60.4076558017      DE        A1 (1)
   67   198           2.2199406371          60.4076558017      DE        A2 (4)
   68   154           2.2600266885          61.4984527148      PH        B2 (3)
   69   102           2.2600266885          61.4984527148      PH        B1 (2)
   70    30           2.3308467057          63.4255633568     SG+        A1 (1)
   71   103           2.3450740248          63.8127083900      PI        B1 (2)
   72   155           2.3450740248          63.8127083900      PI        B2 (3)
   73    31           2.3800996588          64.7658043459      DE        A1 (1)
   74   199           2.3800996588          64.7658043459      DE        A2 (4)
   75   156           2.4031012228          65.3917087213      PH        B2 (3)
   76   104           2.4031012228          65.3917087213      PH        B1 (2)
   77    32           2.5368386454          69.0308890048     SG+        A1 (1)
   78   105           2.6103039996          71.0299829230      PI        B1 (2)
   79   157           2.6103039996          71.0299829230      PI        B2 (3)
   80   106           2.9452193231          80.1434921983      PI        B1 (2)
   81   158           2.9452193231          80.1434921983      PI        B2 (3)
   82    33           3.0818496519          83.8613924598     SG+        A1 (1)
   83   200           3.0938135312          84.1869461650      DE        A2 (4)
   84    34           3.0938135312          84.1869461652      DE        A1 (1)
   85    35           3.4206482441          93.0805708457     SG+        A1 (1)
   86    36           3.7480308296         101.9891038983      PI        A1 (1)
   87   201           3.7480308296         101.9891038983      PI        A2 (4)
   88   107           3.7614836354         102.3551733565      PI        B1 (2)
   89   159           3.7614836354         102.3551733566      PI        B2 (3)
   90    37           3.9811579125         108.3328143329     SG+        A1 (1)
   91   160           4.0714028191         110.7885030856      PH        B2 (3)
   92   108           4.0714028191         110.7885030856      PH        B1 (2)
   93   202           4.1775503367         113.6769238850      DE        A2 (4)
   94    38           4.1775503367         113.6769238850      DE        A1 (1)
   95   161           4.2101533538         114.5640970821      PI        B2 (3)
   96   109           4.2101533538         114.5640970821      PI        B1 (2)
   97    39           4.3092286544         117.2600730727     SG+        A1 (1)
   98   110           4.4062756986         119.9008574007      PH        B1 (2)
   99   162           4.4062756986         119.9008574007      PH        B2 (3)
  100   203           4.4279643577         120.4910358178      DE        A2 (4)
  101    40           4.4279643577         120.4910358178      DE        A1 (1)
  102    41           4.6730034408         127.1588882571     SG+        A1 (1)
  103   111           4.8131387581         130.9721641052      PI        B1 (2)
  104   163           4.8131387581         130.9721641053      PI        B2 (3)
  105    42           4.9863655779         135.6859055128     SG+        A1 (1)
  106    43           5.1941268190         141.3393763003      DE        A1 (1)
  107   204           5.1941268190         141.3393763006      DE        A2 (4)
  108   164           5.2701940969         143.4092721640      PI        B2 (3)
  109   112           5.2701940969         143.4092721641      PI        B1 (2)
  110    44           5.9171600058         161.0141095560      PI        A1 (1)
  111   205           5.9171600058         161.0141095560      PI        A2 (4)
  112   165           5.9321324083         161.4215293418      PI        B2 (3)
  113   113           5.9321324083         161.4215293419      PI        B1 (2)
  114    45           6.1684914183         167.8531849840     SG+        A1 (1)
  115    46           6.2290179751         169.5001963269     SG+        A1 (1)
  116   166           6.2468982323         169.9867428610      PH        B2 (3)
  117   114           6.2468982323         169.9867428610      PH        B1 (2)
  118    47           6.3291646706         172.2253264548      DE        A1 (1)
  119   206           6.3291646706         172.2253264548      DE        A2 (4)
  120   115           6.3648465809         173.1962805950      PI        B1 (2)
  121   167           6.3648465809         173.1962805950      PI        B2 (3)
  122   168           6.4741810088         176.1714216304      PH        B2 (3)
  123   116           6.4741810088         176.1714216304      PH        B1 (2)
  124   207           6.6735211200         181.5957418232      DE        A2 (4)
  125    48           6.6735211200         181.5957418233      DE        A1 (1)
  126    49           7.1356732053         194.1715394057     SG+        A1 (1)
  127   169           7.7634126240         211.2531974046      PI        B2 (3)
  128   117           7.7634126240         211.2531974046      PI        B1 (2)
  129    50           7.7875700935         211.9105555688      DE        A1 (1)
  130   208           7.7875700935         211.9105555692      DE        A2 (4)
  131    51           8.1497413966         221.7657377545     SG+        A1 (1)
  132    52           8.6496783601         235.3697141434     SG+        A1 (1)
  133   118           8.7995217166         239.4471591679      PI        B1 (2)
  134   170           8.7995217166         239.4471591680      PI        B2 (3)
  135    53          10.0360047910         273.0935741714     SG+        A1 (1)
  136   119          10.1348479357         275.7832328801      PI        B1 (2)
  137   171          10.1348479357         275.7832328802      PI        B2 (3)
  138    54          10.6013106884         288.4763296840      PI        A1 (1)
  139   209          10.6013106884         288.4763296840      PI        A2 (4)
  140   120          10.9718084375         298.5580859848      PH        B1 (2)
  141   172          10.9718084375         298.5580859848      PH        B2 (3)
  142   210          11.2570113333         306.3188513289      DE        A2 (4)
  143    55          11.2570113333         306.3188513289      DE        A1 (1)
  144    56          11.2968458469         307.4028035511     SG+        A1 (1)
  145   121          11.4214460174         310.7933465627      PI        B1 (2)
  146   173          11.4214460174         310.7933465627      PI        B2 (3)
  147   174          11.8611345164         322.7578788839      PH        B2 (3)
  148   122          11.8611345164         322.7578788839      PH        B1 (2)
  149    57          12.3110917472         335.0018376069     SG+        A1 (1)
  150   211          12.3994981398         337.4074978495      DE        A2 (4)
  151    58          12.3994981398         337.4074978499      DE        A1 (1)
  152   123          12.9287943080         351.8103788154      PI        B1 (2)
  153   175          12.9287943080         351.8103788155      PI        B2 (3)
  154   212          12.9941308728         353.5882771288      DE        A2 (4)
  155    59          12.9941308728         353.5882771289      DE        A1 (1)
  156    60          13.8183087756         376.0152980313     SG+        A1 (1)
  157   176          14.7826461096         402.2562509551      PI        B2 (3)
  158   124          14.7826461096         402.2562509552      PI        B1 (2)
  159    61          15.7974545860         429.8705934843     SG+        A1 (1)
  160    62          18.4186073989         501.1957876255     SG+        A1 (1)
  161   177          19.5922056784         533.1310203653      PI        B2 (3)
  162   125          19.5922056784         533.1310203659      PI        B1 (2)
  163    63          21.1605241980         575.8071368972     SG+        A1 (1)
  164   213          26.6631377872         725.5408649738      DE        A2 (4)
  165    64          26.6631377872         725.5408649739      DE        A1 (1)
  166   126          27.4048037119         745.7226208065      PI        B1 (2)
  167   178          27.4048037119         745.7226208065      PI        B2 (3)
  168    65          28.6777056929         780.3600446414     SG+        A1 (1)
  169   127          33.8807132353         921.9410777106      PI        B1 (2)
  170   179          33.8807132353         921.9410777109      PI        B2 (3)
  171    66          35.5322774191         966.8824239259     SG+        A1 (1)
  172    67          37.3223606285        1015.5930644545     SG+        A1 (1)
  173   214          47.1673926183        1283.4900045139      DE        A2 (4)
  174    68          47.1673926183        1283.4900045139      DE        A1 (1)
  175   180          48.0232221424        1306.7783098192      PI        B2 (3)
  176   128          48.0232221424        1306.7783098192      PI        B1 (2)
  177    69          48.7532221184        1326.6426190505     SG+        A1 (1)
  178    70          64.5622087056        1756.8270142381     SG+        A1 (1)
  179   181          67.0225120579        1823.7752720389      PI        B2 (3)
  180   129          67.0225120579        1823.7752720394      PI        B1 (2)
  181    71          68.1859558109        1855.4341860659     SG+        A1 (1)
  182   130          98.7312521249        2686.6139551322      PH        B1 (2)
  183   182          98.7312521249        2686.6139551322      PH        B2 (3)
  184   215          98.7674281445        2687.5983546717      DE        A2 (4)
  185    72          98.7674281445        2687.5983546717      DE        A1 (1)
  186   183          98.8415551374        2689.6154526951      PI        B2 (3)
  187   131          98.8415551374        2689.6154526951      PI        B1 (2)
  188    73          98.8672075511        2690.3134903608     SG+        A1 (1)
  189   132         103.2923803171        2810.7285631074      PH        B1 (2)
  190   184         103.2923803171        2810.7285631074      PH        B2 (3)
  191   216         103.3564480578        2812.4719349634      DE        A2 (4)
  192    74         103.3564480578        2812.4719349643      DE        A1 (1)
  193   133         103.4023622675        2813.7213241255      PI        B1 (2)
  194   185         103.4023622675        2813.7213241255      PI        B2 (3)
  195    75         103.4918465686        2816.1563157510     SG+        A1 (1)
  196   217         115.2844333929        3137.0489171072      DE        A2 (4)
  197    76         115.2844333929        3137.0489171072      DE        A1 (1)
  198   134         115.6446462790        3146.8508080557      PI        B1 (2)
  199   186         115.6446462790        3146.8508080557      PI        B2 (3)
  200    77         116.1974499060        3161.8933594957     SG+        A1 (1)
  201   135         117.1180067713        3186.9429852983      PI        B1 (2)
  202   187         117.1180067713        3186.9429852984      PI        B2 (3)
  203    78         118.7000660336        3229.9930064452     SG+        A1 (1)
  204    79         123.2104245155        3352.7261003667     SG+        A1 (1)
  205    80         198.6120508739        5404.5086641897      DE        A1 (1)
  206   218         198.6120508739        5404.5086641898      DE        A2 (4)
  207   188         199.0819583284        5417.2954960969      PI        B2 (3)
  208   136         199.0819583284        5417.2954960970      PI        B1 (2)
  209    81         199.4740609075        5427.9651497085     SG+        A1 (1)
  210    82         217.0027069023        5904.9438563556     SG+        A1 (1)
  211   189         225.4206574988        6134.0079374788      PI        B2 (3)
  212   137         225.4206574988        6134.0079374792      PI        B1 (2)
  213    83         226.3617989099        6159.6176972507     SG+        A1 (1)
  214   138         395.5631469309       10763.8204500467      PI        B1 (2)
  215   190         395.5631469309       10763.8204500467      PI        B2 (3)
  216    84         396.7423451838       10795.9080658102     SG+        A1 (1)
  217    85         509.6599324803       13868.5518263403     SG+        A1 (1)
  218    86         895.8486225872       24377.2803375811     SG+        A1 (1)


  VSCF finished.

 @CHECKOUT-I, Total execution time (CPU/WALL):       33.29/      15.69 seconds.
--executable xvscf finished with status     0 in       15.77 seconds (walltime).
 --invoking executable--
/nfs/workspaces/public/cfour_mpi/bin/xvtran
 @GETMEM-I,  Allocated    3814 MB of main memory.
  Full RHF integral transformation
  Transformation of IIII integrals :
  1 pass through the AO integral file was required.
     4650572 AO integrals were read.
     8869583 MO integrals were written to HF2.
  Transformation of IIJJ integrals :
  1 pass through the AO integral file was required.
    10498396 AO integrals were read.
    14686216 MO integrals were written to HF2.
  Transformation of IJIJ integrals :
  1 pass through the AO integral file was required.
    19908553 AO integrals were read.
    27740587 MO integrals were written to HF2.
  Transformation of IJKL integrals :
  1 pass through the AO integral file was required.
    14717509 AO integrals were read.
    18739931 MO integrals were written to HF2.
  Summary of active molecular orbitals: 
------------------------------------------------------------------------
 
  Index      Eigenvalue    Symmetry    Index      Eigenvalue    Symmetry
------------------------------------------------------------------------
     1       -20.6586657        1       110         4.2101534        2
     2       -11.3123120        1       111         4.4062757        2
     3        -1.5957082        1       112         4.8131388        2
     4        -0.8139686        1       113         5.2701941        2
     5        -0.5404270        1       114         5.9321324        2
     6        -0.6899399        2       115         6.2468982        2
     7        -0.6899399        3       116         6.3648466        2
     8         0.0577055        1       117         6.4741810        2
     9         0.0773112        1       118         7.7634126        2
    10         0.1558155        1       119         8.7995217        2
    11         0.2270355        1       120        10.1348479        2
    12         0.2280155        1       121        10.9718084        2
    13         0.3025411        1       122        11.4214460        2
    14         0.3960180        1       123        11.8611345        2
    15         0.5076691        1       124        12.9287943        2
    16         0.5267437        1       125        14.7826461        2
    17         0.6609614        1       126        19.5922057        2
    18         0.7709348        1       127        27.4048037        2
    19         0.7860157        1       128        33.8807132        2
    20         0.8765030        1       129        48.0232221        2
    21         0.8994698        1       130        67.0225121        2
    22         0.9493088        1       131        98.7312521        2
    23         1.2908605        1       132        98.8415551        2
    24         1.5033051        1       133       103.2923803        2
    25         1.5294702        1       134       103.4023623        2
    26         1.6567443        1       135       115.6446463        2
    27         1.7524817        1       136       117.1180068        2
    28         1.7764012        1       137       199.0819583        2
    29         2.1122026        1       138       225.4206575        2
    30         2.1980070        1       139       395.5631469        2
    31         2.2199406        1       140         0.0650881        3
    32         2.3308467        1       141         0.1538517        3
    33         2.3800997        1       142         0.1831087        3
    34         2.5368386        1       143         0.3337408        3
    35         3.0818497        1       144         0.3998215        3
    36         3.0938135        1       145         0.6193093        3
    37         3.4206482        1       146         0.7503505        3
    38         3.7480308        1       147         0.8372864        3
    39         3.9811579        1       148         0.8740634        3
    40         4.1775503        1       149         1.1039384        3
    41         4.3092287        1       150         1.4546717        3
    42         4.4279644        1       151         1.5364953        3
    43         4.6730034        1       152         1.8692515        3
    44         4.9863656        1       153         1.9515835        3
    45         5.1941268        1       154         2.2600267        3
    46         5.9171600        1       155         2.3450740        3
    47         6.1684914        1       156         2.4031012        3
    48         6.2290180        1       157         2.6103040        3
    49         6.3291647        1       158         2.9452193        3
    50         6.6735211        1       159         3.7614836        3
    51         7.1356732        1       160         4.0714028        3
    52         7.7875701        1       161         4.2101534        3
    53         8.1497414        1       162         4.4062757        3
    54         8.6496784        1       163         4.8131388        3
    55        10.0360048        1       164         5.2701941        3
    56        10.6013107        1       165         5.9321324        3
    57        11.2570113        1       166         6.2468982        3
    58        11.2968458        1       167         6.3648466        3
    59        12.3110917        1       168         6.4741810        3
    60        12.3994981        1       169         7.7634126        3
    61        12.9941309        1       170         8.7995217        3
    62        13.8183088        1       171        10.1348479        3
    63        15.7974546        1       172        10.9718084        3
    64        18.4186074        1       173        11.4214460        3
    65        21.1605242        1       174        11.8611345        3
    66        26.6631378        1       175        12.9287943        3
    67        28.6777057        1       176        14.7826461        3
    68        35.5322774        1       177        19.5922057        3
    69        37.3223606        1       178        27.4048037        3
    70        47.1673926        1       179        33.8807132        3
    71        48.7532221        1       180        48.0232221        3
    72        64.5622087        1       181        67.0225121        3
    73        68.1859558        1       182        98.7312521        3
    74        98.7674281        1       183        98.8415551        3
    75        98.8672076        1       184       103.2923803        3
    76       103.3564481        1       185       103.4023623        3
    77       103.4918466        1       186       115.6446463        3
    78       115.2844334        1       187       117.1180068        3
    79       116.1974499        1       188       199.0819583        3
    80       118.7000660        1       189       225.4206575        3
    81       123.2104245        1       190       395.5631469        3
    82       198.6120509        1       191         0.2280155        4
    83       199.4740609        1       192         0.5267437        4
    84       217.0027069        1       193         0.7709348        4
    85       226.3617989        1       194         0.8994698        4
    86       396.7423452        1       195         1.5033051        4
    87       509.6599325        1       196         1.7764012        4
    88       895.8486226        1       197         2.1122026        4
    89         0.0650881        2       198         2.2199406        4
    90         0.1538517        2       199         2.3800997        4
    91         0.1831087        2       200         3.0938135        4
    92         0.3337408        2       201         3.7480308        4
    93         0.3998215        2       202         4.1775503        4
    94         0.6193093        2       203         4.4279644        4
    95         0.7503505        2       204         5.1941268        4
    96         0.8372864        2       205         5.9171600        4
    97         0.8740634        2       206         6.3291647        4
    98         1.1039384        2       207         6.6735211        4
    99         1.4546717        2       208         7.7875701        4
   100         1.5364953        2       209        10.6013107        4
   101         1.8692515        2       210        11.2570113        4
   102         1.9515835        2       211        12.3994981        4
   103         2.2600267        2       212        12.9941309        4
   104         2.3450740        2       213        26.6631378        4
   105         2.4031012        2       214        47.1673926        4
   106         2.6103040        2       215        98.7674281        4
   107         2.9452193        2       216       103.3564481        4
   108         3.7614836        2       217       115.2844334        4
   109         4.0714028        2       218       198.6120509        4
------------------------------------------------------------------------
  -20.6586657209363       -11.3123119784637       -1.59570822169490     
 -0.813968622651756      -0.540427003807753      -0.689939942236214     
 -0.689939942236207       5.770549138166140E-002  7.731117824896408E-002
  0.155815511684041       0.227035538478334       0.228015479410027     
  0.302541092057144       0.396018000281548       0.507669077702861     
  0.526743661567308       0.660961361400763       0.770934830389429     
  0.786015690598032       0.876502969183945       0.899469757413619     
  0.949308790811173        1.29086047715180        1.50330514970041     
   1.52947024101478        1.65674431571781        1.75248174001511     
   1.77640115679652        2.11220256932827        2.19800699103413     
   2.21994063711341        2.33084670574986        2.38009965880133     
   2.53683864543259        3.08184965192982        3.09381353118397     
   3.42064824406229        3.74803082956469        3.98115791249812     
   4.17755033670878        4.30922865438454        4.42796435765914     
   4.67300344079963        4.98636557789925        5.19412681900967     
   5.91716000576555        6.16849141833704        6.22901797513374     
   6.32916467064862        6.67352111996269        7.13567320526847     
   7.78757009350901        8.14974139662951        8.64967836009978     
   10.0360047909720        10.6013106883779        11.2570113333112     
   11.2968458469156        12.3110917472457        12.3994981398063     
   12.9941308727755        13.8183087755590        15.7974545860210     
   18.4186073988998        21.1605241980160        26.6631377871754     
   28.6777056928818        35.5322774190843        37.3223606284755     
   47.1673926182638        48.7532221184495        64.5622087055709     
   68.1859558109031        98.7674281444915        98.8672075511168     
[...]
 Convergence information after     8 iterations: 
 Largest element of residual vector : -0.20027794E-04.
 Largest element of DIIS residual   :  0.14845770E-04.
 Convergence information after     9 iterations: 
 Largest element of residual vector :  0.69591904E-05.
 Largest element of DIIS residual   :  0.35248265E-05.
 Convergence information after    10 iterations: 
 Largest element of residual vector :  0.28816818E-05.
 Largest element of DIIS residual   :  0.17763565E-05.
 Convergence information after    11 iterations: 
 Largest element of residual vector :  0.88935529E-06.
 Largest element of DIIS residual   :  0.44855360E-06.
 Convergence information after    12 iterations: 
 Largest element of residual vector :  0.37362117E-06.
 Largest element of DIIS residual   :  0.23546133E-06.
 Convergence information after    13 iterations: 
 Largest element of residual vector :  0.15231695E-06.
 Largest element of DIIS residual   :  0.13629673E-06.
 Convergence information after    14 iterations: 
 Largest element of residual vector :  0.97297339E-07.
 Largest element of DIIS residual   :  0.68670783E-07.
 Perturbed amplitude equations converged in    14 iterations.
  Dominant contributions to perturbed wavefunction:
    7    7  142   37   0.2595467432 ABAB
    7    7   37  142   0.2595467432 ABAB
    7    7  142   27   0.2193920821 ABAB
    7    7   27  142   0.2193920821 ABAB
    7    7  142   63   0.2053317194 ABAB
    7    7   63  142   0.2053317194 ABAB
    7    7  142   55   0.1892429385 ABAB
    7    7   55  142   0.1892429385 ABAB
    7    7  142   47   0.1802068762 ABAB
    7    7   47  142   0.1802068762 ABAB
    7    6   37   91   0.1764807296 ABAB
    6    7   91   37   0.1764807296 ABAB
    7    7  142   51  -0.1497104945 ABAB
    7    7   51  142  -0.1497104945 ABAB
    7    6   27   91   0.1485765859 ABAB
    6    7   91   27   0.1485765859 ABAB
    7    7  143   37   0.1451928083 ABAB
    7    7   37  143   0.1451928083 ABAB
    7    7  142   43   0.1409904179 ABAB
    7    7   43  142   0.1409904179 ABAB
  norm of converged amps    2.74678996104699     
 Starting iterative solution of the perturbed Lambda equations.
 The DIIS procedure is used to accelerate convergence.
 Convergence criterion is 10**(-7).
 Maximum number of iterations is 100.
 Convergence information after     1 iterations: 
 Largest element of residual vector : -0.63801053E-01.
 Largest element of DIIS residual   : -0.63801053E-01.
 Convergence information after     2 iterations: 
 Largest element of residual vector :  0.62925010E-02.
 Largest element of DIIS residual   :  0.58865507E-02.
 Convergence information after     3 iterations: 
 Largest element of residual vector : -0.38223982E-02.
 Largest element of DIIS residual   : -0.34150252E-02.
 Convergence information after     4 iterations: 
 Largest element of residual vector : -0.23961715E-02.
 Largest element of DIIS residual   : -0.18243785E-02.
 Convergence information after     5 iterations: 
 Largest element of residual vector : -0.13035112E-02.
 Largest element of DIIS residual   : -0.58915667E-03.
 Convergence information after     6 iterations: 
 Largest element of residual vector : -0.40828946E-03.
 Largest element of DIIS residual   : -0.97058079E-04.
 Convergence information after     7 iterations: 
 Largest element of residual vector : -0.68478617E-04.
 Largest element of DIIS residual   : -0.31360114E-04.
 Convergence information after     8 iterations: 
 Largest element of residual vector : -0.15761424E-04.
 Largest element of DIIS residual   :  0.12607143E-04.
 Convergence information after     9 iterations: 
 Largest element of residual vector :  0.60145396E-05.
 Largest element of DIIS residual   :  0.30512657E-05.
 Convergence information after    10 iterations: 
 Largest element of residual vector :  0.24496652E-05.
 Largest element of DIIS residual   :  0.15335795E-05.
 Convergence information after    11 iterations: 
 Largest element of residual vector :  0.77766055E-06.
 Largest element of DIIS residual   :  0.42552996E-06.
 Convergence information after    12 iterations: 
 Largest element of residual vector :  0.33943015E-06.
 Largest element of DIIS residual   :  0.22055856E-06.
 Convergence information after    13 iterations: 
 Largest element of residual vector :  0.14292536E-06.
 Largest element of DIIS residual   :  0.12610241E-06.
 Convergence information after    14 iterations: 
 Largest element of residual vector :  0.90127629E-07.
 Largest element of DIIS residual   :  0.63260516E-07.
 Perturbed Lambda equations converged in    14 iterations.
  Dominant contributions to perturbed wavefunction:
    7    7  142   37   0.2489973165 ABAB
    7    7   37  142   0.2489973165 ABAB
    7    7  142   27   0.2097084737 ABAB
    7    7   27  142   0.2097084737 ABAB
    7    7  142   63   0.1966764966 ABAB
    7    7   63  142   0.1966764966 ABAB
    7    7  142   55   0.1801075399 ABAB
    7    7   55  142   0.1801075399 ABAB
    7    7  142   47   0.1725511614 ABAB
    7    7   47  142   0.1725511614 ABAB
    7    6   37   91   0.1675129244 ABAB
    6    7   91   37   0.1675129244 ABAB
    7    7  142   51  -0.1437467972 ABAB
    7    7   51  142  -0.1437467972 ABAB
    7    6   27   91   0.1403168210 ABAB
    6    7   91   27   0.1403168210 ABAB
    7    7  143   37   0.1399992207 ABAB
    7    7   37  143   0.1399992207 ABAB
    7    7  142   19   0.1338333571 ABAB
    7    7   19  142   0.1338333571 ABAB
        The DBOC first-order density matrix is being calculated 
             (Symmetry block 3, perturbation   2)
 term   8.96653081546552     
 final tnorm  0.899740542217950     
  norm contr. I: |<0|L dT/dx|0>|^2   0.000000000000000E+000
  norm contr. II: <0|[nabla(1+L)e-T][nabla e^T]|0>   8.96653081546552     
  total norm contribution   8.96653081546552     
 oo  1.344690670472006E-002
 vv  -67.3463443821986     
 vo  2.920768214526539E-002
  Correlated perturbed 1-el contribution to DBOC  -67.3036897933486       cm**-1
  SUM_I |dc_I/dx|^2 contribution to DBOC   33.7563847061566       cm**-1
 
 
  The total diagonal Born-Oppenheimer correction (DBOC) is:      0.0040201380 a.u.
  The total diagonal Born-Oppenheimer correction (DBOC) is:        882.318297 cm-1
 
 Total CC energy including DBOC  -113.253588644619     
 First-order density matrix is being calculated  (Symmetry block 3, perturbation   2)
 Calculation of the contributions of <pq||rs> to dI(i,j)/dx required   2.0 seconds.
 Calculation of the contributions of <pq||rs> to dI(a,b)/dx required  15.6 seconds.
 Calculation of the contributions of <pq||rs> to dI(i,a)/dx required   9.5 seconds.
 First-order Z-vector equations are solved for 1 perturbation.
 Convergence reached after  17 iterations.
        U*G(pq,rs) contribution is being calculated
             (Symmetry block 3, perturbation   2)

 CCSD contribution to force constants 

        0.0000000000        0.0000000000        0.0000000000
        0.0000000000        0.0000000000        0.0000000000
        0.0000000000        0.0000000000        0.0000000000
        0.0000000000        0.0000000000        0.0000000000
        0.0000000000        0.0000000000        0.0000000000
        0.0000000000        0.0000000000        0.0000000000
        0.0000000000        0.0000000000        0.0000000000
        0.0000000000        0.0000000000        0.0000000000
        0.0000000000        0.0000000000        0.0000000000
        0.0000000000        0.0000000000        0.0000000000
        0.0000000000        0.0000000000        0.0000000000
        0.0000000000       -8.9363149919        8.9363149919

 CCSD contribution to dipole derivatives 

        0.0000000000        0.0000000000        0.0000000000
        0.0000000000        0.0000000000        0.0000000000
        0.0000000000        0.0000000000        0.0000000000
        0.0000000000        0.0000000000       -0.0399172588
        0.0000000000        0.0000000000        0.0000000000
        0.0000000000        0.0000000000        0.0000000000
 @CHECKOUT-I, Total execution time (CPU/WALL):     1220.12/     501.90 seconds.
--executable xsdcc finished with status     0 in      502.03 seconds (walltime).
 --invoking executable--
/nfs/workspaces/public/cfour_mpi/bin/xanti
 @GETMEM-I,  Allocated    3814 MB of main memory.
 CCSD MO derivative gammas will be sorted to Mulliken order.
 @CHECKOUT-I, Total execution time (CPU/WALL):        8.68/       9.57 seconds.
--executable xanti finished with status     0 in        9.63 seconds (walltime).
 --invoking executable--
/nfs/workspaces/public/cfour_mpi/bin/xbcktrn
 @GETMEM-I,  Allocated    3814 MB of main memory.
 CCSD MO derivative gammas will be transformed to the AO basis.
 @CHECKOUT-I, Total execution time (CPU/WALL):       20.47/       4.20 seconds.
--executable xbcktrn finished with status     0 in        4.22 seconds (walltime).
 --invoking executable--
/nfs/workspaces/public/cfour_mpi/bin/xvdint
 @GETMEM-I,  Allocated    3814 MB of main memory.
 One- and two-electron integral derivatives are calculated
 for RHF-CC/MBPT hessians and dipole derivatives.
 Spherical gaussians are used.
  magnet F F
                    8722  records have been written to the Sort file.
  Total length of Sort file :             178609116  words.
 Evaluation of 2el integral derivatives

                      Two-electron integral gradient
                      ------------------------------

                         C #1 z     0.0000000000
                         O #2 z     0.0000000000


 C #1       0.0000000000           -1.2097374875            0.0000000000
 O #2       0.0000000000            1.2097374875            0.0000000000


 Evaluation of 2e integral derivatives required  343.27 seconds.
  contribution to Hessian
        0.0000000000        0.0000000000        0.0000000000
        0.0000000000       -1.2097374875        1.2097374875
 @CHECKOUT-I, Total execution time (CPU/WALL):      343.26/      69.57 seconds.
--executable xvdint finished with status     0 in       69.62 seconds (walltime).
 --invoking executable--
/nfs/workspaces/public/cfour_mpi/bin/xanti
 @GETMEM-I,  Allocated    3814 MB of main memory.
 CCSD MO gammas will be sorted to Mulliken order.
 @CHECKOUT-I, Total execution time (CPU/WALL):       10.69/       9.29 seconds.
--executable xanti finished with status     0 in        9.31 seconds (walltime).
 --invoking executable--
/nfs/workspaces/public/cfour_mpi/bin/xbcktrn
 @GETMEM-I,  Allocated    3814 MB of main memory.
 CCSD MO gammas will be transformed to the AO basis.
 @CHECKOUT-I, Total execution time (CPU/WALL):       31.29/       5.65 seconds.
--executable xbcktrn finished with status     0 in        5.67 seconds (walltime).
 --invoking executable--
/nfs/workspaces/public/cfour_mpi/bin/xvdint
 @GETMEM-I,  Allocated    3814 MB of main memory.
 One- and two-electron integral derivatives are calculated
 for RHF-CC/MBPT hessians and dipole derivatives.
 Spherical gaussians are used.
  magnet F F

                     Kinetic energy integral gradient
                     --------------------------------

                         C #1 z    -1.8198887213
                         O #2 z     1.8198887213


 C #1       0.0000000000            0.0000000000           -1.8198887213
 O #2       0.0000000000            0.0000000000            1.8198887213



                   Nuclear attraction integral gradient
                   ------------------------------------

                         C #1 z    26.4294350244
                         O #2 z   -26.4294350244


 C #1       0.0000000000            0.0000000000           26.4294350244
 O #2       0.0000000000            0.0000000000          -26.4294350244



                      Reorthonormalization gradient
                      -----------------------------

                         C #1 z     0.0000000000
                         O #2 z     0.0000000000


 C #1       0.0000000000            0.0000000000            0.0000000000
 O #2       0.0000000000            0.0000000000            0.0000000000



                     Kinetic energy integral Hessian
                     -------------------------------


           Symmetry 1

           C #1 z      O #2 z

 C #1 z    0.882528
 O #2 z   -0.882528    0.882528


           Symmetry 2

           C #1 x      O #2 x

 C #1 x   -2.912283
 O #2 x    2.912283   -2.912283


           Symmetry 3

           C #1 y      O #2 y

 C #1 y   -2.912283
 O #2 y    2.912283   -2.912283




           C #1 x      C #1 y      C #1 z      O #2 x      O #2 y      O #2 z

 C #1 x   -2.912283
 C #1 y    0.000000   -2.912283
 C #1 z    0.000000    0.000000    0.882528

 O #2 x    2.912283    0.000000    0.000000   -2.912283
 O #2 y    0.000000    2.912283    0.000000    0.000000   -2.912283
 O #2 z    0.000000    0.000000   -0.882528    0.000000    0.000000    0.882528




                   Nuclear attraction integral Hessian
                   -----------------------------------


           Symmetry 1

           C #1 z      O #2 z

 C #1 z  -13.182440
 O #2 z   13.182440  -13.182440


           Symmetry 2

           C #1 x      O #2 x

 C #1 x   27.593690
 O #2 x  -27.593690   27.593690


           Symmetry 3

           C #1 y      O #2 y

 C #1 y   27.593690
 O #2 y  -27.593690   27.593690




           C #1 x      C #1 y      C #1 z      O #2 x      O #2 y      O #2 z

 C #1 x   27.593690
 C #1 y    0.000000   27.593690
 C #1 z    0.000000    0.000000  -13.182440

 O #2 x  -27.593690    0.000000    0.000000   27.593690
 O #2 y    0.000000  -27.593690    0.000000    0.000000   27.593690
 O #2 z    0.000000    0.000000   13.182440    0.000000    0.000000  -13.182440




                Highest order reorthonormalization Hessian
                ------------------------------------------


           Symmetry 1

           C #1 z      O #2 z

 C #1 z    0.000000
 O #2 z    0.000000    0.000000


           Symmetry 2

           C #1 x      O #2 x

 C #1 x    0.000000
 O #2 x    0.000000    0.000000


           Symmetry 3

           C #1 y      O #2 y

 C #1 y    0.000000
 O #2 y    0.000000    0.000000




           C #1 x      C #1 y      C #1 z      O #2 x      O #2 y      O #2 z




                Electronic contributions to dipole moment
                -----------------------------------------

                               au             Debye

                    z      0.35805526      0.91008584

  Conversion factor used: 1 a.u. =   2.54174691 Debye 



   Electronic contributions to static part of dipole moment derivatives
   --------------------------------------------------------------------


                     Total dipole moment derivatives
                     -------------------------------


           Symmetry 1
                              Ez

               C #1 z    -5.80410382
               O #2 z    -8.19589618

           Symmetry 2
                              Ex

               C #1 x    -5.86261563
               O #2 x    -8.13738437

           Symmetry 3
                              Ey

               C #1 y    -5.86261563
               O #2 y    -8.13738437



                       Ex          Ey          Ez

      C #1    x   -5.862616    0.000000    0.000000
      C #1    y    0.000000   -5.862616    0.000000
      C #1    z    0.000000    0.000000   -5.804104

      O #2    x   -8.137384    0.000000    0.000000
      O #2    y    0.000000   -8.137384    0.000000
      O #2    z    0.000000    0.000000   -8.195896

 Evaluation of 1e integral derivatives required    1.79 seconds.
                    8815  records have been written to the Sort file.
  Total length of Sort file :             180513570  words.
 Evaluation of 2el integral derivatives

                      Two-electron integral gradient
                      ------------------------------

                         C #1 z   -11.7883351612
                         O #2 z    11.7883351612


 C #1       0.0000000000            0.0000000000          -11.7883351612
 O #2       0.0000000000            0.0000000000           11.7883351612


 Evaluation of 2e integral derivatives required  679.13 seconds.

                            Molecular gradient
                            ------------------

                         C #1 z     0.0059807471
                         O #2 z    -0.0059807471


 C #1       0.0000000000            0.0000000000            0.0059807471
 O #2       0.0000000000            0.0000000000           -0.0059807471


  Molecular gradient norm 0.846E-02

                            Molecular hessian
                            -----------------


           Symmetry 1

           C #1 z      O #2 z

 C #1 z   86.834549
 O #2 z  -86.834549   86.834549


           Symmetry 2

           C #1 x      O #2 x

 C #1 x    9.763768
 O #2 x   -9.763768    9.763768


           Symmetry 3

           C #1 y      O #2 y

 C #1 y    9.763768
 O #2 y   -9.763768    9.763768




           C #1 x      C #1 y      C #1 z      O #2 x      O #2 y      O #2 z

 C #1 x    9.763768
 C #1 y    0.000000    9.763768
 C #1 z    0.000000    0.000000   86.834549

 O #2 x   -9.763768    0.000000    0.000000    9.763768
 O #2 y    0.000000   -9.763768    0.000000    0.000000    9.763768
 O #2 z    0.000000    0.000000  -86.834549    0.000000    0.000000   86.834549




                           Total dipole moment
                           -------------------

                               au             Debye

                    z     -0.17969126     -0.45672970

  Conversion factor used: 1 a.u. =   2.54174691 Debye 



                     Total dipole moment derivatives
                     -------------------------------


           Symmetry 1
                              Ez

               C #1 z     0.68669770
               O #2 z    -0.68669770

           Symmetry 2
                              Ex

               C #1 x    -0.09622321
               O #2 x     0.09622321

           Symmetry 3
                              Ey

               C #1 y    -0.09622321
               O #2 y     0.09622321



                       Ex          Ey          Ez

      C #1    x   -0.096223    0.000000    0.000000
      C #1    y    0.000000   -0.096223    0.000000
      C #1    z    0.000000    0.000000    0.686698

      O #2    x    0.096223    0.000000    0.000000
      O #2    y    0.000000    0.096223    0.000000
      O #2    z    0.000000    0.000000   -0.686698

 @CHECKOUT-I, Total execution time (CPU/WALL):      680.91/     114.75 seconds.
--executable xvdint finished with status     0 in      114.77 seconds (walltime).
 --invoking executable--
/nfs/workspaces/public/cfour_mpi/bin/xjoda
  @GTFLGS-I, Hessian will be transformed to curvilinear coordinates.
  @GTFLGS-I, Hessian will be transformed to curvilinear coordinates.
  igrd and ihes are                      0                     1
  gradient from JOBARC 
   0.000000000000000   0.000000000000000   0.005980747119210
   0.000000000000000   0.000000000000000  -0.005980747119210
 
  @PROJFCM-I, Projecting force constant matrix onto totally symmetric subspace.
  Largest difference between matrix elements of symmetrized
  and unsymmetrized FCM :    -0.3623767952E-12.
  read isotopes from ZMAT file 
 
  Summary of diagonal Born-Oppenheimer correction at the correlated level
  The total diagonal Born-Oppenheimer correction (DBOC) is:      0.0040201380 a.u.
  The total diagonal Born-Oppenheimer correction (DBOC) is:        882.318297 cm-1
  The total diagonal Born-Oppenheimer correction (DBOC) is:            10.555 kJ/mole
  hellooooooo 
  readis is  F
 
 @CHECKOUT-I, Total execution time (CPU/WALL):        0.01/       0.05 seconds.
--executable xjoda finished with status     0 in        0.08 seconds (walltime).
  The final electronic energy is      -113.253588644618731 a.u. 
  This computation required                         5686.19 seconds (walltime).
