 --invoking executable--
/nfs/workspaces/public/cfour_mpi/bin/xjoda


   *************************************************************************
         <<<     CCCCCC     CCCCCC   |||     CCCCCC     CCCCCC   >>>
       <<<      CCC        CCC       |||    CCC        CCC         >>>
      <<<      CCC        CCC        |||   CCC        CCC            >>>
    <<<        CCC        CCC        |||   CCC        CCC              >>>
      <<<      CCC        CCC        |||   CCC        CCC            >>>
       <<<      CCC        CCC       |||    CCC        CCC         >>>
         <<<     CCCCCC     CCCCCC   |||     CCCCCC     CCCCCC   >>>
   *************************************************************************

     ****************************************************************
     * CFOUR Coupled-Cluster techniques for Computational Chemistry *
     ****************************************************************
 

   Department of Chemistry                Institut fuer Physikalische Chemie
   University of Florida                  Universitaet Mainz
   Gainesville, FL 32611, USA             D-55099 Mainz, Germany

   Department of Chemistry                Fakultaet fuer Chemie und Biowiss.
   Johns Hopkins University               Karlsruher Institut fuer Technologie
   Baltimore, MD 21218, USA               D-76131 Karlsruhe, Germany

   Department of Chemistry                Department of Physical Chemistry
   Southern Methodist University          Eotvos Lorand University
   Dallas, TX 75275, USA                  H-1053 Budapest, Hungary

 
                       Version 2.1
 
                     vincent.theory.phys.ucl.ac.uk                     
                     Thu 27 Feb 03:02:41 GMT 2025                      
                     integer*8 version is running
 
********************************************************************************
*                          Input from ZMAT file                                *
********************************************************************************
Carbon Monoxide DBOC calculation                                                
C                                                                               
O 1 r                                                                           
                                                                                
r=1.1482758620689655                                                            
                                                                                
                                                                                
*CFOUR(CALC=CCSD,BASIS=AUG-PCVQZ,SCF_CONV=10                                    
CC_CONV=14,DBOC=ON,MEMORY=500000000                                             
ZFIELD=200)                                                                     
                                                                                
%isotopes                                                                       
13                                                                              
16                                                                              
********************************************************************************
  @GTFLGS-I, Hessian will be transformed to curvilinear coordinates.
    -------------------------------------------------------------------
                    CFOUR Control Parameters 
    -------------------------------------------------------------------
        External           Internal           Value            Units
          Name               Name
    -------------------------------------------------------------------
       ABCDTYPE             IABCDT         STANDARD    [  0]    ***   
       ANHARMONIC           IANHAR         OFF         [  0]    ***   
       ANH_ALGORIT          IANALG         STANDARD    [  0]    ***   
       ANH_DERIVAT          IANDER         SECOND      [  1]    ***   
       ANH_MODE             ANHMOD         VIBRATION   [  0]    ***   
       ANH_STEPSIZ          ICUBST             50000          x 10-6  
       ANH_SYMMETR          IANHSM         ABELIAN     [  0]    ***   
       AO_LADDERS           IAOLAD         SINGLEPASS  [  1]    ***   
       AV_SCF               IAVSCF         OFF         [  0]    ***   
       BASIS                IBASIS         AUG-PCVQZ   [ 52]    ***   
       BOTHVECTORS          BOTHVC         OFF         [  0]    ***   
       BOX_POTENT           IPIAB          OFF         [  0]    ***   
       BREIT                IBREIT         OFF         [  0]    ***   
       BRUCK_CONV           IBRTOL          10D-  4             ***   
       BRUECKNER            IBRKNR         OFF         [  0]    ***   
       BUFFERSIZE           IBUFFS              4096            ***   
       CACHE_RECS           ICHREC             10               ***   
       CALCLEVEL            ICLLVL         CCSD        [ 10]    ***   
       CCORBOPT             ICCORB         OFF         [  0]  x 0.01  
       CC_CONV              ICCCNV          10D- 14             ***   
       CC_EXPORDER          ICCEOR              5               ***   
       CC_EXTRAPOL          ICCEXT         DIIS        [  1]    ***   
       CC_GUESS             ICCGES         MP2         [  0]    ***   
       CC_MAXCYC            ICCCYC            100              cycles 
       CC_PROGRAM           ICCPRO         VCC         [  0]    ***   
       CHARGE               ICHRGE              0               ***   
       CHOLESKY             ICHOLE         OFF         [  0]    ***   
       CIS_CONV             ICISTL              5               ***   
       COMM_SIZE            IPSIZE            ***               ***   
       CONSTANT             ICONST         OLD         [  1]    ***   
       CONTINUUM            ICONTU         NONE        [  0]    ***   
       CONTRACTION          ICNTYP         GENERAL     [  1]    ***   
       COORDINATES          ICOORD         INTERNAL    [  0]    ***   
       CPHF_CONVER          ICPHFT          10D- 16             ***   
       CPHF_MAXCYC          ICPHFC             64              cycles 
       CUBIC                ICUBIC         OFF         [  0]    ***   
       CURVILINEAR          ICURVY         ON          [  1]    ***   
       DBOC                 IDBOC          ON          [  1]    ***   
       DCT                  IDCT           OFF         [  0]    ***   
       DERIV_LEV            IDRLVL         SECOND      [  2]    ***   
       DEVMEM_SIZE          IDVMEM          50000000           MByte  
       DIAG_MRCC            IEOMST          10D-  0             ***   
       DIFF_TYPE            IDIFTY         RELAXED     [  0]    ***   
       DIRECT               IDIRCT         OFF         [  0]    ***   
       DROPMO               IDRPMO      NONE         
       ECP                  IECP           OFF         [  0]    ***   
       EIGENVECTOR          IVEC                1               ***   
       EL_ANHARM            IELANH         OFF         [  0]    ***   
       EOMFOLLOW            IEOMSR         ENERGY      [  0]    ***   
       EOMIP                IEOMIP         OFF         [  0]    ***   
       EOMLEVEL             HBARFM         SAME        [  0]    ***   
       EOM_MRCC             IMRCCE         NEW         [  1]    ***   
       EOM_NONIT            EOMNON         OFF         [  0]    ***   
       EOM_NSING            IEOMSI          10D-  0             ***   
       EOM_NSTATES          IMRCCD         DAVIDSON    [  0]    ***   
       EOM_NTRIP            IEOMTR          10D-  0             ***   
       EOM_ORDER            IEXORD         ENERGY      [  0]    ***   
       EOM_PROPSTA          IEOMST              0               ***   
       ESTATE_CONV          IEXTOL          10D-  5             ***   
       ESTATE_DIAG          IEXDIG         ITERATIVE   [  0]    ***   
       ESTATE_LOCK          IESLOC         ON          [  1]    ***   
       ESTATE_MAXC          IEXMXC             40               ***   
       ESTATE_PROP          IEXPRP         OFF         [  0]    ***   
       EVAL_HESS            IRECAL              0            # of cyc.
       EXCITATION           IEXCIT              0               ***   
       EXCITE               IEXCIT         NONE        [  0]    ***   
       EXTERN_POT           IEXPOT         OFF         [  0]    ***   
       FCGRADNEW            IFCGNW         OFF         [  0]    ***   
       FC_FIELD             IFINFC              0             x 10-6  
       FD_CALTYPE           IFDCAL         GRADONLY    [  0]    ***   
       FD_PROJECT           IFDPRJ         OFF         [  1]    ***   
       FD_STEPSIZE          IDISFD              0            10-4 bohr
       FD_USEGROUP          IFDGRP         FULL        [  0]    ***   
       FILE_RECSIZ          IFLREC              4096           words  
       FINITE_PERT          IFIPER              0             x 10-6  
       FIXGEOM              IFIXGM         OFF         [  0]    ***   
       FOCK                 IFOCK          AO          [  1]    ***   
       FREQ_ALGORI          IVIALG         STANDARD    [  0]    ***   
       FROZEN_CORE          IFROCO         OFF         [  0]    ***   
       GAMMA_ABCD           IGABCD         STORE       [  0]    ***   
       GAMMA_ABCI           IGABCI         STORE       [  0]    ***   
       GENBAS_1             IGNBS1              0               ***   
       GENBAS_2             IGNBS2              0               ***   
       GENBAS_3             IGNBS3              0               ***   
       GENBAS_4             IGNBS4              0               ***   
       GEO_CONV             ICONTL              5              H/bohr 
       GEO_MAXCYC           IOPTCY             50               ***   
       GEO_MAXSTEP          IMXSTP            300            millibohr
       GEO_METHOD           INR            SINGLE_POINT[  5]    ***   
       GIAO                 IGIAO          OFF         [  1]    ***   
       GIMIC                IGIMIC         OFF         [  0]    ***   
       GRID                 IGRID          OFF         [  0]    ***   
       GRID_ALGO            IGALGO         SERIAL      [  0]    ***   
       GUESS                IGUESS         MOREAD      [  0]    ***   
       HBAR                 IHBAR          OFF         [  0]    ***   
       HESS_TYPE            IHESTP         SCF         [  0]    ***   
       HF2_FILE             IHF2Fl         USE         [  1]    ***   
       HFSTABILITY          ISTABL         OFF         [  0]    ***   
       INCORE               INCORE         OFF         [  0]    ***   
       INPUT_MRCC           IMRCC          ON          [  1]    ***   
       INTEGRALS            INTTYP         VMOL        [  1]    ***   
       JODA_PRINT           IJPRNT              0               ***   
       KEYWORD_OUT          IDMPKW         NO          [  0]    ***   
       LINDEP_TOL           ILINDP              8               ***   
       LINEQ_CONV           IZTACN          10D-  7           cycles  
       LINEQ_EXPOR          ILMAXD              5               ***   
       LINEQ_MAXCY          ILMAXC            100               ***   
       LINEQ_TYPE           ILTYPE         DIIS        [  1]    ***   
       LOCK_ORBOCC          ILOCOC         OFF         [  0]    ***   
       MEMORY_SIZE          IMEMSZ         500000000           words  
       MEM_UNIT             IMEMU          INTEGERWORDS[  0]    ***   
       MRCC                 IMRCCC         OFF         [  0]    ***   
       MULTIPLICTY          IMULTP              1               ***   
       NACOUPLING           IVCOUP         OFF         [  0]    ***   
       NEGEVAL              IDIE           ABORT       [  0]    ***   
       NEWNORM              INEWNO         OFF         [  0]    ***   
       NON-HF               INONHF         OFF         [  0]    ***   
       NTOP_TAMP            ITOPT2             15               ***   
       NUC_MODEL            INUCMO         POINT       [  0]    ***   
       OCCUPATION           IOCCU   ESTIMATED BY SCF 
       OPEN-SHELL           IOPEN          SPIN-ORBITAL[  0]    ***   
       OPTVIB               IOPTVB         OFF         [  0]    ***   
       ORBITALS             IORBTP         STANDARD    [  0]    ***   
       PARALLEL             IPARAL         ON          [  1]    ***   
       PARA_INT             IPINTS         ON          [  1]    ***   
       PARA_PRINT           IPPRIN              0               ***   
       PERT_ORB             IPTORB         STANDARD    [  0]    ***   
       POINTS               IGRDFD              0               ***   
       PRINT                IPRNT               0               ***   
       PROPS                IPROPS         OFF         [  0]    ***   
       PROP_INTEGR          IINTYP         INTERNAL    [  0]    ***   
       PSI                  IPSI           OFF         [  0]    ***   
       QC_ALG               IQCALG         FLM         [  0]    ***   
       QC_LINALG            IQCLIN         TRIDIAG     [  2]    ***   
       QC_MAXCYC            IQCMAX          10D-100           cycles  
       QC_MAXSCFCY          IQCMSC          10D- 15           cycles  
       QC_RTRUST            IQCRTR          10D-  0           x 10-3  
       QC_SKIPSCF           IQCSKI         OFF         [  0]    ***   
       QC_START             IQCSTA          10D-  1             ***   
       QRHFGUESS            IQGUES         OFF         [  0]    ***   
       QUARTIC              IQUART         OFF         [  0]    ***   
       RAMAN_INT            IRAMIN         OFF         [  0]    ***   
       RAMAN_ORB            IRAMRE         UNRELAXED   [  0]    ***   
       RDO                  IRDOFM         ON          [  1]    ***   
       REDUCE_REPR          REDREP         Ir          [  0]    ***   
       REFERENCE            IREFNC         RHF         [  0]    ***   
       RELATIVIST           IRELAT         OFF         [  0]    ***   
       RELAX_DENS           IRDENS         ON          [  1]    ***   
       RESET_FLAGS          IRESET         OFF         [  0]    ***   
       RESTART_CC           ICCRES         OFF         [  0]    ***   
       ROT_EVEC             ROTVEC              0               ***   
       SAVE_INTS            ISVINT         OFF         [  0]    ***   
       SCALE_ON             ISTCRT              0               ***   
       SCF_CONV             ISCFCV          10D- 10             ***   
       SCF_DAMPING          IDAMP               0             x 10-3  
       SCF_EXPORDE          IRPPOR              6               ***   
       SCF_EXPSTAR          IRPPLS              8               ***   
       SCF_EXTRAPO          IRPP           ON          [  1]    ***   
       SCF_MAXCYC           ISCFCY            150              cycles 
       SCF_NOSTOP           ISCFST         OFF         [  0]    ***   
       SCF_PRINT            ISCFPR              0               ***   
       SCF_PROG             ISCFPR         SCF         [  0]    ***   
       SD_FIELD             IFINSD              0             x 10-6  
       SOPERT               IPERSO         OFF         [  0]    ***   
       SPHERICAL            IDFGHI         ON          [  1]    ***   
       SPINORBIT            ISOCAL         OFF         [  0]    ***   
       SPINROTATIO          ISRCON         OFF         [  0]    ***   
       SPIN_FLIP            ISPFLP         OFF         [  0]    ***   
       SPIN_ORBIT           ISPORB         OFF         [  0]    ***   
       SPIN_SCAL            ISCSMP         OFF         [  0]    ***   
       STEEPSCALE           ISTPSC              1000          x 10-3  
       SUBGROUP             ISUBGP         DEFAULT     [  0]    ***   
       SUBGRPAXIS           ISBXYZ         X           [  0]    ***   
       SYMMETRY             ISYM           ON          [  0]    ***   
       SYM_CHECK            ISYMCK         OVERRIDE    [  1]    ***   
       T3_EXTRAPOL          IT3EXT         OFF         [  0]    ***   
       T4_EXTRAPOL          IT4EXP         OFF         [  0]    ***   
       TAMP_SUM             IEVERY              5               ***   
       TESTSUITE            ITESTS         OFF         [  0]    ***   
       THERMOCH             ITHERM         OFF         [  0]    ***   
       TOL_CHOLESK          ITOLCH          10D-  4             ***   
       TRANGRAD             IRESRM         OFF         [  0]    ***   
       TRANS_INV            ITRAIN         IGNORE      [  1]    ***   
       TREAT_PERT           ITREAT         SIMULTANEOUS[  0]    ***   
       TRIP_ALGORI          ITRALG         NORMAL      [  0]    ***   
       UIJ_THRESHO          IUIJTH              1               ***   
       UNITS                IUNITS         ANGSTROM    [  0]    ***   
       UNOS                 IUNOS          OFF         [  0]    ***   
       UPDATE_HESS          IHUPDT         ON          [  1]    ***   
       VIBPHASE             ISETPH         STANDARD    [  0]    ***   
       VIBRATION            IVIB           ANALYTIC    [  1]    ***   
       VIB_ALGORIT          IGEALG         STANDARD    [  0]    ***   
       VNATORB              IVNORB         OFF         [  0]    ***   
       VTRAN                IVTRAN         FULL/PARTIAL[  0]    ***   
       XFIELD               IXEFLD              0             x 10-6  
       XFORM_TOL            IXFTOL          10D- 11             ***   
       YFIELD               IYEFLD              0             x 10-6  
       ZFIELD               IZEFLD            200             x 10-6  
       ZSCALE_EXP           IZEXPS         OFF         [  0]    ***   
    -------------------------------------------------------------------
   2 entries found in Z-matrix 
   Job Title : Carbon Monoxide DBOC calculation                                                
   There are  1 unique internal coordinates.
   Of these,  0 will be optimized.
   User supplied Z-matrix: 
--------------------------------------------------------------------------------
       SYMBOL    BOND      LENGTH    ANGLE     ANGLE     DIHED     ANGLE
                  TO      (ANGST)    WRT      (DEG)      WRT      (DEG)
--------------------------------------------------------------------------------
        C    
        O          1         r    
                  *Initial values for internal coordinates* 
                      Name             Value
                        r               1.1482758621
--------------------------------------------------------------------------------
  read isotopes from ZMAT file 
   Rotational constants (in cm-1): 
          1.7825381160             1.7825381160
   Rotational constants (in MHz): 
      53439.1558141979         53439.1558141979
********************************************************************************
   The full molecular point group is CXv .
   The largest Abelian subgroup of the full molecular point group is C2v .
   The computational point group is C2v .
********************************************************************************
--------------------------------------------------------------------------------
   Analysis of internal coordinates specified by Z-matrix 
--------------------------------------------------------------------------------
   *The nuclear repulsion energy is   22.120556252252253 a.u.
   *There is   1 degree of freedom within the tot. symm. molecular subspace.
   *Z-matrix requests optimization of   0 coordinates.
   *The optimization is constrained.
   *The following   1 parameters can have non-zero 
    derivatives within the totally symmetric subspace:
             r    [ 1]
   *The following   0 parameters are to be optimized:

   *The following coordinates must be varied in an  unconstrained optimization.
             r    [ 1]
--------------------------------------------------------------------------------


 ----------------------------------------------------------------
         Coordinates used in calculation (QCOMP) 
 ----------------------------------------------------------------
 Z-matrix   Atomic            Coordinates (in bohr)
  Symbol    Number           X              Y              Z
 ----------------------------------------------------------------
     C         6        -0.00000000     0.00000000     1.19689221
     O         8         0.00000000     0.00000000    -0.97303514
 ----------------------------------------------------------------
 
   Interatomic distance matrix (Angstroms) 
 
                 C             O    
                [ 1]        [ 2]
  C    [ 1]     0.00000
  O    [ 2]     1.14828     0.00000
 rotcon2
   Rotational constants (in cm-1): 
          1.7825381160             0.0000000000
   Rotational constants (in MHz): 
      53439.1558141979             0.0000000000
  ECPDATA file not present.   Using default ECPDATA. 
  @GTFLGS-I, Hessian will be transformed to curvilinear coordinates.
  There are  218 basis functions.
 @CHECKOUT-I, Total execution time (CPU/WALL):        0.10/       0.15 seconds.
--executable xjoda finished with status     0 in        0.16 seconds (walltime).
 --invoking executable--
/nfs/workspaces/public/cfour_mpi/bin/xvmol
 SERIAL VERSION OF MOLECULE STARTED
********************************************************************************
                    INPUT FROM MOL FILE
********************************************************************************
INTGRL        1    0    1    0    0    0    0    0    0                         
         *** CFOUR Program System (Release V0.1) ***                            
Carbon Monoxide DBOC calculation                                                
    2    2 X  Y       0.10E-08              0    0                              
   9999.00      3.00                                                            
          6.00000000    1    5    1    1    1    1    1                         
C #1  -0.000000000000000   0.000000000000000   1.196892206368565                
   16    9                                                                      
   33980.0000000000       9.100000000000000E-005 -1.900000000000000E-005        
  0.000000000000000E+000  0.000000000000000E+000  0.000000000000000E+000        
  0.000000000000000E+000  0.000000000000000E+000  0.000000000000000E+000        
  0.000000000000000E+000                                                        
   5089.00000000000       7.040000000000000E-004 -1.510000000000000E-004        
  0.000000000000000E+000  0.000000000000000E+000  0.000000000000000E+000        
  0.000000000000000E+000  0.000000000000000E+000  0.000000000000000E+000        
  0.000000000000000E+000                                                        
   1157.00000000000       3.693000000000000E-003 -7.850000000000000E-004        
  0.000000000000000E+000  0.000000000000000E+000  0.000000000000000E+000        
  0.000000000000000E+000  0.000000000000000E+000  0.000000000000000E+000        
  0.000000000000000E+000                                                        
   326.600000000000       1.536000000000000E-002 -3.324000000000000E-003        
  0.000000000000000E+000  0.000000000000000E+000  0.000000000000000E+000        
  0.000000000000000E+000  0.000000000000000E+000  0.000000000000000E+000        
  0.000000000000000E+000                                                        
   106.100000000000       5.292900000000000E-002 -1.151200000000000E-002        
  0.000000000000000E+000  0.000000000000000E+000  0.000000000000000E+000        
  0.000000000000000E+000  0.000000000000000E+000  0.000000000000000E+000        
  0.000000000000000E+000                                                        
   38.1100000000000       0.147043000000000      -3.416000000000000E-002        
  0.000000000000000E+000  0.000000000000000E+000  0.000000000000000E+000        
  0.000000000000000E+000  0.000000000000000E+000  0.000000000000000E+000        
  0.000000000000000E+000                                                        
   14.7500000000000       0.305631000000000      -7.717300000000001E-002        
  0.000000000000000E+000  0.000000000000000E+000  0.000000000000000E+000        
  0.000000000000000E+000  0.000000000000000E+000  0.000000000000000E+000        
  0.000000000000000E+000                                                        
   6.03500000000000       0.399345000000000      -0.141493000000000             
  0.000000000000000E+000  0.000000000000000E+000  0.000000000000000E+000        
  0.000000000000000E+000  0.000000000000000E+000  0.000000000000000E+000        
  0.000000000000000E+000                                                        
   2.53000000000000       0.217051000000000      -0.118019000000000             
  0.000000000000000E+000  0.000000000000000E+000  0.000000000000000E+000        
  0.000000000000000E+000  0.000000000000000E+000  0.000000000000000E+000        
  0.000000000000000E+000                                                        
  0.735500000000000       1.589400000000000E-002  0.273806000000000             
   1.00000000000000       0.000000000000000E+000  0.000000000000000E+000        
  0.000000000000000E+000  0.000000000000000E+000  0.000000000000000E+000        
  0.000000000000000E+000                                                        
  0.290500000000000      -3.084000000000000E-003  0.586510000000000             
  0.000000000000000E+000   1.00000000000000       0.000000000000000E+000        
  0.000000000000000E+000  0.000000000000000E+000  0.000000000000000E+000        
  0.000000000000000E+000                                                        
  0.111100000000000       9.779999999999999E-004  0.285430000000000             
  0.000000000000000E+000  0.000000000000000E+000   1.00000000000000             
  0.000000000000000E+000  0.000000000000000E+000  0.000000000000000E+000        
  0.000000000000000E+000                                                        
   7.21600000000000       0.000000000000000E+000  0.000000000000000E+000        
  0.000000000000000E+000  0.000000000000000E+000  0.000000000000000E+000        
   1.00000000000000       0.000000000000000E+000  0.000000000000000E+000        
  0.000000000000000E+000                                                        
   19.5700000000000       0.000000000000000E+000  0.000000000000000E+000        
  0.000000000000000E+000  0.000000000000000E+000  0.000000000000000E+000        
  0.000000000000000E+000   1.00000000000000       0.000000000000000E+000        
  0.000000000000000E+000                                                        
   53.0730000000000       0.000000000000000E+000  0.000000000000000E+000        
  0.000000000000000E+000  0.000000000000000E+000  0.000000000000000E+000        
  0.000000000000000E+000  0.000000000000000E+000   1.00000000000000             
  0.000000000000000E+000                                                        
  4.145000000000000E-002  0.000000000000000E+000  0.000000000000000E+000        
  0.000000000000000E+000  0.000000000000000E+000  0.000000000000000E+000        
  0.000000000000000E+000  0.000000000000000E+000  0.000000000000000E+000        
   1.00000000000000                                                             
   10    8                                                                      
   34.5100000000000       5.378000000000000E-003  0.000000000000000E+000        
  0.000000000000000E+000  0.000000000000000E+000  0.000000000000000E+000        
  0.000000000000000E+000  0.000000000000000E+000  0.000000000000000E+000        
   7.91500000000000       3.613200000000000E-002  0.000000000000000E+000        
  0.000000000000000E+000  0.000000000000000E+000  0.000000000000000E+000        
  0.000000000000000E+000  0.000000000000000E+000  0.000000000000000E+000        
   2.36800000000000       0.142493000000000       0.000000000000000E+000        
  0.000000000000000E+000  0.000000000000000E+000  0.000000000000000E+000        
  0.000000000000000E+000  0.000000000000000E+000  0.000000000000000E+000        
  0.813200000000000       0.342150000000000        1.00000000000000             
  0.000000000000000E+000  0.000000000000000E+000  0.000000000000000E+000        
  0.000000000000000E+000  0.000000000000000E+000  0.000000000000000E+000        
  0.289000000000000       0.463864000000000       0.000000000000000E+000        
   1.00000000000000       0.000000000000000E+000  0.000000000000000E+000        
  0.000000000000000E+000  0.000000000000000E+000  0.000000000000000E+000        
  0.100700000000000       0.250028000000000       0.000000000000000E+000        
  0.000000000000000E+000   1.00000000000000       0.000000000000000E+000        
  0.000000000000000E+000  0.000000000000000E+000  0.000000000000000E+000        
   8.18200000000000       0.000000000000000E+000  0.000000000000000E+000        
  0.000000000000000E+000  0.000000000000000E+000   1.00000000000000             
  0.000000000000000E+000  0.000000000000000E+000  0.000000000000000E+000        
   24.1860000000000       0.000000000000000E+000  0.000000000000000E+000        
  0.000000000000000E+000  0.000000000000000E+000  0.000000000000000E+000        
   1.00000000000000       0.000000000000000E+000  0.000000000000000E+000        
   71.4940000000000       0.000000000000000E+000  0.000000000000000E+000        
  0.000000000000000E+000  0.000000000000000E+000  0.000000000000000E+000        
  0.000000000000000E+000   1.00000000000000       0.000000000000000E+000        
  3.218000000000000E-002  0.000000000000000E+000  0.000000000000000E+000        
  0.000000000000000E+000  0.000000000000000E+000  0.000000000000000E+000        
  0.000000000000000E+000  0.000000000000000E+000   1.00000000000000             
    6    6                                                                      
   1.84800000000000        1.00000000000000       0.000000000000000E+000        
  0.000000000000000E+000  0.000000000000000E+000  0.000000000000000E+000        
  0.000000000000000E+000                                                        
  0.649000000000000       0.000000000000000E+000   1.00000000000000             
  0.000000000000000E+000  0.000000000000000E+000  0.000000000000000E+000        
  0.000000000000000E+000                                                        
  0.228000000000000       0.000000000000000E+000  0.000000000000000E+000        
   1.00000000000000       0.000000000000000E+000  0.000000000000000E+000        
  0.000000000000000E+000                                                        
   8.65600000000000       0.000000000000000E+000  0.000000000000000E+000        
  0.000000000000000E+000   1.00000000000000       0.000000000000000E+000        
  0.000000000000000E+000                                                        
   33.2130000000000       0.000000000000000E+000  0.000000000000000E+000        
  0.000000000000000E+000  0.000000000000000E+000   1.00000000000000             
  0.000000000000000E+000                                                        
  7.660000000000000E-002  0.000000000000000E+000  0.000000000000000E+000        
  0.000000000000000E+000  0.000000000000000E+000  0.000000000000000E+000        
   1.00000000000000                                                             
    4    4                                                                      
   1.41900000000000        1.00000000000000       0.000000000000000E+000        
  0.000000000000000E+000  0.000000000000000E+000                                
  0.485000000000000       0.000000000000000E+000   1.00000000000000             
  0.000000000000000E+000  0.000000000000000E+000                                
   24.6940000000000       0.000000000000000E+000  0.000000000000000E+000        
   1.00000000000000       0.000000000000000E+000                                
  0.187000000000000       0.000000000000000E+000  0.000000000000000E+000        
  0.000000000000000E+000   1.00000000000000                                     
    2    2                                                                      
   1.01100000000000        1.00000000000000       0.000000000000000E+000        
  0.424000000000000       0.000000000000000E+000   1.00000000000000             
          8.00000000    1    5    1    1    1    1    1                         
O #2   0.000000000000000   0.000000000000000  -0.973035143225674                
   16    9                                                                      
   61420.0000000000       9.000000000000001E-005 -2.000000000000000E-005        
  0.000000000000000E+000  0.000000000000000E+000  0.000000000000000E+000        
  0.000000000000000E+000  0.000000000000000E+000  0.000000000000000E+000        
  0.000000000000000E+000                                                        
   9199.00000000000       6.980000000000001E-004 -1.590000000000000E-004        
  0.000000000000000E+000  0.000000000000000E+000  0.000000000000000E+000        
  0.000000000000000E+000  0.000000000000000E+000  0.000000000000000E+000        
  0.000000000000000E+000                                                        
   2091.00000000000       3.664000000000000E-003 -8.290000000000000E-004        
  0.000000000000000E+000  0.000000000000000E+000  0.000000000000000E+000        
  0.000000000000000E+000  0.000000000000000E+000  0.000000000000000E+000        
  0.000000000000000E+000                                                        
   590.900000000000       1.521800000000000E-002 -3.508000000000000E-003        
  0.000000000000000E+000  0.000000000000000E+000  0.000000000000000E+000        
  0.000000000000000E+000  0.000000000000000E+000  0.000000000000000E+000        
  0.000000000000000E+000                                                        
   192.300000000000       5.242300000000000E-002 -1.215600000000000E-002        
  0.000000000000000E+000  0.000000000000000E+000  0.000000000000000E+000        
  0.000000000000000E+000  0.000000000000000E+000  0.000000000000000E+000        
  0.000000000000000E+000                                                        
   69.3200000000000       0.145921000000000      -3.626100000000000E-002        
  0.000000000000000E+000  0.000000000000000E+000  0.000000000000000E+000        
  0.000000000000000E+000  0.000000000000000E+000  0.000000000000000E+000        
  0.000000000000000E+000                                                        
   26.9700000000000       0.305258000000000      -8.299200000000000E-002        
  0.000000000000000E+000  0.000000000000000E+000  0.000000000000000E+000        
  0.000000000000000E+000  0.000000000000000E+000  0.000000000000000E+000        
  0.000000000000000E+000                                                        
   11.1000000000000       0.398508000000000      -0.152090000000000             
  0.000000000000000E+000  0.000000000000000E+000  0.000000000000000E+000        
  0.000000000000000E+000  0.000000000000000E+000  0.000000000000000E+000        
  0.000000000000000E+000                                                        
   4.68200000000000       0.216980000000000      -0.115331000000000             
  0.000000000000000E+000  0.000000000000000E+000  0.000000000000000E+000        
  0.000000000000000E+000  0.000000000000000E+000  0.000000000000000E+000        
  0.000000000000000E+000                                                        
   1.42800000000000       1.759400000000000E-002  0.288979000000000             
   1.00000000000000       0.000000000000000E+000  0.000000000000000E+000        
  0.000000000000000E+000  0.000000000000000E+000  0.000000000000000E+000        
  0.000000000000000E+000                                                        
  0.554700000000000      -2.502000000000000E-003  0.586128000000000             
  0.000000000000000E+000   1.00000000000000       0.000000000000000E+000        
  0.000000000000000E+000  0.000000000000000E+000  0.000000000000000E+000        
  0.000000000000000E+000                                                        
  0.206700000000000       9.540000000000000E-004  0.277624000000000             
  0.000000000000000E+000  0.000000000000000E+000   1.00000000000000             
  0.000000000000000E+000  0.000000000000000E+000  0.000000000000000E+000        
  0.000000000000000E+000                                                        
   12.9740000000000       0.000000000000000E+000  0.000000000000000E+000        
  0.000000000000000E+000  0.000000000000000E+000  0.000000000000000E+000        
   1.00000000000000       0.000000000000000E+000  0.000000000000000E+000        
  0.000000000000000E+000                                                        
   34.9000000000000       0.000000000000000E+000  0.000000000000000E+000        
  0.000000000000000E+000  0.000000000000000E+000  0.000000000000000E+000        
  0.000000000000000E+000   1.00000000000000       0.000000000000000E+000        
  0.000000000000000E+000                                                        
   93.8810000000000       0.000000000000000E+000  0.000000000000000E+000        
  0.000000000000000E+000  0.000000000000000E+000  0.000000000000000E+000        
  0.000000000000000E+000  0.000000000000000E+000   1.00000000000000             
  0.000000000000000E+000                                                        
  6.959000000000000E-002  0.000000000000000E+000  0.000000000000000E+000        
  0.000000000000000E+000  0.000000000000000E+000  0.000000000000000E+000        
  0.000000000000000E+000  0.000000000000000E+000  0.000000000000000E+000        
   1.00000000000000                                                             
   10    8                                                                      
   63.4200000000000       6.044000000000000E-003  0.000000000000000E+000        
  0.000000000000000E+000  0.000000000000000E+000  0.000000000000000E+000        
  0.000000000000000E+000  0.000000000000000E+000  0.000000000000000E+000        
   14.6600000000000       4.179900000000000E-002  0.000000000000000E+000        
  0.000000000000000E+000  0.000000000000000E+000  0.000000000000000E+000        
  0.000000000000000E+000  0.000000000000000E+000  0.000000000000000E+000        
   4.45900000000000       0.161143000000000       0.000000000000000E+000        
  0.000000000000000E+000  0.000000000000000E+000  0.000000000000000E+000        
  0.000000000000000E+000  0.000000000000000E+000  0.000000000000000E+000        
   1.53100000000000       0.356731000000000        1.00000000000000             
  0.000000000000000E+000  0.000000000000000E+000  0.000000000000000E+000        
  0.000000000000000E+000  0.000000000000000E+000  0.000000000000000E+000        
  0.530200000000000       0.448309000000000       0.000000000000000E+000        
   1.00000000000000       0.000000000000000E+000  0.000000000000000E+000        
  0.000000000000000E+000  0.000000000000000E+000  0.000000000000000E+000        
  0.175000000000000       0.244940000000000       0.000000000000000E+000        
  0.000000000000000E+000   1.00000000000000       0.000000000000000E+000        
  0.000000000000000E+000  0.000000000000000E+000  0.000000000000000E+000        
   14.4750000000000       0.000000000000000E+000  0.000000000000000E+000        
  0.000000000000000E+000  0.000000000000000E+000   1.00000000000000             
  0.000000000000000E+000  0.000000000000000E+000  0.000000000000000E+000        
   42.7300000000000       0.000000000000000E+000  0.000000000000000E+000        
  0.000000000000000E+000  0.000000000000000E+000  0.000000000000000E+000        
   1.00000000000000       0.000000000000000E+000  0.000000000000000E+000        
   126.140000000000       0.000000000000000E+000  0.000000000000000E+000        
  0.000000000000000E+000  0.000000000000000E+000  0.000000000000000E+000        
  0.000000000000000E+000   1.00000000000000       0.000000000000000E+000        
  5.348000000000000E-002  0.000000000000000E+000  0.000000000000000E+000        
  0.000000000000000E+000  0.000000000000000E+000  0.000000000000000E+000        
  0.000000000000000E+000  0.000000000000000E+000   1.00000000000000             
    6    6                                                                      
   3.77500000000000        1.00000000000000       0.000000000000000E+000        
  0.000000000000000E+000  0.000000000000000E+000  0.000000000000000E+000        
  0.000000000000000E+000                                                        
   1.30000000000000       0.000000000000000E+000   1.00000000000000             
  0.000000000000000E+000  0.000000000000000E+000  0.000000000000000E+000        
  0.000000000000000E+000                                                        
  0.444000000000000       0.000000000000000E+000  0.000000000000000E+000        
   1.00000000000000       0.000000000000000E+000  0.000000000000000E+000        
  0.000000000000000E+000                                                        
   14.9270000000000       0.000000000000000E+000  0.000000000000000E+000        
  0.000000000000000E+000   1.00000000000000       0.000000000000000E+000        
  0.000000000000000E+000                                                        
   57.5440000000000       0.000000000000000E+000  0.000000000000000E+000        
  0.000000000000000E+000  0.000000000000000E+000   1.00000000000000             
  0.000000000000000E+000                                                        
  0.154000000000000       0.000000000000000E+000  0.000000000000000E+000        
  0.000000000000000E+000  0.000000000000000E+000  0.000000000000000E+000        
   1.00000000000000                                                             
    4    4                                                                      
   2.66600000000000        1.00000000000000       0.000000000000000E+000        
  0.000000000000000E+000  0.000000000000000E+000                                
  0.859000000000000       0.000000000000000E+000   1.00000000000000             
  0.000000000000000E+000  0.000000000000000E+000                                
   26.4830000000000       0.000000000000000E+000  0.000000000000000E+000        
   1.00000000000000       0.000000000000000E+000                                
  0.324000000000000       0.000000000000000E+000  0.000000000000000E+000        
  0.000000000000000E+000   1.00000000000000                                     
    2    2                                                                      
   1.84600000000000        1.00000000000000       0.000000000000000E+000        
  0.714000000000000       0.000000000000000E+000   1.00000000000000             
FINISH                                                                          
 
********************************************************************************
 ONE- AND TWO-ELECTRON INTEGRALS OVER SYMMETRY-ADAPTED AOS ARE CALCULATED.

  SPHERICAL HARMONICS ARE USED.
  
  INTEGRALS LESS THAN  0.10E-13 ARE NEGLECTED.

  NUCLEAR REPULSION ENERGY :   22.1205562523 A.U.
  @MOLECU-I, ONE ELECTRON INTEGRALS (CPU/WALL):        0.06/       0.08 SECONDS.
  @TWOEL-I,    4587238 INTEGRALS OF SYMMETRY TYPE  I I I I
  @TWOEL-I,   19695665 INTEGRALS OF SYMMETRY TYPE  I J I J
  @TWOEL-I,   10378869 INTEGRALS OF SYMMETRY TYPE  I I J J
  @TWOEL-I,   14572553 INTEGRALS OF SYMMETRY TYPE  I J K L
  @TWOEL-I, TOTAL NUMBER OF 2-E INTEGRALS   49234325.
  @MOLECU-I, TWO ELECTRON INTEGRALS (CPU/WALL):      196.09/      26.93 SECONDS.
 @CHECKOUT-I, Total execution time (CPU/WALL):      196.16/      27.03 seconds.

Running with 14 threads/proc

--executable xvmol finished with status     0 in       27.05 seconds (walltime).
 --invoking executable--
/nfs/workspaces/public/cfour_mpi/bin/xvmol2ja
 @GETMEM-I,  Allocated    3814 MB of main memory.
 @CHECKOUT-I, Total execution time (CPU/WALL):        0.30/       0.09 seconds.
--executable xvmol2ja finished with status     0 in        0.11 seconds (walltime).
 --invoking executable--
/nfs/workspaces/public/cfour_mpi/bin/xvprop
 @GETMEM-I,  Allocated    3814 MB of main memory.
   Property integrals will be calculated.
    --------------------------------------------------------------
                                   Property evaluated at 
    Property type                X             Y             Z
    --------------------------------------------------------------
    Dipole moment               ----          ----          ----  
    Quadrupole moment           ----          ----          ----  
    Octopole moment             ----          ----          ----  
    Relativisitic corr.         ----          ----          ----  
    Second moment            0.0000000     0.0000000     0.0000000
    Electron density         0.0000000     0.0000000     1.1968922
    Electron density         0.0000000     0.0000000    -0.9730351
    Field gradient           0.0000000     0.0000000     1.1968922
    Field gradient           0.0000000     0.0000000    -0.9730351
    Potential                0.0000000     0.0000000     1.1968922
    Potential                0.0000000     0.0000000    -0.9730351
    --------------------------------------------------------------
 @CHECKOUT-I, Total execution time (CPU/WALL):        1.45/       1.49 seconds.
--executable xvprop finished with status     0 in        1.51 seconds (walltime).
 --invoking executable--
/nfs/workspaces/public/cfour_mpi/bin/xvscf
  There are  218 functions in the AO basis.

  There are 4 irreducible representations.

       Irrep        # of functions
         1                 86
         2                 52
         3                 52
         4                 28


  Parameters for SCF calculation: 
        SCF reference function:  RHF  
  Maximum number of iterations:  150
     Full symmetry point group: CXv 
     Computational point group: C2v 
        Initial density matrix: MOREAD                 
     SCF convergence tolerance: 10**(-10)
  DIIS convergence acceleration:  ON
          Latest start for DIIS:   8
                     DIIS order:   6

  Memory information:    2523578 words required.
  Fock matrices are constructed from AO integral file.
 @GETMEM-I,  Allocated      19 MB of main memory.
  Initialization and symmetry analysis required      0.001 seconds.

  Adding electric field perturbation to one-electron Hamiltonian.
  Field direction     : Z
  Field strength      :  0.0002000 a.u.

  @INITGES-I, Occupancies from core Hamiltonian:

          Alpha population by irrep:   5    1    1    0
           Beta population by irrep:   5    1    1    0


 total no. of electrons in initial guess :  0.000000000000000E+000
  --------------------------------------------------------------------
  Iteration         Total Energy            Largest Density Difference
  --------------------------------------------------------------------
       0            22.120676837833468              0.0000000000D+00
   current occupation vector 
     5  1  1  0
     5  1  1  0
       1           -91.942570069771477              0.1859407489D+02
   current occupation vector 
     5  1  1  0
     5  1  1  0
       2           -96.887087538432937              0.1858969130D+02
   current occupation vector 
     5  1  1  0
     5  1  1  0
       3          -103.410608439646353              0.1733878127D+02
   current occupation vector 
     5  1  1  0
     5  1  1  0
       4          -100.320372706652918              0.7515822841D+01
   current occupation vector 
     5  1  1  0
     5  1  1  0
       5          -103.224324598757420              0.7028066039D+01
   current occupation vector 
     5  1  1  0
     5  1  1  0
       6          -100.207195984809474              0.5827587025D+01
   current occupation vector 
     5  1  1  0
     5  1  1  0
       7          -103.099746702244346              0.5667212136D+01
   current occupation vector 
     5  1  1  0
     5  1  1  0
       8          -100.014508040460669              0.5655583746D+01
   current occupation vector 
     5  1  1  0
     5  1  1  0
       9          -110.680627772582326              0.4262545715D+01
   current occupation vector 
     5  1  1  0
     5  1  1  0
      10          -112.232077653523405              0.9238464658D+00
   current occupation vector 
     5  1  1  0
     5  1  1  0
      11          -112.766979334498089              0.5189760525D+00
   current occupation vector 
     5  1  1  0
     5  1  1  0
      12          -112.785184733034285              0.1151213350D+00
   current occupation vector 
     5  1  1  0
     5  1  1  0
      13          -112.785701333929396              0.2690407642D-01
   current occupation vector 
     5  1  1  0
     5  1  1  0
      14          -112.785798973738096              0.1472693549D-01
   current occupation vector 
     5  1  1  0
     5  1  1  0
      15          -112.785804964460581              0.4874719018D-02
   current occupation vector 
     5  1  1  0
     5  1  1  0
      16          -112.785805026776515              0.4341485438D-03
   current occupation vector 
     5  1  1  0
     5  1  1  0
      17          -112.785805028522063              0.4829382633D-04
   current occupation vector 
     5  1  1  0
     5  1  1  0
      18          -112.785805028570408              0.9127484648D-05
   current occupation vector 
     5  1  1  0
     5  1  1  0
      19          -112.785805028572057              0.1743315808D-05
   current occupation vector 
     5  1  1  0
     5  1  1  0
      20          -112.785805028572284              0.3363056194D-06
   current occupation vector 
     5  1  1  0
     5  1  1  0
      21          -112.785805028572113              0.4386781494D-07
   current occupation vector 
     5  1  1  0
     5  1  1  0
      22          -112.785805028572454              0.1106966652D-07
   current occupation vector 
     5  1  1  0
     5  1  1  0
      23          -112.785805028572710              0.6094105887D-08
   current occupation vector 
     5  1  1  0
     5  1  1  0
      24          -112.785805028572113              0.1242760894D-09
   current occupation vector 
     5  1  1  0
     5  1  1  0
      25          -112.785805028571374              0.1591176080D-09
   current occupation vector 
     5  1  1  0
     5  1  1  0
      26          -112.785805028572000              0.1346645018D-09
   current occupation vector 
     5  1  1  0
     5  1  1  0

  SCF has converged.

 Density matrix saved to file den.dat
 total electron number:   14.0000000000000     
     E(SCF)=      -112.785805028572625              0.9181588823D-10

  Eigenvector printing suppressed.

 @PUTMOS-I, Writing converged MOs to NEWMOS. 
 @PUTMOS-I, Symmetry   1 Full Blocks 21 Partial Blocksize   2
 @PUTMOS-I, Symmetry   2 Full Blocks 13 Partial Blocksize   0
 @PUTMOS-I, Symmetry   3 Full Blocks 13 Partial Blocksize   0
 @PUTMOS-I, Symmetry   4 Full Blocks  7 Partial Blocksize   0
 @PUTFOCK-I, Writing converged Fock matrix to NEWFOCK. 
 @PUTFOCK-I, Symmetry   1 Full Blocks 21 Partial Blocksize   2
 @PUTFOCK-I, Symmetry   2 Full Blocks 13 Partial Blocksize   0
 @PUTFOCK-I, Symmetry   3 Full Blocks 13 Partial Blocksize   0
 @PUTFOCK-I, Symmetry   4 Full Blocks  7 Partial Blocksize   0


 
  ORBITAL EIGENVALUES (ALPHA)  (1H = 27.2113834 eV)

       MO #        E(hartree)               E(eV)           FULLSYM    COMPSYM
       ----   --------------------   --------------------   -------   ---------
    1     1         -20.6658258573        -562.3457106803     SG+        A1 (1)
    2     2         -11.3693328048        -309.3752739550     SG+        A1 (1)
    3     3          -1.5079492875         -41.0333862095     SG+        A1 (1)
    4     4          -0.8029415677         -21.8491508475     SG+        A1 (1)
    5   139          -0.6317443634         -17.1906380834      PI        B2 (3)
    6    87          -0.6317443634         -17.1906380834      PI        B1 (2)
    7     5          -0.5569662554         -15.1558223167     SG+        A1 (1)
  +++++++++++++++++++++++++++++++++++++++++++++++++++++++++++++++++++++++++++++
    8     6           0.0599997201           1.6326753883     SG+        A1 (1)
    9    88           0.0625170713           1.7011759965      PI        B1 (2)
   10   140           0.0625170713           1.7011759965      PI        B2 (3)
   11     7           0.0752911134           2.0487753534     SG+        A1 (1)
   12    89           0.1362775219           3.7082998965      PI        B1 (2)
   13   141           0.1362775219           3.7082998965      PI        B2 (3)
   14     8           0.1559928997           4.2447826026     SG+        A1 (1)
   15    90           0.1661634175           4.5215364606      PI        B1 (2)
   16   142           0.1661634175           4.5215364606      PI        B2 (3)
   17     9           0.2280495186           6.2055428848     SG+        A1 (1)
   18   191           0.2280863538           6.2065452220      DE        A2 (4)
   19    10           0.2280863538           6.2065452220      DE        A1 (1)
   20    11           0.3013116825           8.1991077144     SG+        A1 (1)
   21    91           0.3190598369           8.6820595488      PI        B1 (2)
   22   143           0.3190598369           8.6820595488      PI        B2 (3)
   23    12           0.3914461899          10.6517923545     SG+        A1 (1)
   24    92           0.3955000628          10.7621038449      PI        B1 (2)
   25   144           0.3955000628          10.7621038449      PI        B2 (3)
   26    13           0.5082060061          13.8289884774     SG+        A1 (1)
   27    14           0.5357586086          14.5787329092      DE        A1 (1)
   28   192           0.5357586086          14.5787329092      DE        A2 (4)
   29    93           0.6233980486          16.9635233126      PI        B1 (2)
   30   145           0.6233980486          16.9635233126      PI        B2 (3)
   31    15           0.6390923103          17.3905858830     SG+        A1 (1)
   32    94           0.7485816237          20.3699415690      PH        B1 (2)
   33   146           0.7485816237          20.3699415690      PH        B2 (3)
   34   193           0.7680545525          20.8998269001      DE        A2 (4)
   35    16           0.7680545525          20.8998269002      DE        A1 (1)
   36    17           0.7793944888          21.2084022538     SG+        A1 (1)
   37    95           0.8212892659          22.3484170979      PI        B1 (2)
   38   147           0.8212892659          22.3484170979      PI        B2 (3)
   39    18           0.8711093947          23.7040917230     SG+        A1 (1)
   40    96           0.8825974998          24.0166989539      PI        B1 (2)
   41   148           0.8825974998          24.0166989539      PI        B2 (3)
   42    19           0.8900135373          24.2184995954      DE        A1 (1)
   43   194           0.8900135373          24.2184995954      DE        A2 (4)
   44    20           0.9006491520          24.5079093846     SG+        A1 (1)
   45    97           1.0725870487          29.1865774108      PI        B1 (2)
   46   149           1.0725870487          29.1865774108      PI        B2 (3)
   47    21           1.1814150072          32.1479367164     SG+        A1 (1)
   48   150           1.4459808639          39.3471396774      PH        B2 (3)
   49    98           1.4459808639          39.3471396774      PH        B1 (2)
   50    22           1.4663660539          39.9018488977     SG+        A1 (1)
   51   195           1.5206309377          41.3784714568      DE        A2 (4)
   52    23           1.5206309377          41.3784714568      DE        A1 (1)
   53    99           1.5566465883          42.3585071332      PI        B1 (2)
   54   151           1.5566465883          42.3585071332      PI        B2 (3)
   55    24           1.6674663889          45.3740672160     SG+        A1 (1)
   56   196           1.7664635302          48.0679163823      DE        A2 (4)
   57    25           1.7664635302          48.0679163824      DE        A1 (1)
   58    26           1.7771712230          48.3592875178     SG+        A1 (1)
   59   100           1.7900210837          48.7089500035      PI        B1 (2)
   60   152           1.7900210837          48.7089500035      PI        B2 (3)
   61   101           1.9775356522          53.8114808204      PI        B1 (2)
   62   153           1.9775356522          53.8114808204      PI        B2 (3)
   63   197           2.1044601063          57.2652708013      PI        A2 (4)
   64    27           2.1044601063          57.2652708013      PI        A1 (1)
   65    28           2.1232657478          57.7769983241     SG+        A1 (1)
   66   198           2.1920529202          59.6487924453      DE        A2 (4)
   67    29           2.1920529202          59.6487924453      DE        A1 (1)
   68   154           2.2503987873          61.2364642050      PH        B2 (3)
   69   102           2.2503987873          61.2364642050      PH        B1 (2)
   70    30           2.3142554650          62.9740927447     SG+        A1 (1)
   71   155           2.3211985431          63.1630235038      PI        B2 (3)
   72   103           2.3211985431          63.1630235038      PI        B1 (2)
   73   156           2.3559622669          64.1089925209      PH        B2 (3)
   74   104           2.3559622669          64.1089925209      PH        B1 (2)
   75    31           2.3615802376          64.2618652746      DE        A1 (1)
   76   199           2.3615802376          64.2618652747      DE        A2 (4)
   77    32           2.4836168848          67.5826512716     SG+        A1 (1)
   78   157           2.5938323679          70.5817670394      PI        B2 (3)
   79   105           2.5938323679          70.5817670394      PI        B1 (2)
   80   158           2.8139258373          76.5708148184      PI        B2 (3)
   81   106           2.8139258373          76.5708148184      PI        B1 (2)
   82    33           2.9146338452          79.3112190317     SG+        A1 (1)
   83   200           2.9925078213          81.4302776533      DE        A2 (4)
   84    34           2.9925078213          81.4302776536      DE        A1 (1)
   85    35           3.4798302742          94.6909957586     SG+        A1 (1)
   86   201           3.7201260139         101.2297752600      PI        A2 (4)
   87    36           3.7201260139         101.2297752600      PI        A1 (1)
   88   159           3.7442110683         101.8851629112      PI        B2 (3)
   89   107           3.7442110683         101.8851629113      PI        B1 (2)
   90    37           3.9399421895         107.2112774929     SG+        A1 (1)
   91   160           4.0843580755         111.1410335342      PH        B2 (3)
   92   108           4.0843580755         111.1410335342      PH        B1 (2)
   93   202           4.1778657433         113.6855065339      DE        A2 (4)
   94    38           4.1778657433         113.6855065339      DE        A1 (1)
   95   161           4.2093230664         114.5415038153      PI        B2 (3)
   96   109           4.2093230664         114.5415038153      PI        B1 (2)
   97   162           4.2626417017         115.9923776423      PH        B2 (3)
   98   110           4.2626417017         115.9923776423      PH        B1 (2)
   99    39           4.2661429187         116.0876505997     SG+        A1 (1)
  100   203           4.3731148175         118.9985039506      DE        A2 (4)
  101    40           4.3731148175         118.9985039507      DE        A1 (1)
  102    41           4.5037518404         122.5533180675     SG+        A1 (1)
  103   163           4.7692530447         129.7779731304      PI        B2 (3)
  104   111           4.7692530447         129.7779731306      PI        B1 (2)
  105    42           5.0397537445         137.1386713820     SG+        A1 (1)
  106   164           5.0997495009         138.7712389117      PI        B2 (3)
  107   112           5.0997495009         138.7712389117      PI        B1 (2)
  108   204           5.1395735259         139.8549057258      DE        A2 (4)
  109    43           5.1395735259         139.8549057259      DE        A1 (1)
  110    44           5.7810476953         157.3103052907     SG+        A1 (1)
  111   165           5.7934285994         157.6472068175      PI        B2 (3)
  112   113           5.7934285994         157.6472068175      PI        B1 (2)
  113   205           5.8981295592         160.4962647782      PI        A2 (4)
  114    45           5.8981295592         160.4962647782      PI        A1 (1)
  115   166           6.1172973946         166.4601247757      PH        B2 (3)
  116   114           6.1172973946         166.4601247757      PH        B1 (2)
  117    46           6.2357652356         169.6837986185     SG+        A1 (1)
  118   206           6.2994447359         171.4166059152      DE        A2 (4)
  119    47           6.2994447359         171.4166059152      DE        A1 (1)
  120   167           6.3228398678         172.0532198203      PI        B2 (3)
  121   115           6.3228398678         172.0532198203      PI        B1 (2)
  122   168           6.4398467487         175.2371389163      PH        B2 (3)
  123   116           6.4398467487         175.2371389163      PH        B1 (2)
  124   207           6.5809331349         179.0762946625      DE        A2 (4)
  125    48           6.5809331349         179.0762946628      DE        A1 (1)
  126    49           7.0115137414         190.7929886322     SG+        A1 (1)
  127    50           7.2753040344         197.9710874319      DE        A1 (1)
  128   208           7.2753040344         197.9710874319      DE        A2 (4)
  129   169           7.4461397402         202.6197633218      PI        B2 (3)
  130   117           7.4461397402         202.6197633218      PI        B1 (2)
  131    51           7.7626853835         211.2334081851     SG+        A1 (1)
  132    52           8.2058134856         223.2915368650     SG+        A1 (1)
  133   170           8.4275950664         229.3265204930      PI        B2 (3)
  134   118           8.4275950664         229.3265204931      PI        B1 (2)
  135   171          10.1223320931         275.4426594883      PI        B2 (3)
  136   119          10.1223320931         275.4426594884      PI        B1 (2)
  137    53          10.5659032976         287.5128455971     SG+        A1 (1)
  138    54          10.6028045374         288.5169793824      PI        A1 (1)
  139   209          10.6028045374         288.5169793824      PI        A2 (4)
  140   172          10.8690631001         295.7622432158      PH        B2 (3)
  141   120          10.8690631001         295.7622432158      PH        B1 (2)
  142   210          11.1175060788         302.5227203613      DE        A2 (4)
  143    55          11.1175060788         302.5227203614      DE        A1 (1)
  144    56          11.1298739265         302.8592666073     SG+        A1 (1)
  145   173          11.3620889100         309.1781575554      PI        B2 (3)
  146   121          11.3620889100         309.1781575554      PI        B1 (2)
  147    57          11.5442418603         314.1347913242     SG+        A1 (1)
  148   174          11.8548937522         322.5880590578      PH        B2 (3)
  149   122          11.8548937522         322.5880590578      PH        B1 (2)
  150   211          12.2725082243         333.9519265698      DE        A2 (4)
  151    58          12.2725082243         333.9519265699      DE        A1 (1)
  152   175          12.6167329479         343.3187575002      PI        B2 (3)
  153   123          12.6167329479         343.3187575002      PI        B1 (2)
  154    59          12.8648022290         350.0690658197      DE        A1 (1)
  155   212          12.8648022290         350.0690658197      DE        A2 (4)
  156    60          13.2438757995         360.3841820809     SG+        A1 (1)
  157   176          14.0776574358         383.0725338581      PI        B2 (3)
  158   124          14.0776574358         383.0725338581      PI        B1 (2)
  159    61          15.4814114056         421.2706213306     SG+        A1 (1)
  160    62          18.0209836829         490.3758962418     SG+        A1 (1)
  161   125          19.3757145493         527.2399972506      PI        B1 (2)
  162   177          19.3757145493         527.2399972506      PI        B2 (3)
  163    63          20.6244762309         561.2205301433     SG+        A1 (1)
  164   213          26.5185513722         721.6064686013      DE        A2 (4)
  165    64          26.5185513722         721.6064686015      DE        A1 (1)
  166   178          26.9864869607         734.3396433063      PI        B2 (3)
  167   126          26.9864869607         734.3396433063      PI        B1 (2)
  168    65          28.1563660560         766.1736719018     SG+        A1 (1)
  169   127          33.7889885184         919.4451212735      PI        B1 (2)
  170   179          33.7889885185         919.4451212738      PI        B2 (3)
  171    66          34.9592714287         951.2901382300     SG+        A1 (1)
  172    67          36.7525311854        1000.0872170073     SG+        A1 (1)
  173   214          47.1181151021        1282.1490951297      DE        A2 (4)
  174    68          47.1181151021        1282.1490951298      DE        A1 (1)
  175   180          47.6722051667        1297.2266523148      PI        B2 (3)
  176   128          47.6722051667        1297.2266523149      PI        B1 (2)
  177    69          48.5377908928        1320.7804373720     SG+        A1 (1)
  178    70          64.2035266563        1747.0667794776     SG+        A1 (1)
  179   129          66.8249541643        1818.3994484534      PI        B1 (2)
  180   181          66.8249541643        1818.3994484534      PI        B2 (3)
  181    71          67.7950473150        1844.7970251094     SG+        A1 (1)
  182   182          98.6672411526        2684.8721280225      PH        B2 (3)
  183   130          98.6672411526        2684.8721280226      PH        B1 (2)
  184   215          98.6885149697        2685.4510180184      DE        A2 (4)
  185    72          98.6885149697        2685.4510180184      DE        A1 (1)
  186   131          98.7540284751        2687.2337311295      PI        B1 (2)
  187   183          98.7540284751        2687.2337311295      PI        B2 (3)
  188    73          98.7660414823        2687.5606216747     SG+        A1 (1)
  189   184         103.2836426520        2810.4907991521      PH        B2 (3)
  190   132         103.2836426520        2810.4907991521      PH        B1 (2)
  191   216         103.3318259007        2811.8019320059      DE        A2 (4)
  192    74         103.3318259008        2811.8019320083      DE        A1 (1)
  193   133         103.3597070968        2812.5606179226      PI        B1 (2)
  194   185         103.3597070968        2812.5606179227      PI        B2 (3)
  195    75         103.4169352351        2814.1178747358     SG+        A1 (1)
  196   217         115.1754987883        3134.0846558153      DE        A2 (4)
  197    76         115.1754987883        3134.0846558153      DE        A1 (1)
  198   134         115.4042638119        3140.3096685814      PI        B1 (2)
  199   186         115.4042638119        3140.3096685814      PI        B2 (3)
  200    77         116.0010946434        3156.5502611616     SG+        A1 (1)
  201   135         117.0388818362        3184.7898863533      PI        B1 (2)
  202   187         117.0388818363        3184.7898863537      PI        B2 (3)
  203    78         118.0082510897        3211.1677647643     SG+        A1 (1)
  204    79         122.8803828971        3343.7452113508     SG+        A1 (1)
  205   218         198.5762433051        5403.5342907066      DE        A2 (4)
  206    80         198.5762433051        5403.5342907068      DE        A1 (1)
  207   136         198.8757503907        5411.6842928437      PI        B1 (2)
  208   188         198.8757503907        5411.6842928441      PI        B2 (3)
  209    81         199.3078241661        5423.4416180041     SG+        A1 (1)
  210    82         216.6826715606        5896.2352519731     SG+        A1 (1)
  211   189         225.2400578420        6129.0935709775      PI        B2 (3)
  212   137         225.2400578420        6129.0935709775      PI        B1 (2)
  213    83         226.0359096874        6150.7498006703     SG+        A1 (1)
  214   138         395.4971934881       10762.0257656275      PI        B1 (2)
  215   190         395.4971934881       10762.0257656277      PI        B2 (3)
  216    84         396.3017540304       10783.9189710125     SG+        A1 (1)
  217    85         509.4248284757       13862.1543211317     SG+        A1 (1)
  218    86         895.5123289400       24368.1293222129     SG+        A1 (1)


  VSCF finished.

 @CHECKOUT-I, Total execution time (CPU/WALL):       48.40/       9.53 seconds.
--executable xvscf finished with status     0 in        9.55 seconds (walltime).
 --invoking executable--
/nfs/workspaces/public/cfour_mpi/bin/xvtran
 @GETMEM-I,  Allocated    3814 MB of main memory.
  Full RHF integral transformation
  Transformation of IIII integrals :
  1 pass through the AO integral file was required.
     4587238 AO integrals were read.
     8830794 MO integrals were written to HF2.
  Transformation of IIJJ integrals :
  1 pass through the AO integral file was required.
    10378869 AO integrals were read.
    14632434 MO integrals were written to HF2.
  Transformation of IJIJ integrals :
  1 pass through the AO integral file was required.
    19695665 AO integrals were read.
    27542711 MO integrals were written to HF2.
  Transformation of IJKL integrals :
  1 pass through the AO integral file was required.
    14572553 AO integrals were read.
    18616284 MO integrals were written to HF2.
  Summary of active molecular orbitals: 
------------------------------------------------------------------------
 
  Index      Eigenvalue    Symmetry    Index      Eigenvalue    Symmetry
------------------------------------------------------------------------
     1       -20.6658259        1       110         4.2093231        2
     2       -11.3693328        1       111         4.2626417        2
     3        -1.5079493        1       112         4.7692530        2
     4        -0.8029416        1       113         5.0997495        2
     5        -0.5569663        1       114         5.7934286        2
     6        -0.6317444        2       115         6.1172974        2
     7        -0.6317444        3       116         6.3228399        2
     8         0.0599997        1       117         6.4398467        2
     9         0.0752911        1       118         7.4461397        2
    10         0.1559929        1       119         8.4275951        2
    11         0.2280495        1       120        10.1223321        2
    12         0.2280864        1       121        10.8690631        2
    13         0.3013117        1       122        11.3620889        2
    14         0.3914462        1       123        11.8548938        2
    15         0.5082060        1       124        12.6167329        2
    16         0.5357586        1       125        14.0776574        2
    17         0.6390923        1       126        19.3757145        2
    18         0.7680546        1       127        26.9864870        2
    19         0.7793945        1       128        33.7889885        2
    20         0.8711094        1       129        47.6722052        2
    21         0.8900135        1       130        66.8249542        2
    22         0.9006492        1       131        98.6672412        2
    23         1.1814150        1       132        98.7540285        2
    24         1.4663661        1       133       103.2836427        2
    25         1.5206309        1       134       103.3597071        2
    26         1.6674664        1       135       115.4042638        2
    27         1.7664635        1       136       117.0388818        2
    28         1.7771712        1       137       198.8757504        2
    29         2.1044601        1       138       225.2400578        2
    30         2.1232657        1       139       395.4971935        2
    31         2.1920529        1       140         0.0625171        3
    32         2.3142555        1       141         0.1362775        3
    33         2.3615802        1       142         0.1661634        3
    34         2.4836169        1       143         0.3190598        3
    35         2.9146338        1       144         0.3955001        3
    36         2.9925078        1       145         0.6233980        3
    37         3.4798303        1       146         0.7485816        3
    38         3.7201260        1       147         0.8212893        3
    39         3.9399422        1       148         0.8825975        3
    40         4.1778657        1       149         1.0725870        3
    41         4.2661429        1       150         1.4459809        3
    42         4.3731148        1       151         1.5566466        3
    43         4.5037518        1       152         1.7900211        3
    44         5.0397537        1       153         1.9775357        3
    45         5.1395735        1       154         2.2503988        3
    46         5.7810477        1       155         2.3211985        3
    47         5.8981296        1       156         2.3559623        3
    48         6.2357652        1       157         2.5938324        3
    49         6.2994447        1       158         2.8139258        3
    50         6.5809331        1       159         3.7442111        3
    51         7.0115137        1       160         4.0843581        3
    52         7.2753040        1       161         4.2093231        3
    53         7.7626854        1       162         4.2626417        3
    54         8.2058135        1       163         4.7692530        3
    55        10.5659033        1       164         5.0997495        3
    56        10.6028045        1       165         5.7934286        3
    57        11.1175061        1       166         6.1172974        3
    58        11.1298739        1       167         6.3228399        3
    59        11.5442419        1       168         6.4398467        3
    60        12.2725082        1       169         7.4461397        3
    61        12.8648022        1       170         8.4275951        3
    62        13.2438758        1       171        10.1223321        3
    63        15.4814114        1       172        10.8690631        3
    64        18.0209837        1       173        11.3620889        3
    65        20.6244762        1       174        11.8548938        3
    66        26.5185514        1       175        12.6167329        3
    67        28.1563661        1       176        14.0776574        3
    68        34.9592714        1       177        19.3757145        3
    69        36.7525312        1       178        26.9864870        3
    70        47.1181151        1       179        33.7889885        3
    71        48.5377909        1       180        47.6722052        3
    72        64.2035267        1       181        66.8249542        3
    73        67.7950473        1       182        98.6672412        3
    74        98.6885150        1       183        98.7540285        3
    75        98.7660415        1       184       103.2836427        3
    76       103.3318259        1       185       103.3597071        3
    77       103.4169352        1       186       115.4042638        3
    78       115.1754988        1       187       117.0388818        3
    79       116.0010946        1       188       198.8757504        3
    80       118.0082511        1       189       225.2400578        3
    81       122.8803829        1       190       395.4971935        3
    82       198.5762433        1       191         0.2280864        4
    83       199.3078242        1       192         0.5357586        4
    84       216.6826716        1       193         0.7680546        4
    85       226.0359097        1       194         0.8900135        4
    86       396.3017540        1       195         1.5206309        4
    87       509.4248285        1       196         1.7664635        4
    88       895.5123289        1       197         2.1044601        4
    89         0.0625171        2       198         2.1920529        4
    90         0.1362775        2       199         2.3615802        4
    91         0.1661634        2       200         2.9925078        4
    92         0.3190598        2       201         3.7201260        4
    93         0.3955001        2       202         4.1778657        4
    94         0.6233980        2       203         4.3731148        4
    95         0.7485816        2       204         5.1395735        4
    96         0.8212893        2       205         5.8981296        4
    97         0.8825975        2       206         6.2994447        4
    98         1.0725870        2       207         6.5809331        4
    99         1.4459809        2       208         7.2753040        4
   100         1.5566466        2       209        10.6028045        4
   101         1.7900211        2       210        11.1175061        4
   102         1.9775357        2       211        12.2725082        4
   103         2.2503988        2       212        12.8648022        4
   104         2.3211985        2       213        26.5185514        4
   105         2.3559623        2       214        47.1181151        4
   106         2.5938324        2       215        98.6885150        4
   107         2.8139258        2       216       103.3318259        4
   108         3.7442111        2       217       115.1754988        4
   109         4.0843581        2       218       198.5762433        4
------------------------------------------------------------------------
  -20.6658258572875       -11.3693328048494       -1.50794928748467     
 -0.802941567737645      -0.556966255404803      -0.631744363403819     
 -0.631744363403836       5.999972012766461E-002  7.529111340152850E-002
  0.155992899743676       0.228049518598939       0.228086353816610     
  0.301311682463443       0.391446189925748       0.508206006072932     
  0.535758608628051       0.639092310277903       0.768054552498482     
  0.779394488770098       0.871109394716019       0.890013537326661     
  0.900649152023993        1.18141500723545        1.46636605391164     
   1.52063093774119        1.66746638893807        1.76646353019982     
   1.77717122304702        2.10446010625543        2.12326574782440     
   2.19205292022462        2.31425546503671        2.36158023757983     
   2.48361688482068        2.91463384517586        2.99250782132424     
   3.47983027421374        3.72012601388167        3.93994218952286     
   4.17786574327204        4.26614291868953        4.37311481748088     
   4.50375184039856        5.03975374445631        5.13957352590587     
   5.78104769530758        5.89812955919917        6.23576523560625     
   6.29944473588162        6.58093313487457        7.01151374142228     
   7.27530403441004        7.76268538354186        8.20581348558135     
   10.5659032975543        10.6028045373997        11.1175060787752     
   11.1298739264871        11.5442418603441        12.2725082242549     
   12.8648022290436        13.2438757994521        15.4814114055899     
   18.0209836829450        20.6244762309027        26.5185513721972     
   28.1563660560470        34.9592714286642        36.7525311854330     
[...]
 Convergence information after     9 iterations: 
 Largest element of residual vector : -0.94763790E-05.
 Largest element of DIIS residual   :  0.48895479E-05.
 Convergence information after    10 iterations: 
 Largest element of residual vector :  0.57185276E-05.
 Largest element of DIIS residual   :  0.38812373E-05.
 Convergence information after    11 iterations: 
 Largest element of residual vector :  0.22846992E-05.
 Largest element of DIIS residual   :  0.79067365E-06.
 Convergence information after    12 iterations: 
 Largest element of residual vector :  0.93787134E-06.
 Largest element of DIIS residual   :  0.43105275E-06.
 Convergence information after    13 iterations: 
 Largest element of residual vector :  0.33240454E-06.
 Largest element of DIIS residual   :  0.20865863E-06.
 Convergence information after    14 iterations: 
 Largest element of residual vector :  0.16943154E-06.
 Largest element of DIIS residual   :  0.86430947E-07.
 Perturbed amplitude equations converged in    14 iterations.
  Dominant contributions to perturbed wavefunction:
    7    7  141   28   0.2265043536 ABAB
    7    7   28  141   0.2265043536 ABAB
    7    7  141   37   0.2052947565 ABAB
    7    7   37  141   0.2052947565 ABAB
    7    7  141   55   0.1763169137 ABAB
    7    7   55  141   0.1763169137 ABAB
    7    7  141   53  -0.1497391471 ABAB
    7    7   53  141  -0.1497391471 ABAB
    7    6   28   90   0.1485773907 ABAB
    6    7   90   28   0.1485773907 ABAB
    7    7  142   28   0.1464405036 ABAB
    7    7   28  142   0.1464405036 ABAB
    5    5  141   44   0.1432510996 ABAB
    5    5   44  141   0.1432510996 ABAB
    7    7  141   39   0.1423738336 ABAB
    7    7   39  141   0.1423738336 ABAB
    7    7  141   44   0.1417754777 ABAB
    7    7   44  141   0.1417754777 ABAB
    7    6   37   90   0.1349884499 ABAB
    6    7   90   37   0.1349884499 ABAB
  norm of converged amps    2.39879562790351     
 Starting iterative solution of the perturbed Lambda equations.
 The DIIS procedure is used to accelerate convergence.
 Convergence criterion is 10**(-7).
 Maximum number of iterations is 100.
 Convergence information after     1 iterations: 
 Largest element of residual vector : -0.67848726E-01.
 Largest element of DIIS residual   : -0.67848726E-01.
 Convergence information after     2 iterations: 
 Largest element of residual vector :  0.79227362E-02.
 Largest element of DIIS residual   :  0.49917140E-02.
 Convergence information after     3 iterations: 
 Largest element of residual vector : -0.46154789E-02.
 Largest element of DIIS residual   : -0.40209222E-02.
 Convergence information after     4 iterations: 
 Largest element of residual vector : -0.28595376E-02.
 Largest element of DIIS residual   : -0.22763203E-02.
 Convergence information after     5 iterations: 
 Largest element of residual vector : -0.17002052E-02.
 Largest element of DIIS residual   : -0.80172895E-03.
 Convergence information after     6 iterations: 
 Largest element of residual vector : -0.55905033E-03.
 Largest element of DIIS residual   :  0.13374451E-03.
 Convergence information after     7 iterations: 
 Largest element of residual vector : -0.11262093E-03.
 Largest element of DIIS residual   : -0.48586013E-04.
 Convergence information after     8 iterations: 
 Largest element of residual vector : -0.22188776E-04.
 Largest element of DIIS residual   :  0.21533346E-04.
 Convergence information after     9 iterations: 
 Largest element of residual vector :  0.74935507E-05.
 Largest element of DIIS residual   : -0.47847616E-05.
 Convergence information after    10 iterations: 
 Largest element of residual vector :  0.45649881E-05.
 Largest element of DIIS residual   :  0.33309947E-05.
 Convergence information after    11 iterations: 
 Largest element of residual vector :  0.17758587E-05.
 Largest element of DIIS residual   :  0.73591987E-06.
 Convergence information after    12 iterations: 
 Largest element of residual vector :  0.83900232E-06.
 Largest element of DIIS residual   :  0.55188290E-06.
 Convergence information after    13 iterations: 
 Largest element of residual vector :  0.41244433E-06.
 Largest element of DIIS residual   :  0.30218495E-06.
 Convergence information after    14 iterations: 
 Largest element of residual vector :  0.23834989E-06.
 Largest element of DIIS residual   :  0.11870383E-06.
 Convergence information after    15 iterations: 
 Largest element of residual vector :  0.81675693E-07.
 Largest element of DIIS residual   :  0.37554989E-07.
 Perturbed Lambda equations converged in    15 iterations.
  Dominant contributions to perturbed wavefunction:
    7    7  141   28   0.2130248191 ABAB
    7    7   28  141   0.2130248191 ABAB
    7    7  141   37   0.1941848123 ABAB
    7    7   37  141   0.1941848123 ABAB
    7    7  141   55   0.1642457915 ABAB
    7    7   55  141   0.1642457915 ABAB
    7    7  141   53  -0.1403990135 ABAB
    7    7   53  141  -0.1403990135 ABAB
    7    7  142   28   0.1395209383 ABAB
    7    7   28  142   0.1395209383 ABAB
    7    6   28   90   0.1377106248 ABAB
    6    7   90   28   0.1377106248 ABAB
    5    5  141   44   0.1374079710 ABAB
    5    5   44  141   0.1374079710 ABAB
    7    7  141   39   0.1326347717 ABAB
    7    7   39  141   0.1326347717 ABAB
    7    7  141   44   0.1304537522 ABAB
    7    7   44  141   0.1304537522 ABAB
    7    6   37   90   0.1260821902 ABAB
    6    7   90   37   0.1260821902 ABAB
        The DBOC first-order density matrix is being calculated 
             (Symmetry block 3, perturbation   2)
 term   6.72716374441599     
 final tnorm  0.884925722198240     
  norm contr. I: |<0|L dT/dx|0>|^2   0.000000000000000E+000
  norm contr. II: <0|[nabla(1+L)e-T][nabla e^T]|0>   6.72716374441599     
  total norm contribution   6.72716374441599     
 oo  1.154009790557352E-002
 vv  -50.4976151818742     
 vo  4.774870949031571E-002
  Correlated perturbed 1-el contribution to DBOC  -50.4383263744783       cm**-1
  SUM_I |dc_I/dx|^2 contribution to DBOC   25.3258179792499       cm**-1
 
 
  The total diagonal Born-Oppenheimer correction (DBOC) is:      0.0040106092 a.u.
  The total diagonal Born-Oppenheimer correction (DBOC) is:        880.226982 cm-1
 
 Total CC energy including DBOC  -113.280340823633     
 First-order density matrix is being calculated  (Symmetry block 3, perturbation   2)
 Calculation of the contributions of <pq||rs> to dI(i,j)/dx required   2.0 seconds.
 Calculation of the contributions of <pq||rs> to dI(a,b)/dx required  15.7 seconds.
 Calculation of the contributions of <pq||rs> to dI(i,a)/dx required   9.3 seconds.
 First-order Z-vector equations are solved for 1 perturbation.
 Convergence reached after  18 iterations.
        U*G(pq,rs) contribution is being calculated
             (Symmetry block 3, perturbation   2)

 CCSD contribution to force constants 

        0.0000000000        0.0000000000        0.0000000000
        0.0000000000        0.0000000000        0.0000000000
        0.0000000000        0.0000000000        0.0000000000
        0.0000000000        0.0000000000        0.0000000000
        0.0000000000        0.0000000000        0.0000000000
        0.0000000000        0.0000000000        0.0000000000
        0.0000000000        0.0000000000        0.0000000000
        0.0000000000        0.0000000000        0.0000000000
        0.0000000000        0.0000000000        0.0000000000
        0.0000000000        0.0000000000        0.0000000000
        0.0000000000        0.0000000000        0.0000000000
        0.0000000000       -1.1728150158        1.1728150158

 CCSD contribution to dipole derivatives 

        0.0000000000        0.0000000000        0.0000000000
        0.0000000000        0.0000000000        0.0000000000
        0.0000000000        0.0000000000        0.0000000000
        0.0000000000        0.0000000000       -0.0453598951
        0.0000000000        0.0000000000        0.0000000000
        0.0000000000        0.0000000000        0.0000000000
 @CHECKOUT-I, Total execution time (CPU/WALL):     1006.13/     288.90 seconds.
--executable xsdcc finished with status     0 in      288.94 seconds (walltime).
 --invoking executable--
/nfs/workspaces/public/cfour_mpi/bin/xanti
 @GETMEM-I,  Allocated    3814 MB of main memory.
 CCSD MO derivative gammas will be sorted to Mulliken order.
 @CHECKOUT-I, Total execution time (CPU/WALL):        8.57/      10.02 seconds.
--executable xanti finished with status     0 in       10.03 seconds (walltime).
 --invoking executable--
/nfs/workspaces/public/cfour_mpi/bin/xbcktrn
 @GETMEM-I,  Allocated    3814 MB of main memory.
 CCSD MO derivative gammas will be transformed to the AO basis.
 @CHECKOUT-I, Total execution time (CPU/WALL):       20.06/       4.54 seconds.
--executable xbcktrn finished with status     0 in        4.55 seconds (walltime).
 --invoking executable--
/nfs/workspaces/public/cfour_mpi/bin/xvdint
 @GETMEM-I,  Allocated    3814 MB of main memory.
 One- and two-electron integral derivatives are calculated
 for RHF-CC/MBPT hessians and dipole derivatives.
 Spherical gaussians are used.
  magnet F F
                    8722  records have been written to the Sort file.
  Total length of Sort file :             178609116  words.
 Evaluation of 2el integral derivatives

                      Two-electron integral gradient
                      ------------------------------

                         C #1 z     0.0000000000
                         O #2 z     0.0000000000


 C #1       0.0000000000           -0.5777371698            0.0000000000
 O #2       0.0000000000            0.5777371698            0.0000000000


 Evaluation of 2e integral derivatives required  343.23 seconds.
  contribution to Hessian
        0.0000000000        0.0000000000        0.0000000000
        0.0000000000       -0.5777371698        0.5777371698
 @CHECKOUT-I, Total execution time (CPU/WALL):      343.22/      68.95 seconds.
--executable xvdint finished with status     0 in       68.98 seconds (walltime).
 --invoking executable--
/nfs/workspaces/public/cfour_mpi/bin/xanti
 @GETMEM-I,  Allocated    3814 MB of main memory.
 CCSD MO gammas will be sorted to Mulliken order.
 @CHECKOUT-I, Total execution time (CPU/WALL):       10.95/       9.61 seconds.
--executable xanti finished with status     0 in        9.64 seconds (walltime).
 --invoking executable--
/nfs/workspaces/public/cfour_mpi/bin/xbcktrn
 @GETMEM-I,  Allocated    3814 MB of main memory.
 CCSD MO gammas will be transformed to the AO basis.
 @CHECKOUT-I, Total execution time (CPU/WALL):       30.18/       4.84 seconds.
--executable xbcktrn finished with status     0 in        4.86 seconds (walltime).
 --invoking executable--
/nfs/workspaces/public/cfour_mpi/bin/xvdint
 @GETMEM-I,  Allocated    3814 MB of main memory.
 One- and two-electron integral derivatives are calculated
 for RHF-CC/MBPT hessians and dipole derivatives.
 Spherical gaussians are used.
  magnet F F

                     Kinetic energy integral gradient
                     --------------------------------

                         C #1 z    -1.4457972442
                         O #2 z     1.4457972442


 C #1       0.0000000000            0.0000000000           -1.4457972442
 O #2       0.0000000000            0.0000000000            1.4457972442



                   Nuclear attraction integral gradient
                   ------------------------------------

                         C #1 z    23.1470164772
                         O #2 z   -23.1470164772


 C #1       0.0000000000            0.0000000000           23.1470164772
 O #2       0.0000000000            0.0000000000          -23.1470164772



                      Reorthonormalization gradient
                      -----------------------------

                         C #1 z     0.0000000000
                         O #2 z     0.0000000000


 C #1       0.0000000000            0.0000000000            0.0000000000
 O #2       0.0000000000            0.0000000000            0.0000000000



                     Kinetic energy integral Hessian
                     -------------------------------


           Symmetry 1

           C #1 z      O #2 z

 C #1 z    1.097864
 O #2 z   -1.097864    1.097864


           Symmetry 2

           C #1 x      O #2 x

 C #1 x   -1.867648
 O #2 x    1.867648   -1.867648


           Symmetry 3

           C #1 y      O #2 y

 C #1 y   -1.867648
 O #2 y    1.867648   -1.867648




           C #1 x      C #1 y      C #1 z      O #2 x      O #2 y      O #2 z

 C #1 x   -1.867648
 C #1 y    0.000000   -1.867648
 C #1 z    0.000000    0.000000    1.097864

 O #2 x    1.867648    0.000000    0.000000   -1.867648
 O #2 y    0.000000    1.867648    0.000000    0.000000   -1.867648
 O #2 z    0.000000    0.000000   -1.097864    0.000000    0.000000    1.097864




                   Nuclear attraction integral Hessian
                   -----------------------------------


           Symmetry 1

           C #1 z      O #2 z

 C #1 z  -13.225093
 O #2 z   13.225093  -13.225093


           Symmetry 2

           C #1 x      O #2 x

 C #1 x   20.205050
 O #2 x  -20.205050   20.205050


           Symmetry 3

           C #1 y      O #2 y

 C #1 y   20.205050
 O #2 y  -20.205050   20.205050




           C #1 x      C #1 y      C #1 z      O #2 x      O #2 y      O #2 z

 C #1 x   20.205050
 C #1 y    0.000000   20.205050
 C #1 z    0.000000    0.000000  -13.225093

 O #2 x  -20.205050    0.000000    0.000000   20.205050
 O #2 y    0.000000  -20.205050    0.000000    0.000000   20.205050
 O #2 z    0.000000    0.000000   13.225093    0.000000    0.000000  -13.225093




                Highest order reorthonormalization Hessian
                ------------------------------------------


           Symmetry 1

           C #1 z      O #2 z

 C #1 z    0.000000
 O #2 z    0.000000    0.000000


           Symmetry 2

           C #1 x      O #2 x

 C #1 x    0.000000
 O #2 x    0.000000    0.000000


           Symmetry 3

           C #1 y      O #2 y

 C #1 y    0.000000
 O #2 y    0.000000    0.000000




           C #1 x      C #1 y      C #1 z      O #2 x      O #2 y      O #2 z




                Electronic contributions to dipole moment
                -----------------------------------------

                               au             Debye

                    z      0.58142007      1.47782267

  Conversion factor used: 1 a.u. =   2.54174691 Debye 



   Electronic contributions to static part of dipole moment derivatives
   --------------------------------------------------------------------


                     Total dipole moment derivatives
                     -------------------------------


           Symmetry 1
                              Ez

               C #1 z    -5.74241043
               O #2 z    -8.25758957

           Symmetry 2
                              Ex

               C #1 x    -5.78514302
               O #2 x    -8.21485698

           Symmetry 3
                              Ey

               C #1 y    -5.78514302
               O #2 y    -8.21485698



                       Ex          Ey          Ez

      C #1    x   -5.785143    0.000000    0.000000
      C #1    y    0.000000   -5.785143    0.000000
      C #1    z    0.000000    0.000000   -5.742410

      O #2    x   -8.214857    0.000000    0.000000
      O #2    y    0.000000   -8.214857    0.000000
      O #2    z    0.000000    0.000000   -8.257590

 Evaluation of 1e integral derivatives required    1.66 seconds.
                    8815  records have been written to the Sort file.
  Total length of Sort file :             180513570  words.
 Evaluation of 2el integral derivatives

                      Two-electron integral gradient
                      ------------------------------

                         C #1 z   -11.0087765747
                         O #2 z    11.0087765747


 C #1       0.0000000000            0.0000000000          -11.0087765747
 O #2       0.0000000000            0.0000000000           11.0087765747


 Evaluation of 2e integral derivatives required  703.57 seconds.

                            Molecular gradient
                            ------------------

                         C #1 z     0.4982966394
                         O #2 z    -0.4982966394


 C #1       0.0000000000            0.0000000000            0.4982966394
 O #2       0.0000000000            0.0000000000           -0.4982966394


  Molecular gradient norm 0.705E+00

                            Molecular hessian
                            -----------------


           Symmetry 1

           C #1 z      O #2 z

 C #1 z   62.500523
 O #2 z  -62.500523   62.500523


           Symmetry 2

           C #1 x      O #2 x

 C #1 x    1.889952
 O #2 x   -1.889952    1.889952


           Symmetry 3

           C #1 y      O #2 y

 C #1 y    1.889952
 O #2 y   -1.889952    1.889952




           C #1 x      C #1 y      C #1 z      O #2 x      O #2 y      O #2 z

 C #1 x    1.889952
 C #1 y    0.000000    1.889952
 C #1 z    0.000000    0.000000   62.500523

 O #2 x   -1.889952    0.000000    0.000000    1.889952
 O #2 y    0.000000   -1.889952    0.000000    0.000000    1.889952
 O #2 z    0.000000    0.000000  -62.500523    0.000000    0.000000   62.500523




                           Total dipole moment
                           -------------------

                               au             Debye

                    z     -0.02150784     -0.05466748

  Conversion factor used: 1 a.u. =   2.54174691 Debye 



                     Total dipole moment derivatives
                     -------------------------------


           Symmetry 1
                              Ez

               C #1 z     0.71770621
               O #2 z    -0.71770621

           Symmetry 2
                              Ex

               C #1 x    -0.01282067
               O #2 x     0.01282067

           Symmetry 3
                              Ey

               C #1 y    -0.01282067
               O #2 y     0.01282067



                       Ex          Ey          Ez

      C #1    x   -0.012821    0.000000    0.000000
      C #1    y    0.000000   -0.012821    0.000000
      C #1    z    0.000000    0.000000    0.717706

      O #2    x    0.012821    0.000000    0.000000
      O #2    y    0.000000    0.012821    0.000000
      O #2    z    0.000000    0.000000   -0.717706

 @CHECKOUT-I, Total execution time (CPU/WALL):      705.22/     116.72 seconds.
--executable xvdint finished with status     0 in      116.74 seconds (walltime).
 --invoking executable--
/nfs/workspaces/public/cfour_mpi/bin/xjoda
  @GTFLGS-I, Hessian will be transformed to curvilinear coordinates.
  @GTFLGS-I, Hessian will be transformed to curvilinear coordinates.
  igrd and ihes are                      0                     1
  gradient from JOBARC 
   0.000000000000000   0.000000000000000   0.498296639391903
   0.000000000000000   0.000000000000000  -0.498296639391903
 
  @PROJFCM-I, Projecting force constant matrix onto totally symmetric subspace.
  Largest difference between matrix elements of symmetrized
  and unsymmetrized FCM :    -0.1542566075E-10.
  read isotopes from ZMAT file 
 
  Summary of diagonal Born-Oppenheimer correction at the correlated level
  The total diagonal Born-Oppenheimer correction (DBOC) is:      0.0040106092 a.u.
  The total diagonal Born-Oppenheimer correction (DBOC) is:        880.226982 cm-1
  The total diagonal Born-Oppenheimer correction (DBOC) is:            10.530 kJ/mole
  hellooooooo 
  readis is  F
 
 @CHECKOUT-I, Total execution time (CPU/WALL):        0.01/       0.04 seconds.
--executable xjoda finished with status     0 in        0.05 seconds (walltime).
  The final electronic energy is      -113.280340823632514 a.u. 
  This computation required                         2706.45 seconds (walltime).
