 --invoking executable--
/nfs/workspaces/public/cfour_mpi/bin/xjoda


   *************************************************************************
         <<<     CCCCCC     CCCCCC   |||     CCCCCC     CCCCCC   >>>
       <<<      CCC        CCC       |||    CCC        CCC         >>>
      <<<      CCC        CCC        |||   CCC        CCC            >>>
    <<<        CCC        CCC        |||   CCC        CCC              >>>
      <<<      CCC        CCC        |||   CCC        CCC            >>>
       <<<      CCC        CCC       |||    CCC        CCC         >>>
         <<<     CCCCCC     CCCCCC   |||     CCCCCC     CCCCCC   >>>
   *************************************************************************

     ****************************************************************
     * CFOUR Coupled-Cluster techniques for Computational Chemistry *
     ****************************************************************
 

   Department of Chemistry                Institut fuer Physikalische Chemie
   University of Florida                  Universitaet Mainz
   Gainesville, FL 32611, USA             D-55099 Mainz, Germany

   Department of Chemistry                Fakultaet fuer Chemie und Biowiss.
   Johns Hopkins University               Karlsruher Institut fuer Technologie
   Baltimore, MD 21218, USA               D-76131 Karlsruhe, Germany

   Department of Chemistry                Department of Physical Chemistry
   Southern Methodist University          Eotvos Lorand University
   Dallas, TX 75275, USA                  H-1053 Budapest, Hungary

 
                       Version 2.1
 
                     vincent.theory.phys.ucl.ac.uk                     
                     Wed 26 Feb 20:24:52 GMT 2025                      
                     integer*8 version is running
 
********************************************************************************
*                          Input from ZMAT file                                *
********************************************************************************
Carbon Monoxide DBOC calculation                                                
C                                                                               
O 1 r                                                                           
                                                                                
r=1.0241379310344827                                                            
                                                                                
                                                                                
*CFOUR(CALC=CCSD,BASIS=AUG-PCVQZ,SCF_CONV=10                                    
CC_CONV=14,DBOC=ON,MEMORY=500000000                                             
ZFIELD=-200)                                                                    
                                                                                
%isotopes                                                                       
13                                                                              
16                                                                              
********************************************************************************
  @GTFLGS-I, Hessian will be transformed to curvilinear coordinates.
    -------------------------------------------------------------------
                    CFOUR Control Parameters 
    -------------------------------------------------------------------
        External           Internal           Value            Units
          Name               Name
    -------------------------------------------------------------------
       ABCDTYPE             IABCDT         STANDARD    [  0]    ***   
       ANHARMONIC           IANHAR         OFF         [  0]    ***   
       ANH_ALGORIT          IANALG         STANDARD    [  0]    ***   
       ANH_DERIVAT          IANDER         SECOND      [  1]    ***   
       ANH_MODE             ANHMOD         VIBRATION   [  0]    ***   
       ANH_STEPSIZ          ICUBST             50000          x 10-6  
       ANH_SYMMETR          IANHSM         ABELIAN     [  0]    ***   
       AO_LADDERS           IAOLAD         SINGLEPASS  [  1]    ***   
       AV_SCF               IAVSCF         OFF         [  0]    ***   
       BASIS                IBASIS         AUG-PCVQZ   [ 52]    ***   
       BOTHVECTORS          BOTHVC         OFF         [  0]    ***   
       BOX_POTENT           IPIAB          OFF         [  0]    ***   
       BREIT                IBREIT         OFF         [  0]    ***   
       BRUCK_CONV           IBRTOL          10D-  4             ***   
       BRUECKNER            IBRKNR         OFF         [  0]    ***   
       BUFFERSIZE           IBUFFS              4096            ***   
       CACHE_RECS           ICHREC             10               ***   
       CALCLEVEL            ICLLVL         CCSD        [ 10]    ***   
       CCORBOPT             ICCORB         OFF         [  0]  x 0.01  
       CC_CONV              ICCCNV          10D- 14             ***   
       CC_EXPORDER          ICCEOR              5               ***   
       CC_EXTRAPOL          ICCEXT         DIIS        [  1]    ***   
       CC_GUESS             ICCGES         MP2         [  0]    ***   
       CC_MAXCYC            ICCCYC            100              cycles 
       CC_PROGRAM           ICCPRO         VCC         [  0]    ***   
       CHARGE               ICHRGE              0               ***   
       CHOLESKY             ICHOLE         OFF         [  0]    ***   
       CIS_CONV             ICISTL              5               ***   
       COMM_SIZE            IPSIZE            ***               ***   
       CONSTANT             ICONST         OLD         [  1]    ***   
       CONTINUUM            ICONTU         NONE        [  0]    ***   
       CONTRACTION          ICNTYP         GENERAL     [  1]    ***   
       COORDINATES          ICOORD         INTERNAL    [  0]    ***   
       CPHF_CONVER          ICPHFT          10D- 16             ***   
       CPHF_MAXCYC          ICPHFC             64              cycles 
       CUBIC                ICUBIC         OFF         [  0]    ***   
       CURVILINEAR          ICURVY         ON          [  1]    ***   
       DBOC                 IDBOC          ON          [  1]    ***   
       DCT                  IDCT           OFF         [  0]    ***   
       DERIV_LEV            IDRLVL         SECOND      [  2]    ***   
       DEVMEM_SIZE          IDVMEM          50000000           MByte  
       DIAG_MRCC            IEOMST          10D-  0             ***   
       DIFF_TYPE            IDIFTY         RELAXED     [  0]    ***   
       DIRECT               IDIRCT         OFF         [  0]    ***   
       DROPMO               IDRPMO      NONE         
       ECP                  IECP           OFF         [  0]    ***   
       EIGENVECTOR          IVEC                1               ***   
       EL_ANHARM            IELANH         OFF         [  0]    ***   
       EOMFOLLOW            IEOMSR         ENERGY      [  0]    ***   
       EOMIP                IEOMIP         OFF         [  0]    ***   
       EOMLEVEL             HBARFM         SAME        [  0]    ***   
       EOM_MRCC             IMRCCE         NEW         [  1]    ***   
       EOM_NONIT            EOMNON         OFF         [  0]    ***   
       EOM_NSING            IEOMSI          10D-  0             ***   
       EOM_NSTATES          IMRCCD         DAVIDSON    [  0]    ***   
       EOM_NTRIP            IEOMTR          10D-  0             ***   
       EOM_ORDER            IEXORD         ENERGY      [  0]    ***   
       EOM_PROPSTA          IEOMST              0               ***   
       ESTATE_CONV          IEXTOL          10D-  5             ***   
       ESTATE_DIAG          IEXDIG         ITERATIVE   [  0]    ***   
       ESTATE_LOCK          IESLOC         ON          [  1]    ***   
       ESTATE_MAXC          IEXMXC             40               ***   
       ESTATE_PROP          IEXPRP         OFF         [  0]    ***   
       EVAL_HESS            IRECAL              0            # of cyc.
       EXCITATION           IEXCIT              0               ***   
       EXCITE               IEXCIT         NONE        [  0]    ***   
       EXTERN_POT           IEXPOT         OFF         [  0]    ***   
       FCGRADNEW            IFCGNW         OFF         [  0]    ***   
       FC_FIELD             IFINFC              0             x 10-6  
       FD_CALTYPE           IFDCAL         GRADONLY    [  0]    ***   
       FD_PROJECT           IFDPRJ         OFF         [  1]    ***   
       FD_STEPSIZE          IDISFD              0            10-4 bohr
       FD_USEGROUP          IFDGRP         FULL        [  0]    ***   
       FILE_RECSIZ          IFLREC              4096           words  
       FINITE_PERT          IFIPER              0             x 10-6  
       FIXGEOM              IFIXGM         OFF         [  0]    ***   
       FOCK                 IFOCK          AO          [  1]    ***   
       FREQ_ALGORI          IVIALG         STANDARD    [  0]    ***   
       FROZEN_CORE          IFROCO         OFF         [  0]    ***   
       GAMMA_ABCD           IGABCD         STORE       [  0]    ***   
       GAMMA_ABCI           IGABCI         STORE       [  0]    ***   
       GENBAS_1             IGNBS1              0               ***   
       GENBAS_2             IGNBS2              0               ***   
       GENBAS_3             IGNBS3              0               ***   
       GENBAS_4             IGNBS4              0               ***   
       GEO_CONV             ICONTL              5              H/bohr 
       GEO_MAXCYC           IOPTCY             50               ***   
       GEO_MAXSTEP          IMXSTP            300            millibohr
       GEO_METHOD           INR            SINGLE_POINT[  5]    ***   
       GIAO                 IGIAO          OFF         [  1]    ***   
       GIMIC                IGIMIC         OFF         [  0]    ***   
       GRID                 IGRID          OFF         [  0]    ***   
       GRID_ALGO            IGALGO         SERIAL      [  0]    ***   
       GUESS                IGUESS         MOREAD      [  0]    ***   
       HBAR                 IHBAR          OFF         [  0]    ***   
       HESS_TYPE            IHESTP         SCF         [  0]    ***   
       HF2_FILE             IHF2Fl         USE         [  1]    ***   
       HFSTABILITY          ISTABL         OFF         [  0]    ***   
       INCORE               INCORE         OFF         [  0]    ***   
       INPUT_MRCC           IMRCC          ON          [  1]    ***   
       INTEGRALS            INTTYP         VMOL        [  1]    ***   
       JODA_PRINT           IJPRNT              0               ***   
       KEYWORD_OUT          IDMPKW         NO          [  0]    ***   
       LINDEP_TOL           ILINDP              8               ***   
       LINEQ_CONV           IZTACN          10D-  7           cycles  
       LINEQ_EXPOR          ILMAXD              5               ***   
       LINEQ_MAXCY          ILMAXC            100               ***   
       LINEQ_TYPE           ILTYPE         DIIS        [  1]    ***   
       LOCK_ORBOCC          ILOCOC         OFF         [  0]    ***   
       MEMORY_SIZE          IMEMSZ         500000000           words  
       MEM_UNIT             IMEMU          INTEGERWORDS[  0]    ***   
       MRCC                 IMRCCC         OFF         [  0]    ***   
       MULTIPLICTY          IMULTP              1               ***   
       NACOUPLING           IVCOUP         OFF         [  0]    ***   
       NEGEVAL              IDIE           ABORT       [  0]    ***   
       NEWNORM              INEWNO         OFF         [  0]    ***   
       NON-HF               INONHF         OFF         [  0]    ***   
       NTOP_TAMP            ITOPT2             15               ***   
       NUC_MODEL            INUCMO         POINT       [  0]    ***   
       OCCUPATION           IOCCU   ESTIMATED BY SCF 
       OPEN-SHELL           IOPEN          SPIN-ORBITAL[  0]    ***   
       OPTVIB               IOPTVB         OFF         [  0]    ***   
       ORBITALS             IORBTP         STANDARD    [  0]    ***   
       PARALLEL             IPARAL         ON          [  1]    ***   
       PARA_INT             IPINTS         ON          [  1]    ***   
       PARA_PRINT           IPPRIN              0               ***   
       PERT_ORB             IPTORB         STANDARD    [  0]    ***   
       POINTS               IGRDFD              0               ***   
       PRINT                IPRNT               0               ***   
       PROPS                IPROPS         OFF         [  0]    ***   
       PROP_INTEGR          IINTYP         INTERNAL    [  0]    ***   
       PSI                  IPSI           OFF         [  0]    ***   
       QC_ALG               IQCALG         FLM         [  0]    ***   
       QC_LINALG            IQCLIN         TRIDIAG     [  2]    ***   
       QC_MAXCYC            IQCMAX          10D-100           cycles  
       QC_MAXSCFCY          IQCMSC          10D- 15           cycles  
       QC_RTRUST            IQCRTR          10D-  0           x 10-3  
       QC_SKIPSCF           IQCSKI         OFF         [  0]    ***   
       QC_START             IQCSTA          10D-  1             ***   
       QRHFGUESS            IQGUES         OFF         [  0]    ***   
       QUARTIC              IQUART         OFF         [  0]    ***   
       RAMAN_INT            IRAMIN         OFF         [  0]    ***   
       RAMAN_ORB            IRAMRE         UNRELAXED   [  0]    ***   
       RDO                  IRDOFM         ON          [  1]    ***   
       REDUCE_REPR          REDREP         Ir          [  0]    ***   
       REFERENCE            IREFNC         RHF         [  0]    ***   
       RELATIVIST           IRELAT         OFF         [  0]    ***   
       RELAX_DENS           IRDENS         ON          [  1]    ***   
       RESET_FLAGS          IRESET         OFF         [  0]    ***   
       RESTART_CC           ICCRES         OFF         [  0]    ***   
       ROT_EVEC             ROTVEC              0               ***   
       SAVE_INTS            ISVINT         OFF         [  0]    ***   
       SCALE_ON             ISTCRT              0               ***   
       SCF_CONV             ISCFCV          10D- 10             ***   
       SCF_DAMPING          IDAMP               0             x 10-3  
       SCF_EXPORDE          IRPPOR              6               ***   
       SCF_EXPSTAR          IRPPLS              8               ***   
       SCF_EXTRAPO          IRPP           ON          [  1]    ***   
       SCF_MAXCYC           ISCFCY            150              cycles 
       SCF_NOSTOP           ISCFST         OFF         [  0]    ***   
       SCF_PRINT            ISCFPR              0               ***   
       SCF_PROG             ISCFPR         SCF         [  0]    ***   
       SD_FIELD             IFINSD              0             x 10-6  
       SOPERT               IPERSO         OFF         [  0]    ***   
       SPHERICAL            IDFGHI         ON          [  1]    ***   
       SPINORBIT            ISOCAL         OFF         [  0]    ***   
       SPINROTATIO          ISRCON         OFF         [  0]    ***   
       SPIN_FLIP            ISPFLP         OFF         [  0]    ***   
       SPIN_ORBIT           ISPORB         OFF         [  0]    ***   
       SPIN_SCAL            ISCSMP         OFF         [  0]    ***   
       STEEPSCALE           ISTPSC              1000          x 10-3  
       SUBGROUP             ISUBGP         DEFAULT     [  0]    ***   
       SUBGRPAXIS           ISBXYZ         X           [  0]    ***   
       SYMMETRY             ISYM           ON          [  0]    ***   
       SYM_CHECK            ISYMCK         OVERRIDE    [  1]    ***   
       T3_EXTRAPOL          IT3EXT         OFF         [  0]    ***   
       T4_EXTRAPOL          IT4EXP         OFF         [  0]    ***   
       TAMP_SUM             IEVERY              5               ***   
       TESTSUITE            ITESTS         OFF         [  0]    ***   
       THERMOCH             ITHERM         OFF         [  0]    ***   
       TOL_CHOLESK          ITOLCH          10D-  4             ***   
       TRANGRAD             IRESRM         OFF         [  0]    ***   
       TRANS_INV            ITRAIN         IGNORE      [  1]    ***   
       TREAT_PERT           ITREAT         SIMULTANEOUS[  0]    ***   
       TRIP_ALGORI          ITRALG         NORMAL      [  0]    ***   
       UIJ_THRESHO          IUIJTH              1               ***   
       UNITS                IUNITS         ANGSTROM    [  0]    ***   
       UNOS                 IUNOS          OFF         [  0]    ***   
       UPDATE_HESS          IHUPDT         ON          [  1]    ***   
       VIBPHASE             ISETPH         STANDARD    [  0]    ***   
       VIBRATION            IVIB           ANALYTIC    [  1]    ***   
       VIB_ALGORIT          IGEALG         STANDARD    [  0]    ***   
       VNATORB              IVNORB         OFF         [  0]    ***   
       VTRAN                IVTRAN         FULL/PARTIAL[  0]    ***   
       XFIELD               IXEFLD              0             x 10-6  
       XFORM_TOL            IXFTOL          10D- 11             ***   
       YFIELD               IYEFLD              0             x 10-6  
       ZFIELD               IZEFLD            ***             x 10-6  
       ZSCALE_EXP           IZEXPS         OFF         [  0]    ***   
    -------------------------------------------------------------------
   2 entries found in Z-matrix 
   Job Title : Carbon Monoxide DBOC calculation                                                
   There are  1 unique internal coordinates.
   Of these,  0 will be optimized.
   User supplied Z-matrix: 
--------------------------------------------------------------------------------
       SYMBOL    BOND      LENGTH    ANGLE     ANGLE     DIHED     ANGLE
                  TO      (ANGST)    WRT      (DEG)      WRT      (DEG)
--------------------------------------------------------------------------------
        C    
        O          1         r    
                  *Initial values for internal coordinates* 
                      Name             Value
                        r               1.0241379310
--------------------------------------------------------------------------------
  read isotopes from ZMAT file 
   Rotational constants (in cm-1): 
          2.2408582928             2.2408582928
   Rotational constants (in MHz): 
      67179.2509730366         67179.2509730366
********************************************************************************
   The full molecular point group is CXv .
   The largest Abelian subgroup of the full molecular point group is C2v .
   The computational point group is C2v .
********************************************************************************
--------------------------------------------------------------------------------
   Analysis of internal coordinates specified by Z-matrix 
--------------------------------------------------------------------------------
   *The nuclear repulsion energy is   24.801835797979798 a.u.
   *There is   1 degree of freedom within the tot. symm. molecular subspace.
   *Z-matrix requests optimization of   0 coordinates.
   *The optimization is constrained.
   *The following   1 parameters can have non-zero 
    derivatives within the totally symmetric subspace:
             r    [ 1]
   *The following   0 parameters are to be optimized:

   *The following coordinates must be varied in an  unconstrained optimization.
             r    [ 1]
--------------------------------------------------------------------------------


 ----------------------------------------------------------------
         Coordinates used in calculation (QCOMP) 
 ----------------------------------------------------------------
 Z-matrix   Atomic            Coordinates (in bohr)
  Symbol    Number           X              Y              Z
 ----------------------------------------------------------------
     C         6        -0.00000000     0.00000000     1.06749845
     O         8         0.00000000     0.00000000    -0.86784215
 ----------------------------------------------------------------
 
   Interatomic distance matrix (Angstroms) 
 
                 C             O    
                [ 1]        [ 2]
  C    [ 1]     0.00000
  O    [ 2]     1.02414     0.00000
 rotcon2
   Rotational constants (in cm-1): 
          2.2408582928             0.0000000000
   Rotational constants (in MHz): 
      67179.2509730366             0.0000000000
  ECPDATA file not present.   Using default ECPDATA. 
  @GTFLGS-I, Hessian will be transformed to curvilinear coordinates.
  There are  218 basis functions.
 @CHECKOUT-I, Total execution time (CPU/WALL):        0.09/       0.19 seconds.
--executable xjoda finished with status     0 in        0.20 seconds (walltime).
 --invoking executable--
/nfs/workspaces/public/cfour_mpi/bin/xvmol
 SERIAL VERSION OF MOLECULE STARTED
********************************************************************************
                    INPUT FROM MOL FILE
********************************************************************************
INTGRL        1    0    1    0    0    0    0    0    0                         
         *** CFOUR Program System (Release V0.1) ***                            
Carbon Monoxide DBOC calculation                                                
    2    2 X  Y       0.10E-08              0    0                              
   9999.00      3.00                                                            
          6.00000000    1    5    1    1    1    1    1                         
C #1  -0.000000000000000   0.000000000000000   1.067498454328720                
   16    9                                                                      
   33980.0000000000       9.100000000000000E-005 -1.900000000000000E-005        
  0.000000000000000E+000  0.000000000000000E+000  0.000000000000000E+000        
  0.000000000000000E+000  0.000000000000000E+000  0.000000000000000E+000        
  0.000000000000000E+000                                                        
   5089.00000000000       7.040000000000000E-004 -1.510000000000000E-004        
  0.000000000000000E+000  0.000000000000000E+000  0.000000000000000E+000        
  0.000000000000000E+000  0.000000000000000E+000  0.000000000000000E+000        
  0.000000000000000E+000                                                        
   1157.00000000000       3.693000000000000E-003 -7.850000000000000E-004        
  0.000000000000000E+000  0.000000000000000E+000  0.000000000000000E+000        
  0.000000000000000E+000  0.000000000000000E+000  0.000000000000000E+000        
  0.000000000000000E+000                                                        
   326.600000000000       1.536000000000000E-002 -3.324000000000000E-003        
  0.000000000000000E+000  0.000000000000000E+000  0.000000000000000E+000        
  0.000000000000000E+000  0.000000000000000E+000  0.000000000000000E+000        
  0.000000000000000E+000                                                        
   106.100000000000       5.292900000000000E-002 -1.151200000000000E-002        
  0.000000000000000E+000  0.000000000000000E+000  0.000000000000000E+000        
  0.000000000000000E+000  0.000000000000000E+000  0.000000000000000E+000        
  0.000000000000000E+000                                                        
   38.1100000000000       0.147043000000000      -3.416000000000000E-002        
  0.000000000000000E+000  0.000000000000000E+000  0.000000000000000E+000        
  0.000000000000000E+000  0.000000000000000E+000  0.000000000000000E+000        
  0.000000000000000E+000                                                        
   14.7500000000000       0.305631000000000      -7.717300000000001E-002        
  0.000000000000000E+000  0.000000000000000E+000  0.000000000000000E+000        
  0.000000000000000E+000  0.000000000000000E+000  0.000000000000000E+000        
  0.000000000000000E+000                                                        
   6.03500000000000       0.399345000000000      -0.141493000000000             
  0.000000000000000E+000  0.000000000000000E+000  0.000000000000000E+000        
  0.000000000000000E+000  0.000000000000000E+000  0.000000000000000E+000        
  0.000000000000000E+000                                                        
   2.53000000000000       0.217051000000000      -0.118019000000000             
  0.000000000000000E+000  0.000000000000000E+000  0.000000000000000E+000        
  0.000000000000000E+000  0.000000000000000E+000  0.000000000000000E+000        
  0.000000000000000E+000                                                        
  0.735500000000000       1.589400000000000E-002  0.273806000000000             
   1.00000000000000       0.000000000000000E+000  0.000000000000000E+000        
  0.000000000000000E+000  0.000000000000000E+000  0.000000000000000E+000        
  0.000000000000000E+000                                                        
  0.290500000000000      -3.084000000000000E-003  0.586510000000000             
  0.000000000000000E+000   1.00000000000000       0.000000000000000E+000        
  0.000000000000000E+000  0.000000000000000E+000  0.000000000000000E+000        
  0.000000000000000E+000                                                        
  0.111100000000000       9.779999999999999E-004  0.285430000000000             
  0.000000000000000E+000  0.000000000000000E+000   1.00000000000000             
  0.000000000000000E+000  0.000000000000000E+000  0.000000000000000E+000        
  0.000000000000000E+000                                                        
   7.21600000000000       0.000000000000000E+000  0.000000000000000E+000        
  0.000000000000000E+000  0.000000000000000E+000  0.000000000000000E+000        
   1.00000000000000       0.000000000000000E+000  0.000000000000000E+000        
  0.000000000000000E+000                                                        
   19.5700000000000       0.000000000000000E+000  0.000000000000000E+000        
  0.000000000000000E+000  0.000000000000000E+000  0.000000000000000E+000        
  0.000000000000000E+000   1.00000000000000       0.000000000000000E+000        
  0.000000000000000E+000                                                        
   53.0730000000000       0.000000000000000E+000  0.000000000000000E+000        
  0.000000000000000E+000  0.000000000000000E+000  0.000000000000000E+000        
  0.000000000000000E+000  0.000000000000000E+000   1.00000000000000             
  0.000000000000000E+000                                                        
  4.145000000000000E-002  0.000000000000000E+000  0.000000000000000E+000        
  0.000000000000000E+000  0.000000000000000E+000  0.000000000000000E+000        
  0.000000000000000E+000  0.000000000000000E+000  0.000000000000000E+000        
   1.00000000000000                                                             
   10    8                                                                      
   34.5100000000000       5.378000000000000E-003  0.000000000000000E+000        
  0.000000000000000E+000  0.000000000000000E+000  0.000000000000000E+000        
  0.000000000000000E+000  0.000000000000000E+000  0.000000000000000E+000        
   7.91500000000000       3.613200000000000E-002  0.000000000000000E+000        
  0.000000000000000E+000  0.000000000000000E+000  0.000000000000000E+000        
  0.000000000000000E+000  0.000000000000000E+000  0.000000000000000E+000        
   2.36800000000000       0.142493000000000       0.000000000000000E+000        
  0.000000000000000E+000  0.000000000000000E+000  0.000000000000000E+000        
  0.000000000000000E+000  0.000000000000000E+000  0.000000000000000E+000        
  0.813200000000000       0.342150000000000        1.00000000000000             
  0.000000000000000E+000  0.000000000000000E+000  0.000000000000000E+000        
  0.000000000000000E+000  0.000000000000000E+000  0.000000000000000E+000        
  0.289000000000000       0.463864000000000       0.000000000000000E+000        
   1.00000000000000       0.000000000000000E+000  0.000000000000000E+000        
  0.000000000000000E+000  0.000000000000000E+000  0.000000000000000E+000        
  0.100700000000000       0.250028000000000       0.000000000000000E+000        
  0.000000000000000E+000   1.00000000000000       0.000000000000000E+000        
  0.000000000000000E+000  0.000000000000000E+000  0.000000000000000E+000        
   8.18200000000000       0.000000000000000E+000  0.000000000000000E+000        
  0.000000000000000E+000  0.000000000000000E+000   1.00000000000000             
  0.000000000000000E+000  0.000000000000000E+000  0.000000000000000E+000        
   24.1860000000000       0.000000000000000E+000  0.000000000000000E+000        
  0.000000000000000E+000  0.000000000000000E+000  0.000000000000000E+000        
   1.00000000000000       0.000000000000000E+000  0.000000000000000E+000        
   71.4940000000000       0.000000000000000E+000  0.000000000000000E+000        
  0.000000000000000E+000  0.000000000000000E+000  0.000000000000000E+000        
  0.000000000000000E+000   1.00000000000000       0.000000000000000E+000        
  3.218000000000000E-002  0.000000000000000E+000  0.000000000000000E+000        
  0.000000000000000E+000  0.000000000000000E+000  0.000000000000000E+000        
  0.000000000000000E+000  0.000000000000000E+000   1.00000000000000             
    6    6                                                                      
   1.84800000000000        1.00000000000000       0.000000000000000E+000        
  0.000000000000000E+000  0.000000000000000E+000  0.000000000000000E+000        
  0.000000000000000E+000                                                        
  0.649000000000000       0.000000000000000E+000   1.00000000000000             
  0.000000000000000E+000  0.000000000000000E+000  0.000000000000000E+000        
  0.000000000000000E+000                                                        
  0.228000000000000       0.000000000000000E+000  0.000000000000000E+000        
   1.00000000000000       0.000000000000000E+000  0.000000000000000E+000        
  0.000000000000000E+000                                                        
   8.65600000000000       0.000000000000000E+000  0.000000000000000E+000        
  0.000000000000000E+000   1.00000000000000       0.000000000000000E+000        
  0.000000000000000E+000                                                        
   33.2130000000000       0.000000000000000E+000  0.000000000000000E+000        
  0.000000000000000E+000  0.000000000000000E+000   1.00000000000000             
  0.000000000000000E+000                                                        
  7.660000000000000E-002  0.000000000000000E+000  0.000000000000000E+000        
  0.000000000000000E+000  0.000000000000000E+000  0.000000000000000E+000        
   1.00000000000000                                                             
    4    4                                                                      
   1.41900000000000        1.00000000000000       0.000000000000000E+000        
  0.000000000000000E+000  0.000000000000000E+000                                
  0.485000000000000       0.000000000000000E+000   1.00000000000000             
  0.000000000000000E+000  0.000000000000000E+000                                
   24.6940000000000       0.000000000000000E+000  0.000000000000000E+000        
   1.00000000000000       0.000000000000000E+000                                
  0.187000000000000       0.000000000000000E+000  0.000000000000000E+000        
  0.000000000000000E+000   1.00000000000000                                     
    2    2                                                                      
   1.01100000000000        1.00000000000000       0.000000000000000E+000        
  0.424000000000000       0.000000000000000E+000   1.00000000000000             
          8.00000000    1    5    1    1    1    1    1                         
O #2   0.000000000000000   0.000000000000000  -0.867842154768844                
   16    9                                                                      
   61420.0000000000       9.000000000000001E-005 -2.000000000000000E-005        
  0.000000000000000E+000  0.000000000000000E+000  0.000000000000000E+000        
  0.000000000000000E+000  0.000000000000000E+000  0.000000000000000E+000        
  0.000000000000000E+000                                                        
   9199.00000000000       6.980000000000001E-004 -1.590000000000000E-004        
  0.000000000000000E+000  0.000000000000000E+000  0.000000000000000E+000        
  0.000000000000000E+000  0.000000000000000E+000  0.000000000000000E+000        
  0.000000000000000E+000                                                        
   2091.00000000000       3.664000000000000E-003 -8.290000000000000E-004        
  0.000000000000000E+000  0.000000000000000E+000  0.000000000000000E+000        
  0.000000000000000E+000  0.000000000000000E+000  0.000000000000000E+000        
  0.000000000000000E+000                                                        
   590.900000000000       1.521800000000000E-002 -3.508000000000000E-003        
  0.000000000000000E+000  0.000000000000000E+000  0.000000000000000E+000        
  0.000000000000000E+000  0.000000000000000E+000  0.000000000000000E+000        
  0.000000000000000E+000                                                        
   192.300000000000       5.242300000000000E-002 -1.215600000000000E-002        
  0.000000000000000E+000  0.000000000000000E+000  0.000000000000000E+000        
  0.000000000000000E+000  0.000000000000000E+000  0.000000000000000E+000        
  0.000000000000000E+000                                                        
   69.3200000000000       0.145921000000000      -3.626100000000000E-002        
  0.000000000000000E+000  0.000000000000000E+000  0.000000000000000E+000        
  0.000000000000000E+000  0.000000000000000E+000  0.000000000000000E+000        
  0.000000000000000E+000                                                        
   26.9700000000000       0.305258000000000      -8.299200000000000E-002        
  0.000000000000000E+000  0.000000000000000E+000  0.000000000000000E+000        
  0.000000000000000E+000  0.000000000000000E+000  0.000000000000000E+000        
  0.000000000000000E+000                                                        
   11.1000000000000       0.398508000000000      -0.152090000000000             
  0.000000000000000E+000  0.000000000000000E+000  0.000000000000000E+000        
  0.000000000000000E+000  0.000000000000000E+000  0.000000000000000E+000        
  0.000000000000000E+000                                                        
   4.68200000000000       0.216980000000000      -0.115331000000000             
  0.000000000000000E+000  0.000000000000000E+000  0.000000000000000E+000        
  0.000000000000000E+000  0.000000000000000E+000  0.000000000000000E+000        
  0.000000000000000E+000                                                        
   1.42800000000000       1.759400000000000E-002  0.288979000000000             
   1.00000000000000       0.000000000000000E+000  0.000000000000000E+000        
  0.000000000000000E+000  0.000000000000000E+000  0.000000000000000E+000        
  0.000000000000000E+000                                                        
  0.554700000000000      -2.502000000000000E-003  0.586128000000000             
  0.000000000000000E+000   1.00000000000000       0.000000000000000E+000        
  0.000000000000000E+000  0.000000000000000E+000  0.000000000000000E+000        
  0.000000000000000E+000                                                        
  0.206700000000000       9.540000000000000E-004  0.277624000000000             
  0.000000000000000E+000  0.000000000000000E+000   1.00000000000000             
  0.000000000000000E+000  0.000000000000000E+000  0.000000000000000E+000        
  0.000000000000000E+000                                                        
   12.9740000000000       0.000000000000000E+000  0.000000000000000E+000        
  0.000000000000000E+000  0.000000000000000E+000  0.000000000000000E+000        
   1.00000000000000       0.000000000000000E+000  0.000000000000000E+000        
  0.000000000000000E+000                                                        
   34.9000000000000       0.000000000000000E+000  0.000000000000000E+000        
  0.000000000000000E+000  0.000000000000000E+000  0.000000000000000E+000        
  0.000000000000000E+000   1.00000000000000       0.000000000000000E+000        
  0.000000000000000E+000                                                        
   93.8810000000000       0.000000000000000E+000  0.000000000000000E+000        
  0.000000000000000E+000  0.000000000000000E+000  0.000000000000000E+000        
  0.000000000000000E+000  0.000000000000000E+000   1.00000000000000             
  0.000000000000000E+000                                                        
  6.959000000000000E-002  0.000000000000000E+000  0.000000000000000E+000        
  0.000000000000000E+000  0.000000000000000E+000  0.000000000000000E+000        
  0.000000000000000E+000  0.000000000000000E+000  0.000000000000000E+000        
   1.00000000000000                                                             
   10    8                                                                      
   63.4200000000000       6.044000000000000E-003  0.000000000000000E+000        
  0.000000000000000E+000  0.000000000000000E+000  0.000000000000000E+000        
  0.000000000000000E+000  0.000000000000000E+000  0.000000000000000E+000        
   14.6600000000000       4.179900000000000E-002  0.000000000000000E+000        
  0.000000000000000E+000  0.000000000000000E+000  0.000000000000000E+000        
  0.000000000000000E+000  0.000000000000000E+000  0.000000000000000E+000        
   4.45900000000000       0.161143000000000       0.000000000000000E+000        
  0.000000000000000E+000  0.000000000000000E+000  0.000000000000000E+000        
  0.000000000000000E+000  0.000000000000000E+000  0.000000000000000E+000        
   1.53100000000000       0.356731000000000        1.00000000000000             
  0.000000000000000E+000  0.000000000000000E+000  0.000000000000000E+000        
  0.000000000000000E+000  0.000000000000000E+000  0.000000000000000E+000        
  0.530200000000000       0.448309000000000       0.000000000000000E+000        
   1.00000000000000       0.000000000000000E+000  0.000000000000000E+000        
  0.000000000000000E+000  0.000000000000000E+000  0.000000000000000E+000        
  0.175000000000000       0.244940000000000       0.000000000000000E+000        
  0.000000000000000E+000   1.00000000000000       0.000000000000000E+000        
  0.000000000000000E+000  0.000000000000000E+000  0.000000000000000E+000        
   14.4750000000000       0.000000000000000E+000  0.000000000000000E+000        
  0.000000000000000E+000  0.000000000000000E+000   1.00000000000000             
  0.000000000000000E+000  0.000000000000000E+000  0.000000000000000E+000        
   42.7300000000000       0.000000000000000E+000  0.000000000000000E+000        
  0.000000000000000E+000  0.000000000000000E+000  0.000000000000000E+000        
   1.00000000000000       0.000000000000000E+000  0.000000000000000E+000        
   126.140000000000       0.000000000000000E+000  0.000000000000000E+000        
  0.000000000000000E+000  0.000000000000000E+000  0.000000000000000E+000        
  0.000000000000000E+000   1.00000000000000       0.000000000000000E+000        
  5.348000000000000E-002  0.000000000000000E+000  0.000000000000000E+000        
  0.000000000000000E+000  0.000000000000000E+000  0.000000000000000E+000        
  0.000000000000000E+000  0.000000000000000E+000   1.00000000000000             
    6    6                                                                      
   3.77500000000000        1.00000000000000       0.000000000000000E+000        
  0.000000000000000E+000  0.000000000000000E+000  0.000000000000000E+000        
  0.000000000000000E+000                                                        
   1.30000000000000       0.000000000000000E+000   1.00000000000000             
  0.000000000000000E+000  0.000000000000000E+000  0.000000000000000E+000        
  0.000000000000000E+000                                                        
  0.444000000000000       0.000000000000000E+000  0.000000000000000E+000        
   1.00000000000000       0.000000000000000E+000  0.000000000000000E+000        
  0.000000000000000E+000                                                        
   14.9270000000000       0.000000000000000E+000  0.000000000000000E+000        
  0.000000000000000E+000   1.00000000000000       0.000000000000000E+000        
  0.000000000000000E+000                                                        
   57.5440000000000       0.000000000000000E+000  0.000000000000000E+000        
  0.000000000000000E+000  0.000000000000000E+000   1.00000000000000             
  0.000000000000000E+000                                                        
  0.154000000000000       0.000000000000000E+000  0.000000000000000E+000        
  0.000000000000000E+000  0.000000000000000E+000  0.000000000000000E+000        
   1.00000000000000                                                             
    4    4                                                                      
   2.66600000000000        1.00000000000000       0.000000000000000E+000        
  0.000000000000000E+000  0.000000000000000E+000                                
  0.859000000000000       0.000000000000000E+000   1.00000000000000             
  0.000000000000000E+000  0.000000000000000E+000                                
   26.4830000000000       0.000000000000000E+000  0.000000000000000E+000        
   1.00000000000000       0.000000000000000E+000                                
  0.324000000000000       0.000000000000000E+000  0.000000000000000E+000        
  0.000000000000000E+000   1.00000000000000                                     
    2    2                                                                      
   1.84600000000000        1.00000000000000       0.000000000000000E+000        
  0.714000000000000       0.000000000000000E+000   1.00000000000000             
FINISH                                                                          
 
********************************************************************************
 ONE- AND TWO-ELECTRON INTEGRALS OVER SYMMETRY-ADAPTED AOS ARE CALCULATED.

  SPHERICAL HARMONICS ARE USED.
  
  INTEGRALS LESS THAN  0.10E-13 ARE NEGLECTED.

  NUCLEAR REPULSION ENERGY :   24.8018357980 A.U.
  @MOLECU-I, ONE ELECTRON INTEGRALS (CPU/WALL):        0.05/       0.06 SECONDS.
  @TWOEL-I,    4650572 INTEGRALS OF SYMMETRY TYPE  I I I I
  @TWOEL-I,   19908553 INTEGRALS OF SYMMETRY TYPE  I J I J
  @TWOEL-I,   10498396 INTEGRALS OF SYMMETRY TYPE  I I J J
  @TWOEL-I,   14717509 INTEGRALS OF SYMMETRY TYPE  I J K L
  @TWOEL-I, TOTAL NUMBER OF 2-E INTEGRALS   49775030.
  @MOLECU-I, TWO ELECTRON INTEGRALS (CPU/WALL):      174.40/      22.52 SECONDS.
 @CHECKOUT-I, Total execution time (CPU/WALL):      174.47/      22.61 seconds.

Running with 14 threads/proc

--executable xvmol finished with status     0 in       22.65 seconds (walltime).
 --invoking executable--
/nfs/workspaces/public/cfour_mpi/bin/xvmol2ja
 @GETMEM-I,  Allocated    3814 MB of main memory.
 @CHECKOUT-I, Total execution time (CPU/WALL):        0.14/       0.05 seconds.
--executable xvmol2ja finished with status     0 in        0.07 seconds (walltime).
 --invoking executable--
/nfs/workspaces/public/cfour_mpi/bin/xvprop
 @GETMEM-I,  Allocated    3814 MB of main memory.
   Property integrals will be calculated.
    --------------------------------------------------------------
                                   Property evaluated at 
    Property type                X             Y             Z
    --------------------------------------------------------------
    Dipole moment               ----          ----          ----  
    Quadrupole moment           ----          ----          ----  
    Octopole moment             ----          ----          ----  
    Relativisitic corr.         ----          ----          ----  
    Second moment            0.0000000     0.0000000     0.0000000
    Electron density         0.0000000     0.0000000     1.0674985
    Electron density         0.0000000     0.0000000    -0.8678422
    Field gradient           0.0000000     0.0000000     1.0674985
    Field gradient           0.0000000     0.0000000    -0.8678422
    Potential                0.0000000     0.0000000     1.0674985
    Potential                0.0000000     0.0000000    -0.8678422
    --------------------------------------------------------------
 @CHECKOUT-I, Total execution time (CPU/WALL):        1.37/       1.39 seconds.
--executable xvprop finished with status     0 in        1.42 seconds (walltime).
 --invoking executable--
/nfs/workspaces/public/cfour_mpi/bin/xvscf
  There are  218 functions in the AO basis.

  There are 4 irreducible representations.

       Irrep        # of functions
         1                 86
         2                 52
         3                 52
         4                 28


  Parameters for SCF calculation: 
        SCF reference function:  RHF  
  Maximum number of iterations:  150
     Full symmetry point group: CXv 
     Computational point group: C2v 
        Initial density matrix: MOREAD                 
     SCF convergence tolerance: 10**(-10)
  DIIS convergence acceleration:  ON
          Latest start for DIIS:   8
                     DIIS order:   6

  Memory information:    2523578 words required.
  Fock matrices are constructed from AO integral file.
 @GETMEM-I,  Allocated      19 MB of main memory.
  Initialization and symmetry analysis required      0.001 seconds.

  Adding electric field perturbation to one-electron Hamiltonian.
  Field direction     : Z
  Field strength      : -0.0002000 a.u.

  @INITGES-I, Occupancies from core Hamiltonian:

          Alpha population by irrep:   5    1    1    0
           Beta population by irrep:   5    1    1    0


 total no. of electrons in initial guess :  0.000000000000000E+000
  --------------------------------------------------------------------
  Iteration         Total Energy            Largest Density Difference
  --------------------------------------------------------------------
       0            24.801728248677637              0.0000000000D+00
   current occupation vector 
     5  1  1  0
     5  1  1  0
       1           -90.840838322730150              0.1953638983D+02
   current occupation vector 
     5  1  1  0
     5  1  1  0
       2           -93.728236334152342              0.8208128395D+02
   current occupation vector 
     5  1  1  0
     5  1  1  0
       3          -103.247023908685534              0.8206343935D+02
   current occupation vector 
     5  1  1  0
     5  1  1  0
       4          -100.706387932140558              0.1201006605D+02
   current occupation vector 
     5  1  1  0
     5  1  1  0
       5          -105.111065643010065              0.1203218655D+02
   current occupation vector 
     5  1  1  0
     5  1  1  0
       6          -102.426903133624407              0.6593726779D+01
   current occupation vector 
     5  1  1  0
     5  1  1  0
       7          -104.244545857186537              0.6589878045D+01
   current occupation vector 
     5  1  1  0
     5  1  1  0
       8          -101.615102769512632              0.5301483670D+01
   current occupation vector 
     5  1  1  0
     5  1  1  0
       9          -111.481392266161279              0.3593675923D+01
   current occupation vector 
     5  1  1  0
     5  1  1  0
      10          -112.559397634938179              0.8847520392D+00
   current occupation vector 
     5  1  1  0
     5  1  1  0
      11          -112.768597451659517              0.3900103399D+00
   current occupation vector 
     5  1  1  0
     5  1  1  0
      12          -112.771201710650374              0.4761565434D-01
   current occupation vector 
     5  1  1  0
     5  1  1  0
      13          -112.771311495427213              0.1511448639D-01
   current occupation vector 
     5  1  1  0
     5  1  1  0
      14          -112.771321313241501              0.5156100274D-02
   current occupation vector 
     5  1  1  0
     5  1  1  0
      15          -112.771321475452041              0.4293772918D-03
   current occupation vector 
     5  1  1  0
     5  1  1  0
      16          -112.771321478321013              0.5077599319D-04
   current occupation vector 
     5  1  1  0
     5  1  1  0
      17          -112.771321478439731              0.1959458573D-04
   current occupation vector 
     5  1  1  0
     5  1  1  0
      18          -112.771321478444648              0.1660512591D-05
   current occupation vector 
     5  1  1  0
     5  1  1  0
      19          -112.771321478446893              0.6546377984D-06
   current occupation vector 
     5  1  1  0
     5  1  1  0
      20          -112.771321478445017              0.4369697068D-07
   current occupation vector 
     5  1  1  0
     5  1  1  0
      21          -112.771321478446524              0.1927288990D-07
   current occupation vector 
     5  1  1  0
     5  1  1  0
      22          -112.771321478446666              0.8437724963D-08
   current occupation vector 
     5  1  1  0
     5  1  1  0
      23          -112.771321478446467              0.7244909117D-09
   current occupation vector 
     5  1  1  0
     5  1  1  0
      24          -112.771321478446211              0.2275900579D-09
   current occupation vector 
     5  1  1  0
     5  1  1  0

  SCF has converged.

 Density matrix saved to file den.dat
 total electron number:   14.0000000000000     
     E(SCF)=      -112.771321478446126              0.4848615953D-10

  Eigenvector printing suppressed.

 @PUTMOS-I, Writing converged MOs to NEWMOS. 
 @PUTMOS-I, Symmetry   1 Full Blocks 21 Partial Blocksize   2
 @PUTMOS-I, Symmetry   2 Full Blocks 13 Partial Blocksize   0
 @PUTMOS-I, Symmetry   3 Full Blocks 13 Partial Blocksize   0
 @PUTMOS-I, Symmetry   4 Full Blocks  7 Partial Blocksize   0
 @PUTFOCK-I, Writing converged Fock matrix to NEWFOCK. 
 @PUTFOCK-I, Symmetry   1 Full Blocks 21 Partial Blocksize   2
 @PUTFOCK-I, Symmetry   2 Full Blocks 13 Partial Blocksize   0
 @PUTFOCK-I, Symmetry   3 Full Blocks 13 Partial Blocksize   0
 @PUTFOCK-I, Symmetry   4 Full Blocks  7 Partial Blocksize   0


 
  ORBITAL EIGENVALUES (ALPHA)  (1H = 27.2113834 eV)

       MO #        E(hartree)               E(eV)           FULLSYM    COMPSYM
       ----   --------------------   --------------------   -------   ---------
    1     1         -20.6587850701        -562.1541211216     SG+        A1 (1)
    2     2         -11.3125000160        -307.8287751480     SG+        A1 (1)
    3     3          -1.5957519177         -43.4226172448     SG+        A1 (1)
    4     4          -0.8138656745         -22.1464109047     SG+        A1 (1)
    5    87          -0.6899440419         -18.7743318490      PI        B1 (2)
    6   139          -0.6899440419         -18.7743318490      PI        B2 (3)
    7     5          -0.5409000139         -14.7186376592     SG+        A1 (1)
  +++++++++++++++++++++++++++++++++++++++++++++++++++++++++++++++++++++++++++++
    8     6           0.0586925525           1.5971055498     SG+        A1 (1)
    9    88           0.0642776086           1.7490826519      PI        B1 (2)
   10   140           0.0642776086           1.7490826519      PI        B2 (3)
   11     7           0.0752839430           2.0485802369     SG+        A1 (1)
   12    89           0.1545864767           4.2065118859      PI        B1 (2)
   13   141           0.1545864767           4.2065118859      PI        B2 (3)
   14     8           0.1565278042           4.2593380935     SG+        A1 (1)
   15    90           0.1825376748           4.9671026541      PI        B1 (2)
   16   142           0.1825376748           4.9671026541      PI        B2 (3)
   17     9           0.2273833584           6.1874157455     SG+        A1 (1)
   18    10           0.2275452493           6.1918210206      DE        A1 (1)
   19   191           0.2275452493           6.1918210206      DE        A2 (4)
   20    11           0.3018060003           8.2125587874     SG+        A1 (1)
   21    91           0.3329591508           9.0602791079      PI        B1 (2)
   22   143           0.3329591508           9.0602791079      PI        B2 (3)
   23    12           0.3951843085          10.7535117332     SG+        A1 (1)
   24    92           0.3999451463          10.8830607139      PI        B1 (2)
   25   144           0.3999451463          10.8830607139      PI        B2 (3)
   26    13           0.5082363388          13.8298138724     SG+        A1 (1)
   27   192           0.5270051625          14.3405395302      DE        A2 (4)
   28    14           0.5270051625          14.3405395302      DE        A1 (1)
   29    93           0.6198440643          16.8668144819      PI        B1 (2)
   30   145           0.6198440643          16.8668144819      PI        B2 (3)
   31    15           0.6613917744          17.9973851499     SG+        A1 (1)
   32   146           0.7499437583          20.4070071358      PH        B2 (3)
   33    94           0.7499437583          20.4070071358      PH        B1 (2)
   34    16           0.7704937111          20.9661997798      DE        A1 (1)
   35   193           0.7704937111          20.9661997798      DE        A2 (4)
   36    17           0.7858484368          21.3840231080     SG+        A1 (1)
   37    95           0.8365993306          22.7650251382      PI        B1 (2)
   38   147           0.8365993306          22.7650251382      PI        B2 (3)
   39    96           0.8740823756          23.7849906447      PI        B1 (2)
   40   148           0.8740823756          23.7849906447      PI        B2 (3)
   41    18           0.8761567008          23.8414359039     SG+        A1 (1)
   42    19           0.8991466792          24.4670250198      DE        A1 (1)
   43   194           0.8991466792          24.4670250198      DE        A2 (4)
   44    20           0.9487644767          25.8171939314     SG+        A1 (1)
   45    97           1.1034383589          30.0260842431      PI        B1 (2)
   46   149           1.1034383589          30.0260842431      PI        B2 (3)
   47    21           1.2909025672          35.1272446892     SG+        A1 (1)
   48    98           1.4548744958          39.5891477048      PH        B1 (2)
   49   150           1.4548744958          39.5891477048      PH        B2 (3)
   50   195           1.5036376379          40.9160602594      DE        A2 (4)
   51    22           1.5036376379          40.9160602594      DE        A1 (1)
   52    23           1.5292318053          41.6125129607     SG+        A1 (1)
   53    99           1.5369236294          41.8218181366      PI        B1 (2)
   54   151           1.5369236294          41.8218181366      PI        B2 (3)
   55    24           1.6570974953          45.0919152769     SG+        A1 (1)
   56    25           1.7527466765          47.6946618165     SG+        A1 (1)
   57    26           1.7764366924          48.3392999218      DE        A1 (1)
   58   196           1.7764366924          48.3392999218      DE        A2 (4)
   59   100           1.8692644740          50.8652722790      PI        B1 (2)
   60   152           1.8692644740          50.8652722791      PI        B2 (3)
   61   101           1.9514788686          53.1024396901      PI        B1 (2)
   62   153           1.9514788686          53.1024396901      PI        B2 (3)
   63   197           2.1118573264          57.4665593957      PI        A2 (4)
   64    27           2.1118573264          57.4665593957      PI        A1 (1)
   65    28           2.1976878495          59.8021266660     SG+        A1 (1)
   66    29           2.2196022578          60.3984480316      DE        A1 (1)
   67   198           2.2196022578          60.3984480316      DE        A2 (4)
   68   154           2.2596097770          61.4871079751      PH        B2 (3)
   69   102           2.2596097770          61.4871079751      PH        B1 (2)
   70    30           2.3302480307          63.4092725801     SG+        A1 (1)
   71   103           2.3444840993          63.7966557023      PI        B1 (2)
   72   155           2.3444840993          63.7966557023      PI        B2 (3)
   73    31           2.3795895925          64.7519247372      DE        A1 (1)
   74   199           2.3795895925          64.7519247373      DE        A2 (4)
   75   156           2.4028260938          65.3842220818      PH        B2 (3)
   76   104           2.4028260938          65.3842220818      PH        B1 (2)
   77    32           2.5364223916          69.0195621625     SG+        A1 (1)
   78   105           2.6101261535          71.0251434862      PI        B1 (2)
   79   157           2.6101261535          71.0251434862      PI        B2 (3)
   80   106           2.9450164393          80.1379714486      PI        B1 (2)
   81   158           2.9450164393          80.1379714486      PI        B2 (3)
   82    33           3.0818803564          83.8622279715     SG+        A1 (1)
   83   200           3.0937228145          84.1844776391      DE        A2 (4)
   84    34           3.0937228145          84.1844776392      DE        A1 (1)
   85    35           3.4206124624          93.0795971761     SG+        A1 (1)
   86    36           3.7481470680         101.9922669061      PI        A1 (1)
   87   201           3.7481470680         101.9922669061      PI        A2 (4)
   88   107           3.7614776716         102.3550110714      PI        B1 (2)
   89   159           3.7614776716         102.3550110715      PI        B2 (3)
   90    37           3.9813263989         108.3373990818     SG+        A1 (1)
   91   160           4.0715517997         110.7925570542      PH        B2 (3)
   92   108           4.0715517997         110.7925570542      PH        B1 (2)
   93   202           4.1777528396         113.6824342689      DE        A2 (4)
   94    38           4.1777528396         113.6824342689      DE        A1 (1)
   95   161           4.2104038308         114.5709129091      PI        B2 (3)
   96   109           4.2104038308         114.5709129091      PI        B1 (2)
   97    39           4.3094322861         117.2656141739     SG+        A1 (1)
   98   110           4.4063250265         119.9021996798      PH        B1 (2)
   99   162           4.4063250265         119.9021996798      PH        B2 (3)
  100    40           4.4280046439         120.4921320631      DE        A1 (1)
  101   203           4.4280046439         120.4921320631      DE        A2 (4)
  102    41           4.6728322832         127.1542308226     SG+        A1 (1)
  103   111           4.8130932629         130.9709261173      PI        B1 (2)
  104   163           4.8130932629         130.9709261174      PI        B2 (3)
  105    42           4.9863498829         135.6854784288     SG+        A1 (1)
  106    43           5.1940539511         141.3373934641      DE        A1 (1)
  107   204           5.1940539511         141.3373934644      DE        A2 (4)
  108   164           5.2700976276         143.4066471012      PI        B2 (3)
  109   112           5.2700976276         143.4066471013      PI        B1 (2)
  110   205           5.9168899935         161.0067621498      PI        A2 (4)
  111    44           5.9168899935         161.0067621498      PI        A1 (1)
  112   165           5.9318820270         161.4147161201      PI        B2 (3)
  113   113           5.9318820270         161.4147161201      PI        B1 (2)
  114    45           6.1682868807         167.8476192326     SG+        A1 (1)
  115    46           6.2287086254         169.4917784933     SG+        A1 (1)
  116   114           6.2466002349         169.9786339375      PH        B1 (2)
  117   166           6.2466002349         169.9786339375      PH        B2 (3)
  118    47           6.3287680027         172.2145325722      DE        A1 (1)
  119   206           6.3287680027         172.2145325722      DE        A2 (4)
  120   115           6.3645595609         173.1884703841      PI        B1 (2)
  121   167           6.3645595609         173.1884703841      PI        B2 (3)
  122   116           6.4739675609         176.1656134189      PH        B1 (2)
  123   168           6.4739675609         176.1656134189      PH        B2 (3)
  124   207           6.6733649039         181.5914909690      DE        A2 (4)
  125    48           6.6733649039         181.5914909692      DE        A1 (1)
  126    49           7.1355034595         194.1669203885     SG+        A1 (1)
  127   169           7.7632201693         211.2479604441      PI        B2 (3)
  128   117           7.7632201693         211.2479604441      PI        B1 (2)
  129    50           7.7874272707         211.9066691622      DE        A1 (1)
  130   208           7.7874272707         211.9066691625      DE        A2 (4)
  131    51           8.1495881502         221.7615677062     SG+        A1 (1)
  132    52           8.6494687415         235.3640101302     SG+        A1 (1)
  133   118           8.7993904128         239.4435862095      PI        B1 (2)
  134   170           8.7993904128         239.4435862096      PI        B2 (3)
  135    53          10.0359761839         273.0927957345     SG+        A1 (1)
  136   119          10.1347945080         275.7817790378      PI        B1 (2)
  137   171          10.1347945080         275.7817790382      PI        B2 (3)
  138    54          10.6013152468         288.4764537245      PI        A1 (1)
  139   209          10.6013152468         288.4764537245      PI        A2 (4)
  140   120          10.9718365307         298.5588504384      PH        B1 (2)
  141   172          10.9718365307         298.5588504384      PH        B2 (3)
  142   210          11.2570535861         306.3200010846      DE        A2 (4)
  143    55          11.2570535861         306.3200010846      DE        A1 (1)
  144    56          11.2969201674         307.4048259144     SG+        A1 (1)
  145   121          11.4215112331         310.7951211711      PI        B1 (2)
  146   173          11.4215112331         310.7951211711      PI        B2 (3)
  147   174          11.8610944641         322.7567890049      PH        B2 (3)
  148   122          11.8610944641         322.7567890049      PH        B1 (2)
  149    57          12.3110350067         335.0002936171     SG+        A1 (1)
  150   211          12.3994640826         337.4065711048      DE        A2 (4)
  151    58          12.3994640826         337.4065711052      DE        A1 (1)
  152   123          12.9287604739         351.8094581427      PI        B1 (2)
  153   175          12.9287604739         351.8094581427      PI        B2 (3)
  154   212          12.9940722588         353.5866821609      DE        A2 (4)
  155    59          12.9940722588         353.5866821609      DE        A1 (1)
  156    60          13.8182712535         376.0142770040     SG+        A1 (1)
  157   176          14.7826062389         402.2551660192      PI        B2 (3)
  158   124          14.7826062390         402.2551660193      PI        B1 (2)
  159    61          15.7974353659         429.8700704781     SG+        A1 (1)
  160    62          18.4184947661         501.1927227314     SG+        A1 (1)
  161   177          19.5920208624         533.1259912670      PI        B2 (3)
  162   125          19.5920208624         533.1259912675      PI        B1 (2)
  163    63          21.1603094780         575.8012940679     SG+        A1 (1)
  164   213          26.6629605561         725.5360422699      DE        A2 (4)
  165    64          26.6629605561         725.5360422699      DE        A1 (1)
  166   126          27.4046136619         745.7174492834      PI        B1 (2)
  167   178          27.4046136619         745.7174492834      PI        B2 (3)
  168    65          28.6775116984         780.3547657823     SG+        A1 (1)
  169   127          33.8806043761         921.9381155016      PI        B1 (2)
  170   179          33.8806043761         921.9381155022      PI        B2 (3)
  171    66          35.5321844395         966.8798938216     SG+        A1 (1)
  172    67          37.3222047450        1015.5888226488     SG+        A1 (1)
  173   214          47.1672689849        1283.4866402793      DE        A2 (4)
  174    68          47.1672689849        1283.4866402793      DE        A1 (1)
  175   180          48.0231229915        1306.7756117882      PI        B2 (3)
  176   128          48.0231229915        1306.7756117882      PI        B1 (2)
  177    69          48.7531396779        1326.6403757287     SG+        A1 (1)
  178    70          64.5620920319        1756.8238393872     SG+        A1 (1)
  179   181          67.0223272923        1823.7702443121      PI        B2 (3)
  180   129          67.0223272924        1823.7702443126      PI        B1 (2)
  181    71          68.1857534709        1855.4286801143     SG+        A1 (1)
  182   130          98.7310781066        2686.6092198533      PH        B1 (2)
  183   182          98.7310781066        2686.6092198533      PH        B2 (3)
  184    72          98.7672450796        2687.5933732231      DE        A1 (1)
  185   215          98.7672450796        2687.5933732231      DE        A2 (4)
  186   183          98.8413667752        2689.6103271002      PI        B2 (3)
  187   131          98.8413667752        2689.6103271002      PI        B1 (2)
  188    73          98.8670173991        2690.3083160619     SG+        A1 (1)
  189   132         103.2922399683        2810.7247440210      PH        B1 (2)
  190   184         103.2922399683        2810.7247440210      PH        B2 (3)
  191   216         103.3563246161        2812.4685759438      DE        A2 (4)
  192    74         103.3563246161        2812.4685759447      DE        A1 (1)
  193   185         103.4022492057        2813.7182475589      PI        B2 (3)
  194   133         103.4022492057        2813.7182475589      PI        B1 (2)
  195    75         103.4917369758        2816.1533335800     SG+        A1 (1)
  196    76         115.2842486552        3137.0438901378      DE        A1 (1)
  197   217         115.2842486552        3137.0438901378      DE        A2 (4)
  198   134         115.6444539387        3146.8455742088      PI        B1 (2)
  199   186         115.6444539387        3146.8455742089      PI        B2 (3)
  200    77         116.1972595559        3161.8881798047     SG+        A1 (1)
  201   135         117.1178798459        3186.9395314822      PI        B1 (2)
  202   187         117.1178798459        3186.9395314823      PI        B2 (3)
  203    78         118.6999523205        3229.9899121554     SG+        A1 (1)
  204    79         123.2102334562        3352.7209013807     SG+        A1 (1)
  205    80         198.6119208324        5404.5051255813      DE        A1 (1)
  206   218         198.6119208324        5404.5051255815      DE        A2 (4)
  207   188         199.0818410476        5417.2923047255      PI        B2 (3)
  208   136         199.0818410477        5417.2923047255      PI        B1 (2)
  209    81         199.4739493728        5427.9621146953     SG+        A1 (1)
  210    82         217.0025889121        5904.9406456811     SG+        A1 (1)
  211   189         225.4204566850        6134.0024730576      PI        B2 (3)
  212   137         225.4204566850        6134.0024730580      PI        B1 (2)
  213    83         226.3615899019        6159.6120098550     SG+        A1 (1)
  214   138         395.5630282768       10763.8172213045      PI        B1 (2)
  215   190         395.5630282768       10763.8172213046      PI        B2 (3)
  216    84         396.7422372178       10795.9051279064     SG+        A1 (1)
  217    85         509.6597175337       13868.5459773465     SG+        A1 (1)
  218    86         895.8485144633       24377.2773953813     SG+        A1 (1)


  VSCF finished.

 @CHECKOUT-I, Total execution time (CPU/WALL):       44.94/       8.78 seconds.
--executable xvscf finished with status     0 in        8.81 seconds (walltime).
 --invoking executable--
/nfs/workspaces/public/cfour_mpi/bin/xvtran
 @GETMEM-I,  Allocated    3814 MB of main memory.
  Full RHF integral transformation
  Transformation of IIII integrals :
  1 pass through the AO integral file was required.
     4650572 AO integrals were read.
     8874891 MO integrals were written to HF2.
  Transformation of IIJJ integrals :
  1 pass through the AO integral file was required.
    10498396 AO integrals were read.
    14686305 MO integrals were written to HF2.
  Transformation of IJIJ integrals :
  1 pass through the AO integral file was required.
    19908553 AO integrals were read.
    27711360 MO integrals were written to HF2.
  Transformation of IJKL integrals :
  1 pass through the AO integral file was required.
    14717509 AO integrals were read.
    18707961 MO integrals were written to HF2.
  Summary of active molecular orbitals: 
------------------------------------------------------------------------
 
  Index      Eigenvalue    Symmetry    Index      Eigenvalue    Symmetry
------------------------------------------------------------------------
     1       -20.6587851        1       110         4.2104038        2
     2       -11.3125000        1       111         4.4063250        2
     3        -1.5957519        1       112         4.8130933        2
     4        -0.8138657        1       113         5.2700976        2
     5        -0.5409000        1       114         5.9318820        2
     6        -0.6899440        2       115         6.2466002        2
     7        -0.6899440        3       116         6.3645596        2
     8         0.0586926        1       117         6.4739676        2
     9         0.0752839        1       118         7.7632202        2
    10         0.1565278        1       119         8.7993904        2
    11         0.2273834        1       120        10.1347945        2
    12         0.2275452        1       121        10.9718365        2
    13         0.3018060        1       122        11.4215112        2
    14         0.3951843        1       123        11.8610945        2
    15         0.5082363        1       124        12.9287605        2
    16         0.5270052        1       125        14.7826062        2
    17         0.6613918        1       126        19.5920209        2
    18         0.7704937        1       127        27.4046137        2
    19         0.7858484        1       128        33.8806044        2
    20         0.8761567        1       129        48.0231230        2
    21         0.8991467        1       130        67.0223273        2
    22         0.9487645        1       131        98.7310781        2
    23         1.2909026        1       132        98.8413668        2
    24         1.5036376        1       133       103.2922400        2
    25         1.5292318        1       134       103.4022492        2
    26         1.6570975        1       135       115.6444539        2
    27         1.7527467        1       136       117.1178798        2
    28         1.7764367        1       137       199.0818410        2
    29         2.1118573        1       138       225.4204567        2
    30         2.1976878        1       139       395.5630283        2
    31         2.2196023        1       140         0.0642776        3
    32         2.3302480        1       141         0.1545865        3
    33         2.3795896        1       142         0.1825377        3
    34         2.5364224        1       143         0.3329592        3
    35         3.0818804        1       144         0.3999451        3
    36         3.0937228        1       145         0.6198441        3
    37         3.4206125        1       146         0.7499438        3
    38         3.7481471        1       147         0.8365993        3
    39         3.9813264        1       148         0.8740824        3
    40         4.1777528        1       149         1.1034384        3
    41         4.3094323        1       150         1.4548745        3
    42         4.4280046        1       151         1.5369236        3
    43         4.6728323        1       152         1.8692645        3
    44         4.9863499        1       153         1.9514789        3
    45         5.1940540        1       154         2.2596098        3
    46         5.9168900        1       155         2.3444841        3
    47         6.1682869        1       156         2.4028261        3
    48         6.2287086        1       157         2.6101262        3
    49         6.3287680        1       158         2.9450164        3
    50         6.6733649        1       159         3.7614777        3
    51         7.1355035        1       160         4.0715518        3
    52         7.7874273        1       161         4.2104038        3
    53         8.1495882        1       162         4.4063250        3
    54         8.6494687        1       163         4.8130933        3
    55        10.0359762        1       164         5.2700976        3
    56        10.6013152        1       165         5.9318820        3
    57        11.2570536        1       166         6.2466002        3
    58        11.2969202        1       167         6.3645596        3
    59        12.3110350        1       168         6.4739676        3
    60        12.3994641        1       169         7.7632202        3
    61        12.9940723        1       170         8.7993904        3
    62        13.8182713        1       171        10.1347945        3
    63        15.7974354        1       172        10.9718365        3
    64        18.4184948        1       173        11.4215112        3
    65        21.1603095        1       174        11.8610945        3
    66        26.6629606        1       175        12.9287605        3
    67        28.6775117        1       176        14.7826062        3
    68        35.5321844        1       177        19.5920209        3
    69        37.3222047        1       178        27.4046137        3
    70        47.1672690        1       179        33.8806044        3
    71        48.7531397        1       180        48.0231230        3
    72        64.5620920        1       181        67.0223273        3
    73        68.1857535        1       182        98.7310781        3
    74        98.7672451        1       183        98.8413668        3
    75        98.8670174        1       184       103.2922400        3
    76       103.3563246        1       185       103.4022492        3
    77       103.4917370        1       186       115.6444539        3
    78       115.2842487        1       187       117.1178798        3
    79       116.1972596        1       188       199.0818410        3
    80       118.6999523        1       189       225.4204567        3
    81       123.2102335        1       190       395.5630283        3
    82       198.6119208        1       191         0.2275452        4
    83       199.4739494        1       192         0.5270052        4
    84       217.0025889        1       193         0.7704937        4
    85       226.3615899        1       194         0.8991467        4
    86       396.7422372        1       195         1.5036376        4
    87       509.6597175        1       196         1.7764367        4
    88       895.8485145        1       197         2.1118573        4
    89         0.0642776        2       198         2.2196023        4
    90         0.1545865        2       199         2.3795896        4
    91         0.1825377        2       200         3.0937228        4
    92         0.3329592        2       201         3.7481471        4
    93         0.3999451        2       202         4.1777528        4
    94         0.6198441        2       203         4.4280046        4
    95         0.7499438        2       204         5.1940540        4
    96         0.8365993        2       205         5.9168900        4
    97         0.8740824        2       206         6.3287680        4
    98         1.1034384        2       207         6.6733649        4
    99         1.4548745        2       208         7.7874273        4
   100         1.5369236        2       209        10.6013152        4
   101         1.8692645        2       210        11.2570536        4
   102         1.9514789        2       211        12.3994641        4
   103         2.2596098        2       212        12.9940723        4
   104         2.3444841        2       213        26.6629606        4
   105         2.4028261        2       214        47.1672690        4
   106         2.6101262        2       215        98.7672451        4
   107         2.9450164        2       216       103.3563246        4
   108         3.7614777        2       217       115.2842487        4
   109         4.0715518        2       218       198.6119208        4
------------------------------------------------------------------------
  -20.6587850701325       -11.3125000160061       -1.59575191773722     
 -0.813865674493559      -0.540900013894906      -0.689944041911833     
 -0.689944041911788       5.869255253579884E-002  7.528394300381967E-002
  0.156527804223192       0.227383358446060       0.227545249339428     
  0.301806000331138       0.395184308535960       0.508236338780064     
  0.527005162484950       0.661391774365446       0.770493711093026     
  0.785848436799456       0.876156700798666       0.899146679171553     
  0.948764476686778        1.29090256724056        1.50363763789313     
   1.52923180527165        1.65709749534058        1.75274667646983     
   1.77643669236579        2.11185732643253        2.19768784949152     
   2.21960225776680        2.33024803068793        2.37958959253960     
   2.53642239161241        3.08188035642278        3.09372281451814     
   3.42061246236181        3.74814706796934        3.98132639892845     
   4.17775283960379        4.30943228611883        4.42800464393484     
   4.67283228321965        4.98634988285146        5.19405395111428     
   5.91688999353726        6.16828688072420        6.22870862542504     
   6.32876800273931        6.67336490393779        7.13550345950113     
   7.78742727068226        8.14958815016439        8.64946874146228     
   10.0359761839424        10.6013152467837        11.2570535860579     
   11.2969201674029        12.3110350066618        12.3994640825631     
   12.9940722587773        13.8182712534913        15.7974353658973     
   18.4184947661054        21.1603094779788        26.6629605560561     
   28.6775116983673        35.5321844394565        37.3222047449751     
   47.1672689849110        48.7531396778862        64.5620920319415     
   68.1857534708904        98.7672450796120        98.8670173991178     
   103.356324616141        103.491736975785        115.284248655209     
   116.197259555893        118.699952320519        123.210233456220     
[...]
 Convergence information after     8 iterations: 
 Largest element of residual vector : -0.19986570E-04.
 Largest element of DIIS residual   :  0.14807901E-04.
 Convergence information after     9 iterations: 
 Largest element of residual vector :  0.69190728E-05.
 Largest element of DIIS residual   :  0.35509540E-05.
 Convergence information after    10 iterations: 
 Largest element of residual vector :  0.28812143E-05.
 Largest element of DIIS residual   :  0.17840419E-05.
 Convergence information after    11 iterations: 
 Largest element of residual vector :  0.89813650E-06.
 Largest element of DIIS residual   :  0.45910820E-06.
 Convergence information after    12 iterations: 
 Largest element of residual vector :  0.38018942E-06.
 Largest element of DIIS residual   :  0.24003204E-06.
 Convergence information after    13 iterations: 
 Largest element of residual vector :  0.15578813E-06.
 Largest element of DIIS residual   :  0.13968740E-06.
 Convergence information after    14 iterations: 
 Largest element of residual vector :  0.99677691E-07.
 Largest element of DIIS residual   :  0.69691135E-07.
 Perturbed amplitude equations converged in    14 iterations.
  Dominant contributions to perturbed wavefunction:
    7    7  142   37   0.2587917538 ABAB
    7    7   37  142   0.2587917538 ABAB
    7    7  142   27   0.2187204543 ABAB
    7    7   27  142   0.2187204543 ABAB
    7    7  142   63   0.2047128546 ABAB
    7    7   63  142   0.2047128546 ABAB
    7    7  142   55   0.1888218920 ABAB
    7    7   55  142   0.1888218920 ABAB
    7    7  142   47   0.1793702229 ABAB
    7    7   47  142   0.1793702229 ABAB
    7    6   37   91   0.1759730025 ABAB
    6    7   91   37   0.1759730025 ABAB
    7    7  142   51  -0.1493368729 ABAB
    7    7   51  142  -0.1493368729 ABAB
    7    6   27   91   0.1481261308 ABAB
    6    7   91   27   0.1481261308 ABAB
    7    7  143   37   0.1460193675 ABAB
    7    7   37  143   0.1460193675 ABAB
    7    7  142   43   0.1408185424 ABAB
    7    7   43  142   0.1408185424 ABAB
  norm of converged amps    2.74568420935074     
 Starting iterative solution of the perturbed Lambda equations.
 The DIIS procedure is used to accelerate convergence.
 Convergence criterion is 10**(-7).
 Maximum number of iterations is 100.
 Convergence information after     1 iterations: 
 Largest element of residual vector : -0.63761209E-01.
 Largest element of DIIS residual   : -0.63761209E-01.
 Convergence information after     2 iterations: 
 Largest element of residual vector :  0.62141564E-02.
 Largest element of DIIS residual   :  0.58190770E-02.
 Convergence information after     3 iterations: 
 Largest element of residual vector : -0.38074473E-02.
 Largest element of DIIS residual   : -0.34041276E-02.
 Convergence information after     4 iterations: 
 Largest element of residual vector : -0.23871971E-02.
 Largest element of DIIS residual   : -0.18160796E-02.
 Convergence information after     5 iterations: 
 Largest element of residual vector : -0.12984383E-02.
 Largest element of DIIS residual   : -0.58710447E-03.
 Convergence information after     6 iterations: 
 Largest element of residual vector : -0.40645447E-03.
 Largest element of DIIS residual   : -0.96718363E-04.
 Convergence information after     7 iterations: 
 Largest element of residual vector : -0.68270721E-04.
 Largest element of DIIS residual   : -0.31282940E-04.
 Convergence information after     8 iterations: 
 Largest element of residual vector : -0.15736344E-04.
 Largest element of DIIS residual   :  0.12571721E-04.
 Convergence information after     9 iterations: 
 Largest element of residual vector :  0.59788890E-05.
 Largest element of DIIS residual   :  0.30736715E-05.
 Convergence information after    10 iterations: 
 Largest element of residual vector :  0.24492627E-05.
 Largest element of DIIS residual   :  0.15407539E-05.
 Convergence information after    11 iterations: 
 Largest element of residual vector :  0.78454311E-06.
 Largest element of DIIS residual   :  0.43472904E-06.
 Convergence information after    12 iterations: 
 Largest element of residual vector :  0.34504724E-06.
 Largest element of DIIS residual   :  0.22481482E-06.
 Convergence information after    13 iterations: 
 Largest element of residual vector :  0.14603932E-06.
 Largest element of DIIS residual   :  0.12923364E-06.
 Convergence information after    14 iterations: 
 Largest element of residual vector :  0.92316189E-07.
 Largest element of DIIS residual   :  0.64230647E-07.
 Perturbed Lambda equations converged in    14 iterations.
  Dominant contributions to perturbed wavefunction:
    7    7  142   37   0.2482833923 ABAB
    7    7   37  142   0.2482833923 ABAB
    7    7  142   27   0.2090731722 ABAB
    7    7   27  142   0.2090731722 ABAB
    7    7  142   63   0.1960895747 ABAB
    7    7   63  142   0.1960895747 ABAB
    7    7  142   55   0.1797103374 ABAB
    7    7   55  142   0.1797103374 ABAB
    7    7  142   47   0.1717553293 ABAB
    7    7   47  142   0.1717553293 ABAB
    7    6   37   91   0.1670367177 ABAB
    6    7   91   37   0.1670367177 ABAB
    7    7  142   51  -0.1433931379 ABAB
    7    7   51  142  -0.1433931379 ABAB
    7    7  143   37   0.1407897405 ABAB
    7    7   37  143   0.1407897405 ABAB
    7    6   27   91   0.1398947244 ABAB
    6    7   91   27   0.1398947244 ABAB
    7    7  142   43   0.1333961841 ABAB
    7    7   43  142   0.1333961841 ABAB
        The DBOC first-order density matrix is being calculated 
             (Symmetry block 3, perturbation   2)
 term   8.95983909902851     
 final tnorm  0.899727800806981     
  norm contr. I: |<0|L dT/dx|0>|^2   0.000000000000000E+000
  norm contr. II: <0|[nabla(1+L)e-T][nabla e^T]|0>   8.95983909902851     
  total norm contribution   8.95983909902851     
 oo  1.345669926488081E-002
 vv  -67.3038716108397     
 vo  2.353786572901401E-002
  Correlated perturbed 1-el contribution to DBOC  -67.2668770458458       cm**-1
  SUM_I |dc_I/dx|^2 contribution to DBOC   33.7311923369961       cm**-1
 
 
  The total diagonal Born-Oppenheimer correction (DBOC) is:      0.0040200971 a.u.
  The total diagonal Born-Oppenheimer correction (DBOC) is:        882.309338 cm-1
 
 Total CC energy including DBOC  -113.253655267957     
 First-order density matrix is being calculated  (Symmetry block 3, perturbation   2)
 Calculation of the contributions of <pq||rs> to dI(i,j)/dx required   1.8 seconds.
 Calculation of the contributions of <pq||rs> to dI(a,b)/dx required  16.0 seconds.
 Calculation of the contributions of <pq||rs> to dI(i,a)/dx required   9.5 seconds.
 First-order Z-vector equations are solved for 1 perturbation.
 Convergence reached after  17 iterations.
        U*G(pq,rs) contribution is being calculated
             (Symmetry block 3, perturbation   2)

 CCSD contribution to force constants 

        0.0000000000        0.0000000000        0.0000000000
        0.0000000000        0.0000000000        0.0000000000
        0.0000000000        0.0000000000        0.0000000000
        0.0000000000        0.0000000000        0.0000000000
        0.0000000000        0.0000000000        0.0000000000
        0.0000000000        0.0000000000        0.0000000000
        0.0000000000        0.0000000000        0.0000000000
        0.0000000000        0.0000000000        0.0000000000
        0.0000000000        0.0000000000        0.0000000000
        0.0000000000        0.0000000000        0.0000000000
        0.0000000000        0.0000000000        0.0000000000
        0.0000000000       -8.6966564396        8.6966564396

 CCSD contribution to dipole derivatives 

        0.0000000000        0.0000000000        0.0000000000
        0.0000000000        0.0000000000        0.0000000000
        0.0000000000        0.0000000000        0.0000000000
        0.0000000000        0.0000000000       -0.0398903359
        0.0000000000        0.0000000000        0.0000000000
        0.0000000000        0.0000000000        0.0000000000
 @CHECKOUT-I, Total execution time (CPU/WALL):      988.15/     271.38 seconds.
--executable xsdcc finished with status     0 in      271.42 seconds (walltime).
 --invoking executable--
/nfs/workspaces/public/cfour_mpi/bin/xanti
 @GETMEM-I,  Allocated    3814 MB of main memory.
 CCSD MO derivative gammas will be sorted to Mulliken order.
 @CHECKOUT-I, Total execution time (CPU/WALL):        8.95/      10.46 seconds.
--executable xanti finished with status     0 in       10.48 seconds (walltime).
 --invoking executable--
/nfs/workspaces/public/cfour_mpi/bin/xbcktrn
 @GETMEM-I,  Allocated    3814 MB of main memory.
 CCSD MO derivative gammas will be transformed to the AO basis.
 @CHECKOUT-I, Total execution time (CPU/WALL):       19.09/       4.34 seconds.
--executable xbcktrn finished with status     0 in        4.35 seconds (walltime).
 --invoking executable--
/nfs/workspaces/public/cfour_mpi/bin/xvdint
 @GETMEM-I,  Allocated    3814 MB of main memory.
 One- and two-electron integral derivatives are calculated
 for RHF-CC/MBPT hessians and dipole derivatives.
 Spherical gaussians are used.
  magnet F F
                    8722  records have been written to the Sort file.
  Total length of Sort file :             178609116  words.
 Evaluation of 2el integral derivatives

                      Two-electron integral gradient
                      ------------------------------

                         C #1 z     0.0000000000
                         O #2 z     0.0000000000


 C #1       0.0000000000           -1.2090353033            0.0000000000
 O #2       0.0000000000            1.2090353033            0.0000000000


 Evaluation of 2e integral derivatives required  322.03 seconds.
  contribution to Hessian
        0.0000000000        0.0000000000        0.0000000000
        0.0000000000       -1.2090353033        1.2090353033
 @CHECKOUT-I, Total execution time (CPU/WALL):      322.02/      66.21 seconds.
--executable xvdint finished with status     0 in       66.23 seconds (walltime).
 --invoking executable--
/nfs/workspaces/public/cfour_mpi/bin/xanti
 @GETMEM-I,  Allocated    3814 MB of main memory.
 CCSD MO gammas will be sorted to Mulliken order.
 @CHECKOUT-I, Total execution time (CPU/WALL):       10.96/       9.58 seconds.
--executable xanti finished with status     0 in        9.60 seconds (walltime).
 --invoking executable--
/nfs/workspaces/public/cfour_mpi/bin/xbcktrn
 @GETMEM-I,  Allocated    3814 MB of main memory.
 CCSD MO gammas will be transformed to the AO basis.
 @CHECKOUT-I, Total execution time (CPU/WALL):       30.19/       4.81 seconds.
--executable xbcktrn finished with status     0 in        4.83 seconds (walltime).
 --invoking executable--
/nfs/workspaces/public/cfour_mpi/bin/xvdint
 @GETMEM-I,  Allocated    3814 MB of main memory.
 One- and two-electron integral derivatives are calculated
 for RHF-CC/MBPT hessians and dipole derivatives.
 Spherical gaussians are used.
  magnet F F

                     Kinetic energy integral gradient
                     --------------------------------

                         C #1 z    -1.8200214597
                         O #2 z     1.8200214597


 C #1       0.0000000000            0.0000000000           -1.8200214597
 O #2       0.0000000000            0.0000000000            1.8200214597



                   Nuclear attraction integral gradient
                   ------------------------------------

                         C #1 z    26.4320348485
                         O #2 z   -26.4320348485


 C #1       0.0000000000            0.0000000000           26.4320348485
 O #2       0.0000000000            0.0000000000          -26.4320348485



                      Reorthonormalization gradient
                      -----------------------------

                         C #1 z     0.0000000000
                         O #2 z     0.0000000000


 C #1       0.0000000000            0.0000000000            0.0000000000
 O #2       0.0000000000            0.0000000000            0.0000000000



                     Kinetic energy integral Hessian
                     -------------------------------


           Symmetry 1

           C #1 z      O #2 z

 C #1 z    0.882983
 O #2 z   -0.882983    0.882983


           Symmetry 2

           C #1 x      O #2 x

 C #1 x   -2.912401
 O #2 x    2.912401   -2.912401


           Symmetry 3

           C #1 y      O #2 y

 C #1 y   -2.912401
 O #2 y    2.912401   -2.912401




           C #1 x      C #1 y      C #1 z      O #2 x      O #2 y      O #2 z

 C #1 x   -2.912401
 C #1 y    0.000000   -2.912401
 C #1 z    0.000000    0.000000    0.882983

 O #2 x    2.912401    0.000000    0.000000   -2.912401
 O #2 y    0.000000    2.912401    0.000000    0.000000   -2.912401
 O #2 z    0.000000    0.000000   -0.882983    0.000000    0.000000    0.882983




                   Nuclear attraction integral Hessian
                   -----------------------------------


           Symmetry 1

           C #1 z      O #2 z

 C #1 z  -13.186094
 O #2 z   13.186094  -13.186094


           Symmetry 2

           C #1 x      O #2 x

 C #1 x   27.595319
 O #2 x  -27.595319   27.595319


           Symmetry 3

           C #1 y      O #2 y

 C #1 y   27.595319
 O #2 y  -27.595319   27.595319




           C #1 x      C #1 y      C #1 z      O #2 x      O #2 y      O #2 z

 C #1 x   27.595319
 C #1 y    0.000000   27.595319
 C #1 z    0.000000    0.000000  -13.186094

 O #2 x  -27.595319    0.000000    0.000000   27.595319
 O #2 y    0.000000  -27.595319    0.000000    0.000000   27.595319
 O #2 z    0.000000    0.000000   13.186094    0.000000    0.000000  -13.186094




                Highest order reorthonormalization Hessian
                ------------------------------------------


           Symmetry 1

           C #1 z      O #2 z

 C #1 z    0.000000
 O #2 z    0.000000    0.000000


           Symmetry 2

           C #1 x      O #2 x

 C #1 x    0.000000
 O #2 x    0.000000    0.000000


           Symmetry 3

           C #1 y      O #2 y

 C #1 y    0.000000
 O #2 y    0.000000    0.000000




           C #1 x      C #1 y      C #1 z      O #2 x      O #2 y      O #2 z




                Electronic contributions to dipole moment
                -----------------------------------------

                               au             Debye

                    z      0.35271052      0.89650087

  Conversion factor used: 1 a.u. =   2.54174691 Debye 



   Electronic contributions to static part of dipole moment derivatives
   --------------------------------------------------------------------


                     Total dipole moment derivatives
                     -------------------------------


           Symmetry 1
                              Ez

               C #1 z    -5.80504374
               O #2 z    -8.19495626

           Symmetry 2
                              Ex

               C #1 x    -5.86365635
               O #2 x    -8.13634365

           Symmetry 3
                              Ey

               C #1 y    -5.86365635
               O #2 y    -8.13634365



                       Ex          Ey          Ez

      C #1    x   -5.863656    0.000000    0.000000
      C #1    y    0.000000   -5.863656    0.000000
      C #1    z    0.000000    0.000000   -5.805044

      O #2    x   -8.136344    0.000000    0.000000
      O #2    y    0.000000   -8.136344    0.000000
      O #2    z    0.000000    0.000000   -8.194956

 Evaluation of 1e integral derivatives required    1.85 seconds.
                    8815  records have been written to the Sort file.
  Total length of Sort file :             180513570  words.
 Evaluation of 2el integral derivatives

                      Two-electron integral gradient
                      ------------------------------

                         C #1 z   -11.7904631671
                         O #2 z    11.7904631671


 C #1       0.0000000000            0.0000000000          -11.7904631671
 O #2       0.0000000000            0.0000000000           11.7904631671


 Evaluation of 2e integral derivatives required  706.30 seconds.

                            Molecular gradient
                            ------------------

                         C #1 z     0.0063198269
                         O #2 z    -0.0063198269


 C #1       0.0000000000            0.0000000000            0.0063198269
 O #2       0.0000000000            0.0000000000           -0.0063198269


  Molecular gradient norm 0.894E-02

                            Molecular hessian
                            -----------------


           Symmetry 1

           C #1 z      O #2 z

 C #1 z   86.887503
 O #2 z  -86.887503   86.887503


           Symmetry 2

           C #1 x      O #2 x

 C #1 x    9.523580
 O #2 x   -9.523580    9.523580


           Symmetry 3

           C #1 y      O #2 y

 C #1 y    9.523580
 O #2 y   -9.523580    9.523580




           C #1 x      C #1 y      C #1 z      O #2 x      O #2 y      O #2 z

 C #1 x    9.523580
 C #1 y    0.000000    9.523580
 C #1 z    0.000000    0.000000   86.887503

 O #2 x   -9.523580    0.000000    0.000000    9.523580
 O #2 y    0.000000   -9.523580    0.000000    0.000000    9.523580
 O #2 z    0.000000    0.000000  -86.887503    0.000000    0.000000   86.887503




                           Total dipole moment
                           -------------------

                               au             Debye

                    z     -0.18503599     -0.47031467

  Conversion factor used: 1 a.u. =   2.54174691 Debye 



                     Total dipole moment derivatives
                     -------------------------------


           Symmetry 1
                              Ez

               C #1 z     0.68391844
               O #2 z    -0.68391844

           Symmetry 2
                              Ex

               C #1 x    -0.09665524
               O #2 x     0.09665524

           Symmetry 3
                              Ey

               C #1 y    -0.09665524
               O #2 y     0.09665524



                       Ex          Ey          Ez

      C #1    x   -0.096655    0.000000    0.000000
      C #1    y    0.000000   -0.096655    0.000000
      C #1    z    0.000000    0.000000    0.683918

      O #2    x    0.096655    0.000000    0.000000
      O #2    y    0.000000    0.096655    0.000000
      O #2    z    0.000000    0.000000   -0.683918

 @CHECKOUT-I, Total execution time (CPU/WALL):      708.14/     118.04 seconds.
--executable xvdint finished with status     0 in      118.06 seconds (walltime).
 --invoking executable--
/nfs/workspaces/public/cfour_mpi/bin/xjoda
  @GTFLGS-I, Hessian will be transformed to curvilinear coordinates.
  @GTFLGS-I, Hessian will be transformed to curvilinear coordinates.
  igrd and ihes are                      0                     1
  gradient from JOBARC 
   0.000000000000000   0.000000000000000   0.006319826925280
   0.000000000000000   0.000000000000000  -0.006319826925280
 
  @PROJFCM-I, Projecting force constant matrix onto totally symmetric subspace.
  Largest difference between matrix elements of symmetrized
  and unsymmetrized FCM :     0.7566924864E-10.
  read isotopes from ZMAT file 
 
  Summary of diagonal Born-Oppenheimer correction at the correlated level
  The total diagonal Born-Oppenheimer correction (DBOC) is:      0.0040200971 a.u.
  The total diagonal Born-Oppenheimer correction (DBOC) is:        882.309338 cm-1
  The total diagonal Born-Oppenheimer correction (DBOC) is:            10.555 kJ/mole
  hellooooooo 
  readis is  F
 
 @CHECKOUT-I, Total execution time (CPU/WALL):        0.01/       0.03 seconds.
--executable xjoda finished with status     0 in        0.06 seconds (walltime).
  The final electronic energy is      -113.253655267956646 a.u. 
  This computation required                         2561.62 seconds (walltime).
