 --invoking executable--
/nfs/workspaces/public/cfour_mpi/bin/xjoda


   *************************************************************************
         <<<     CCCCCC     CCCCCC   |||     CCCCCC     CCCCCC   >>>
       <<<      CCC        CCC       |||    CCC        CCC         >>>
      <<<      CCC        CCC        |||   CCC        CCC            >>>
    <<<        CCC        CCC        |||   CCC        CCC              >>>
      <<<      CCC        CCC        |||   CCC        CCC            >>>
       <<<      CCC        CCC       |||    CCC        CCC         >>>
         <<<     CCCCCC     CCCCCC   |||     CCCCCC     CCCCCC   >>>
   *************************************************************************

     ****************************************************************
     * CFOUR Coupled-Cluster techniques for Computational Chemistry *
     ****************************************************************
 

   Department of Chemistry                Institut fuer Physikalische Chemie
   University of Florida                  Universitaet Mainz
   Gainesville, FL 32611, USA             D-55099 Mainz, Germany

   Department of Chemistry                Fakultaet fuer Chemie und Biowiss.
   Johns Hopkins University               Karlsruher Institut fuer Technologie
   Baltimore, MD 21218, USA               D-76131 Karlsruhe, Germany

   Department of Chemistry                Department of Physical Chemistry
   Southern Methodist University          Eotvos Lorand University
   Dallas, TX 75275, USA                  H-1053 Budapest, Hungary

 
                       Version 2.1
 
                     vincent.theory.phys.ucl.ac.uk                     
                     Fri 28 Feb 05:32:43 GMT 2025                      
                     integer*8 version is running
 
********************************************************************************
*                          Input from ZMAT file                                *
********************************************************************************
Carbon Monoxide DBOC calculation                                                
C                                                                               
O 1 r                                                                           
                                                                                
r=1.5517241379310345                                                            
                                                                                
                                                                                
*CFOUR(CALC=CCSD,BASIS=AUG-PCVQZ,SCF_CONV=10                                    
CC_CONV=14,DBOC=ON,MEMORY=500000000                                             
ZFIELD=200)                                                                     
                                                                                
%isotopes                                                                       
13                                                                              
16                                                                              
********************************************************************************
  @GTFLGS-I, Hessian will be transformed to curvilinear coordinates.
    -------------------------------------------------------------------
                    CFOUR Control Parameters 
    -------------------------------------------------------------------
        External           Internal           Value            Units
          Name               Name
    -------------------------------------------------------------------
       ABCDTYPE             IABCDT         STANDARD    [  0]    ***   
       ANHARMONIC           IANHAR         OFF         [  0]    ***   
       ANH_ALGORIT          IANALG         STANDARD    [  0]    ***   
       ANH_DERIVAT          IANDER         SECOND      [  1]    ***   
       ANH_MODE             ANHMOD         VIBRATION   [  0]    ***   
       ANH_STEPSIZ          ICUBST             50000          x 10-6  
       ANH_SYMMETR          IANHSM         ABELIAN     [  0]    ***   
       AO_LADDERS           IAOLAD         SINGLEPASS  [  1]    ***   
       AV_SCF               IAVSCF         OFF         [  0]    ***   
       BASIS                IBASIS         AUG-PCVQZ   [ 52]    ***   
       BOTHVECTORS          BOTHVC         OFF         [  0]    ***   
       BOX_POTENT           IPIAB          OFF         [  0]    ***   
       BREIT                IBREIT         OFF         [  0]    ***   
       BRUCK_CONV           IBRTOL          10D-  4             ***   
       BRUECKNER            IBRKNR         OFF         [  0]    ***   
       BUFFERSIZE           IBUFFS              4096            ***   
       CACHE_RECS           ICHREC             10               ***   
       CALCLEVEL            ICLLVL         CCSD        [ 10]    ***   
       CCORBOPT             ICCORB         OFF         [  0]  x 0.01  
       CC_CONV              ICCCNV          10D- 14             ***   
       CC_EXPORDER          ICCEOR              5               ***   
       CC_EXTRAPOL          ICCEXT         DIIS        [  1]    ***   
       CC_GUESS             ICCGES         MP2         [  0]    ***   
       CC_MAXCYC            ICCCYC            100              cycles 
       CC_PROGRAM           ICCPRO         VCC         [  0]    ***   
       CHARGE               ICHRGE              0               ***   
       CHOLESKY             ICHOLE         OFF         [  0]    ***   
       CIS_CONV             ICISTL              5               ***   
       COMM_SIZE            IPSIZE            ***               ***   
       CONSTANT             ICONST         OLD         [  1]    ***   
       CONTINUUM            ICONTU         NONE        [  0]    ***   
       CONTRACTION          ICNTYP         GENERAL     [  1]    ***   
       COORDINATES          ICOORD         INTERNAL    [  0]    ***   
       CPHF_CONVER          ICPHFT          10D- 16             ***   
       CPHF_MAXCYC          ICPHFC             64              cycles 
       CUBIC                ICUBIC         OFF         [  0]    ***   
       CURVILINEAR          ICURVY         ON          [  1]    ***   
       DBOC                 IDBOC          ON          [  1]    ***   
       DCT                  IDCT           OFF         [  0]    ***   
       DERIV_LEV            IDRLVL         SECOND      [  2]    ***   
       DEVMEM_SIZE          IDVMEM          50000000           MByte  
       DIAG_MRCC            IEOMST          10D-  0             ***   
       DIFF_TYPE            IDIFTY         RELAXED     [  0]    ***   
       DIRECT               IDIRCT         OFF         [  0]    ***   
       DROPMO               IDRPMO      NONE         
       ECP                  IECP           OFF         [  0]    ***   
       EIGENVECTOR          IVEC                1               ***   
       EL_ANHARM            IELANH         OFF         [  0]    ***   
       EOMFOLLOW            IEOMSR         ENERGY      [  0]    ***   
       EOMIP                IEOMIP         OFF         [  0]    ***   
       EOMLEVEL             HBARFM         SAME        [  0]    ***   
       EOM_MRCC             IMRCCE         NEW         [  1]    ***   
       EOM_NONIT            EOMNON         OFF         [  0]    ***   
       EOM_NSING            IEOMSI          10D-  0             ***   
       EOM_NSTATES          IMRCCD         DAVIDSON    [  0]    ***   
       EOM_NTRIP            IEOMTR          10D-  0             ***   
       EOM_ORDER            IEXORD         ENERGY      [  0]    ***   
       EOM_PROPSTA          IEOMST              0               ***   
       ESTATE_CONV          IEXTOL          10D-  5             ***   
       ESTATE_DIAG          IEXDIG         ITERATIVE   [  0]    ***   
       ESTATE_LOCK          IESLOC         ON          [  1]    ***   
       ESTATE_MAXC          IEXMXC             40               ***   
       ESTATE_PROP          IEXPRP         OFF         [  0]    ***   
       EVAL_HESS            IRECAL              0            # of cyc.
       EXCITATION           IEXCIT              0               ***   
       EXCITE               IEXCIT         NONE        [  0]    ***   
       EXTERN_POT           IEXPOT         OFF         [  0]    ***   
       FCGRADNEW            IFCGNW         OFF         [  0]    ***   
       FC_FIELD             IFINFC              0             x 10-6  
       FD_CALTYPE           IFDCAL         GRADONLY    [  0]    ***   
       FD_PROJECT           IFDPRJ         OFF         [  1]    ***   
       FD_STEPSIZE          IDISFD              0            10-4 bohr
       FD_USEGROUP          IFDGRP         FULL        [  0]    ***   
       FILE_RECSIZ          IFLREC              4096           words  
       FINITE_PERT          IFIPER              0             x 10-6  
       FIXGEOM              IFIXGM         OFF         [  0]    ***   
       FOCK                 IFOCK          AO          [  1]    ***   
       FREQ_ALGORI          IVIALG         STANDARD    [  0]    ***   
       FROZEN_CORE          IFROCO         OFF         [  0]    ***   
       GAMMA_ABCD           IGABCD         STORE       [  0]    ***   
       GAMMA_ABCI           IGABCI         STORE       [  0]    ***   
       GENBAS_1             IGNBS1              0               ***   
       GENBAS_2             IGNBS2              0               ***   
       GENBAS_3             IGNBS3              0               ***   
       GENBAS_4             IGNBS4              0               ***   
       GEO_CONV             ICONTL              5              H/bohr 
       GEO_MAXCYC           IOPTCY             50               ***   
       GEO_MAXSTEP          IMXSTP            300            millibohr
       GEO_METHOD           INR            SINGLE_POINT[  5]    ***   
       GIAO                 IGIAO          OFF         [  1]    ***   
       GIMIC                IGIMIC         OFF         [  0]    ***   
       GRID                 IGRID          OFF         [  0]    ***   
       GRID_ALGO            IGALGO         SERIAL      [  0]    ***   
       GUESS                IGUESS         MOREAD      [  0]    ***   
       HBAR                 IHBAR          OFF         [  0]    ***   
       HESS_TYPE            IHESTP         SCF         [  0]    ***   
       HF2_FILE             IHF2Fl         USE         [  1]    ***   
       HFSTABILITY          ISTABL         OFF         [  0]    ***   
       INCORE               INCORE         OFF         [  0]    ***   
       INPUT_MRCC           IMRCC          ON          [  1]    ***   
       INTEGRALS            INTTYP         VMOL        [  1]    ***   
       JODA_PRINT           IJPRNT              0               ***   
       KEYWORD_OUT          IDMPKW         NO          [  0]    ***   
       LINDEP_TOL           ILINDP              8               ***   
       LINEQ_CONV           IZTACN          10D-  7           cycles  
       LINEQ_EXPOR          ILMAXD              5               ***   
       LINEQ_MAXCY          ILMAXC            100               ***   
       LINEQ_TYPE           ILTYPE         DIIS        [  1]    ***   
       LOCK_ORBOCC          ILOCOC         OFF         [  0]    ***   
       MEMORY_SIZE          IMEMSZ         500000000           words  
       MEM_UNIT             IMEMU          INTEGERWORDS[  0]    ***   
       MRCC                 IMRCCC         OFF         [  0]    ***   
       MULTIPLICTY          IMULTP              1               ***   
       NACOUPLING           IVCOUP         OFF         [  0]    ***   
       NEGEVAL              IDIE           ABORT       [  0]    ***   
       NEWNORM              INEWNO         OFF         [  0]    ***   
       NON-HF               INONHF         OFF         [  0]    ***   
       NTOP_TAMP            ITOPT2             15               ***   
       NUC_MODEL            INUCMO         POINT       [  0]    ***   
       OCCUPATION           IOCCU   ESTIMATED BY SCF 
       OPEN-SHELL           IOPEN          SPIN-ORBITAL[  0]    ***   
       OPTVIB               IOPTVB         OFF         [  0]    ***   
       ORBITALS             IORBTP         STANDARD    [  0]    ***   
       PARALLEL             IPARAL         ON          [  1]    ***   
       PARA_INT             IPINTS         ON          [  1]    ***   
       PARA_PRINT           IPPRIN              0               ***   
       PERT_ORB             IPTORB         STANDARD    [  0]    ***   
       POINTS               IGRDFD              0               ***   
       PRINT                IPRNT               0               ***   
       PROPS                IPROPS         OFF         [  0]    ***   
       PROP_INTEGR          IINTYP         INTERNAL    [  0]    ***   
       PSI                  IPSI           OFF         [  0]    ***   
       QC_ALG               IQCALG         FLM         [  0]    ***   
       QC_LINALG            IQCLIN         TRIDIAG     [  2]    ***   
       QC_MAXCYC            IQCMAX          10D-100           cycles  
       QC_MAXSCFCY          IQCMSC          10D- 15           cycles  
       QC_RTRUST            IQCRTR          10D-  0           x 10-3  
       QC_SKIPSCF           IQCSKI         OFF         [  0]    ***   
       QC_START             IQCSTA          10D-  1             ***   
       QRHFGUESS            IQGUES         OFF         [  0]    ***   
       QUARTIC              IQUART         OFF         [  0]    ***   
       RAMAN_INT            IRAMIN         OFF         [  0]    ***   
       RAMAN_ORB            IRAMRE         UNRELAXED   [  0]    ***   
       RDO                  IRDOFM         ON          [  1]    ***   
       REDUCE_REPR          REDREP         Ir          [  0]    ***   
       REFERENCE            IREFNC         RHF         [  0]    ***   
       RELATIVIST           IRELAT         OFF         [  0]    ***   
       RELAX_DENS           IRDENS         ON          [  1]    ***   
       RESET_FLAGS          IRESET         OFF         [  0]    ***   
       RESTART_CC           ICCRES         OFF         [  0]    ***   
       ROT_EVEC             ROTVEC              0               ***   
       SAVE_INTS            ISVINT         OFF         [  0]    ***   
       SCALE_ON             ISTCRT              0               ***   
       SCF_CONV             ISCFCV          10D- 10             ***   
       SCF_DAMPING          IDAMP               0             x 10-3  
       SCF_EXPORDE          IRPPOR              6               ***   
       SCF_EXPSTAR          IRPPLS              8               ***   
       SCF_EXTRAPO          IRPP           ON          [  1]    ***   
       SCF_MAXCYC           ISCFCY            150              cycles 
       SCF_NOSTOP           ISCFST         OFF         [  0]    ***   
       SCF_PRINT            ISCFPR              0               ***   
       SCF_PROG             ISCFPR         SCF         [  0]    ***   
       SD_FIELD             IFINSD              0             x 10-6  
       SOPERT               IPERSO         OFF         [  0]    ***   
       SPHERICAL            IDFGHI         ON          [  1]    ***   
       SPINORBIT            ISOCAL         OFF         [  0]    ***   
       SPINROTATIO          ISRCON         OFF         [  0]    ***   
       SPIN_FLIP            ISPFLP         OFF         [  0]    ***   
       SPIN_ORBIT           ISPORB         OFF         [  0]    ***   
       SPIN_SCAL            ISCSMP         OFF         [  0]    ***   
       STEEPSCALE           ISTPSC              1000          x 10-3  
       SUBGROUP             ISUBGP         DEFAULT     [  0]    ***   
       SUBGRPAXIS           ISBXYZ         X           [  0]    ***   
       SYMMETRY             ISYM           ON          [  0]    ***   
       SYM_CHECK            ISYMCK         OVERRIDE    [  1]    ***   
       T3_EXTRAPOL          IT3EXT         OFF         [  0]    ***   
       T4_EXTRAPOL          IT4EXP         OFF         [  0]    ***   
       TAMP_SUM             IEVERY              5               ***   
       TESTSUITE            ITESTS         OFF         [  0]    ***   
       THERMOCH             ITHERM         OFF         [  0]    ***   
       TOL_CHOLESK          ITOLCH          10D-  4             ***   
       TRANGRAD             IRESRM         OFF         [  0]    ***   
       TRANS_INV            ITRAIN         IGNORE      [  1]    ***   
       TREAT_PERT           ITREAT         SIMULTANEOUS[  0]    ***   
       TRIP_ALGORI          ITRALG         NORMAL      [  0]    ***   
       UIJ_THRESHO          IUIJTH              1               ***   
       UNITS                IUNITS         ANGSTROM    [  0]    ***   
       UNOS                 IUNOS          OFF         [  0]    ***   
       UPDATE_HESS          IHUPDT         ON          [  1]    ***   
       VIBPHASE             ISETPH         STANDARD    [  0]    ***   
       VIBRATION            IVIB           ANALYTIC    [  1]    ***   
       VIB_ALGORIT          IGEALG         STANDARD    [  0]    ***   
       VNATORB              IVNORB         OFF         [  0]    ***   
       VTRAN                IVTRAN         FULL/PARTIAL[  0]    ***   
       XFIELD               IXEFLD              0             x 10-6  
       XFORM_TOL            IXFTOL          10D- 11             ***   
       YFIELD               IYEFLD              0             x 10-6  
       ZFIELD               IZEFLD            200             x 10-6  
       ZSCALE_EXP           IZEXPS         OFF         [  0]    ***   
    -------------------------------------------------------------------
   2 entries found in Z-matrix 
   Job Title : Carbon Monoxide DBOC calculation                                                
   There are  1 unique internal coordinates.
   Of these,  0 will be optimized.
   User supplied Z-matrix: 
--------------------------------------------------------------------------------
       SYMBOL    BOND      LENGTH    ANGLE     ANGLE     DIHED     ANGLE
                  TO      (ANGST)    WRT      (DEG)      WRT      (DEG)
--------------------------------------------------------------------------------
        C    
        O          1         r    
                  *Initial values for internal coordinates* 
                      Name             Value
                        r               1.5517241379
--------------------------------------------------------------------------------
  read isotopes from ZMAT file 
   Rotational constants (in cm-1): 
          0.9761178723             0.9761178723
   Rotational constants (in MHz): 
      29263.2817238547         29263.2817238547
********************************************************************************
   The full molecular point group is CXv .
   The largest Abelian subgroup of the full molecular point group is C2v .
   The computational point group is C2v .
********************************************************************************
--------------------------------------------------------------------------------
   Analysis of internal coordinates specified by Z-matrix 
--------------------------------------------------------------------------------
   *The nuclear repulsion energy is   16.369211626666665 a.u.
   *There is   1 degree of freedom within the tot. symm. molecular subspace.
   *Z-matrix requests optimization of   0 coordinates.
   *The optimization is constrained.
   *The following   1 parameters can have non-zero 
    derivatives within the totally symmetric subspace:
             r    [ 1]
   *The following   0 parameters are to be optimized:

   *The following coordinates must be varied in an  unconstrained optimization.
             r    [ 1]
--------------------------------------------------------------------------------


 ----------------------------------------------------------------
         Coordinates used in calculation (QCOMP) 
 ----------------------------------------------------------------
 Z-matrix   Atomic            Coordinates (in bohr)
  Symbol    Number           X              Y              Z
 ----------------------------------------------------------------
     C         6        -0.00000000     0.00000000     1.61742190
     O         8         0.00000000     0.00000000    -1.31491236
 ----------------------------------------------------------------
 
   Interatomic distance matrix (Angstroms) 
 
                 C             O    
                [ 1]        [ 2]
  C    [ 1]     0.00000
  O    [ 2]     1.55172     0.00000
 rotcon2
   Rotational constants (in cm-1): 
          0.9761178723             0.0000000000
   Rotational constants (in MHz): 
      29263.2817238547             0.0000000000
  ECPDATA file not present.   Using default ECPDATA. 
  @GTFLGS-I, Hessian will be transformed to curvilinear coordinates.
  There are  218 basis functions.
 @CHECKOUT-I, Total execution time (CPU/WALL):        0.20/       0.28 seconds.
--executable xjoda finished with status     0 in        0.31 seconds (walltime).
 --invoking executable--
/nfs/workspaces/public/cfour_mpi/bin/xvmol
 SERIAL VERSION OF MOLECULE STARTED
********************************************************************************
                    INPUT FROM MOL FILE
********************************************************************************
INTGRL        1    0    1    0    0    0    0    0    0                         
         *** CFOUR Program System (Release V0.1) ***                            
Carbon Monoxide DBOC calculation                                                
    2    2 X  Y       0.10E-08              0    0                              
   9999.00      3.00                                                            
          6.00000000    1    5    1    1    1    1    1                         
C #1  -0.000000000000000   0.000000000000000   1.617421900498061                
   16    9                                                                      
   33980.0000000000       9.100000000000000E-005 -1.900000000000000E-005        
  0.000000000000000E+000  0.000000000000000E+000  0.000000000000000E+000        
  0.000000000000000E+000  0.000000000000000E+000  0.000000000000000E+000        
  0.000000000000000E+000                                                        
   5089.00000000000       7.040000000000000E-004 -1.510000000000000E-004        
  0.000000000000000E+000  0.000000000000000E+000  0.000000000000000E+000        
  0.000000000000000E+000  0.000000000000000E+000  0.000000000000000E+000        
  0.000000000000000E+000                                                        
   1157.00000000000       3.693000000000000E-003 -7.850000000000000E-004        
  0.000000000000000E+000  0.000000000000000E+000  0.000000000000000E+000        
  0.000000000000000E+000  0.000000000000000E+000  0.000000000000000E+000        
  0.000000000000000E+000                                                        
   326.600000000000       1.536000000000000E-002 -3.324000000000000E-003        
  0.000000000000000E+000  0.000000000000000E+000  0.000000000000000E+000        
  0.000000000000000E+000  0.000000000000000E+000  0.000000000000000E+000        
  0.000000000000000E+000                                                        
   106.100000000000       5.292900000000000E-002 -1.151200000000000E-002        
  0.000000000000000E+000  0.000000000000000E+000  0.000000000000000E+000        
  0.000000000000000E+000  0.000000000000000E+000  0.000000000000000E+000        
  0.000000000000000E+000                                                        
   38.1100000000000       0.147043000000000      -3.416000000000000E-002        
  0.000000000000000E+000  0.000000000000000E+000  0.000000000000000E+000        
  0.000000000000000E+000  0.000000000000000E+000  0.000000000000000E+000        
  0.000000000000000E+000                                                        
   14.7500000000000       0.305631000000000      -7.717300000000001E-002        
  0.000000000000000E+000  0.000000000000000E+000  0.000000000000000E+000        
  0.000000000000000E+000  0.000000000000000E+000  0.000000000000000E+000        
  0.000000000000000E+000                                                        
   6.03500000000000       0.399345000000000      -0.141493000000000             
  0.000000000000000E+000  0.000000000000000E+000  0.000000000000000E+000        
  0.000000000000000E+000  0.000000000000000E+000  0.000000000000000E+000        
  0.000000000000000E+000                                                        
   2.53000000000000       0.217051000000000      -0.118019000000000             
  0.000000000000000E+000  0.000000000000000E+000  0.000000000000000E+000        
  0.000000000000000E+000  0.000000000000000E+000  0.000000000000000E+000        
  0.000000000000000E+000                                                        
  0.735500000000000       1.589400000000000E-002  0.273806000000000             
   1.00000000000000       0.000000000000000E+000  0.000000000000000E+000        
  0.000000000000000E+000  0.000000000000000E+000  0.000000000000000E+000        
  0.000000000000000E+000                                                        
  0.290500000000000      -3.084000000000000E-003  0.586510000000000             
  0.000000000000000E+000   1.00000000000000       0.000000000000000E+000        
  0.000000000000000E+000  0.000000000000000E+000  0.000000000000000E+000        
  0.000000000000000E+000                                                        
  0.111100000000000       9.779999999999999E-004  0.285430000000000             
  0.000000000000000E+000  0.000000000000000E+000   1.00000000000000             
  0.000000000000000E+000  0.000000000000000E+000  0.000000000000000E+000        
  0.000000000000000E+000                                                        
   7.21600000000000       0.000000000000000E+000  0.000000000000000E+000        
  0.000000000000000E+000  0.000000000000000E+000  0.000000000000000E+000        
   1.00000000000000       0.000000000000000E+000  0.000000000000000E+000        
  0.000000000000000E+000                                                        
   19.5700000000000       0.000000000000000E+000  0.000000000000000E+000        
  0.000000000000000E+000  0.000000000000000E+000  0.000000000000000E+000        
  0.000000000000000E+000   1.00000000000000       0.000000000000000E+000        
  0.000000000000000E+000                                                        
   53.0730000000000       0.000000000000000E+000  0.000000000000000E+000        
  0.000000000000000E+000  0.000000000000000E+000  0.000000000000000E+000        
  0.000000000000000E+000  0.000000000000000E+000   1.00000000000000             
  0.000000000000000E+000                                                        
  4.145000000000000E-002  0.000000000000000E+000  0.000000000000000E+000        
  0.000000000000000E+000  0.000000000000000E+000  0.000000000000000E+000        
  0.000000000000000E+000  0.000000000000000E+000  0.000000000000000E+000        
   1.00000000000000                                                             
   10    8                                                                      
   34.5100000000000       5.378000000000000E-003  0.000000000000000E+000        
  0.000000000000000E+000  0.000000000000000E+000  0.000000000000000E+000        
  0.000000000000000E+000  0.000000000000000E+000  0.000000000000000E+000        
   7.91500000000000       3.613200000000000E-002  0.000000000000000E+000        
  0.000000000000000E+000  0.000000000000000E+000  0.000000000000000E+000        
  0.000000000000000E+000  0.000000000000000E+000  0.000000000000000E+000        
   2.36800000000000       0.142493000000000       0.000000000000000E+000        
  0.000000000000000E+000  0.000000000000000E+000  0.000000000000000E+000        
  0.000000000000000E+000  0.000000000000000E+000  0.000000000000000E+000        
  0.813200000000000       0.342150000000000        1.00000000000000             
  0.000000000000000E+000  0.000000000000000E+000  0.000000000000000E+000        
  0.000000000000000E+000  0.000000000000000E+000  0.000000000000000E+000        
  0.289000000000000       0.463864000000000       0.000000000000000E+000        
   1.00000000000000       0.000000000000000E+000  0.000000000000000E+000        
  0.000000000000000E+000  0.000000000000000E+000  0.000000000000000E+000        
  0.100700000000000       0.250028000000000       0.000000000000000E+000        
  0.000000000000000E+000   1.00000000000000       0.000000000000000E+000        
  0.000000000000000E+000  0.000000000000000E+000  0.000000000000000E+000        
   8.18200000000000       0.000000000000000E+000  0.000000000000000E+000        
  0.000000000000000E+000  0.000000000000000E+000   1.00000000000000             
  0.000000000000000E+000  0.000000000000000E+000  0.000000000000000E+000        
   24.1860000000000       0.000000000000000E+000  0.000000000000000E+000        
  0.000000000000000E+000  0.000000000000000E+000  0.000000000000000E+000        
   1.00000000000000       0.000000000000000E+000  0.000000000000000E+000        
   71.4940000000000       0.000000000000000E+000  0.000000000000000E+000        
  0.000000000000000E+000  0.000000000000000E+000  0.000000000000000E+000        
  0.000000000000000E+000   1.00000000000000       0.000000000000000E+000        
  3.218000000000000E-002  0.000000000000000E+000  0.000000000000000E+000        
  0.000000000000000E+000  0.000000000000000E+000  0.000000000000000E+000        
  0.000000000000000E+000  0.000000000000000E+000   1.00000000000000             
    6    6                                                                      
   1.84800000000000        1.00000000000000       0.000000000000000E+000        
  0.000000000000000E+000  0.000000000000000E+000  0.000000000000000E+000        
  0.000000000000000E+000                                                        
  0.649000000000000       0.000000000000000E+000   1.00000000000000             
  0.000000000000000E+000  0.000000000000000E+000  0.000000000000000E+000        
  0.000000000000000E+000                                                        
  0.228000000000000       0.000000000000000E+000  0.000000000000000E+000        
   1.00000000000000       0.000000000000000E+000  0.000000000000000E+000        
  0.000000000000000E+000                                                        
   8.65600000000000       0.000000000000000E+000  0.000000000000000E+000        
  0.000000000000000E+000   1.00000000000000       0.000000000000000E+000        
  0.000000000000000E+000                                                        
   33.2130000000000       0.000000000000000E+000  0.000000000000000E+000        
  0.000000000000000E+000  0.000000000000000E+000   1.00000000000000             
  0.000000000000000E+000                                                        
  7.660000000000000E-002  0.000000000000000E+000  0.000000000000000E+000        
  0.000000000000000E+000  0.000000000000000E+000  0.000000000000000E+000        
   1.00000000000000                                                             
    4    4                                                                      
   1.41900000000000        1.00000000000000       0.000000000000000E+000        
  0.000000000000000E+000  0.000000000000000E+000                                
  0.485000000000000       0.000000000000000E+000   1.00000000000000             
  0.000000000000000E+000  0.000000000000000E+000                                
   24.6940000000000       0.000000000000000E+000  0.000000000000000E+000        
   1.00000000000000       0.000000000000000E+000                                
  0.187000000000000       0.000000000000000E+000  0.000000000000000E+000        
  0.000000000000000E+000   1.00000000000000                                     
    2    2                                                                      
   1.01100000000000        1.00000000000000       0.000000000000000E+000        
  0.424000000000000       0.000000000000000E+000   1.00000000000000             
          8.00000000    1    5    1    1    1    1    1                         
O #2   0.000000000000000   0.000000000000000  -1.314912355710370                
   16    9                                                                      
   61420.0000000000       9.000000000000001E-005 -2.000000000000000E-005        
  0.000000000000000E+000  0.000000000000000E+000  0.000000000000000E+000        
  0.000000000000000E+000  0.000000000000000E+000  0.000000000000000E+000        
  0.000000000000000E+000                                                        
   9199.00000000000       6.980000000000001E-004 -1.590000000000000E-004        
  0.000000000000000E+000  0.000000000000000E+000  0.000000000000000E+000        
  0.000000000000000E+000  0.000000000000000E+000  0.000000000000000E+000        
  0.000000000000000E+000                                                        
   2091.00000000000       3.664000000000000E-003 -8.290000000000000E-004        
  0.000000000000000E+000  0.000000000000000E+000  0.000000000000000E+000        
  0.000000000000000E+000  0.000000000000000E+000  0.000000000000000E+000        
  0.000000000000000E+000                                                        
   590.900000000000       1.521800000000000E-002 -3.508000000000000E-003        
  0.000000000000000E+000  0.000000000000000E+000  0.000000000000000E+000        
  0.000000000000000E+000  0.000000000000000E+000  0.000000000000000E+000        
  0.000000000000000E+000                                                        
   192.300000000000       5.242300000000000E-002 -1.215600000000000E-002        
  0.000000000000000E+000  0.000000000000000E+000  0.000000000000000E+000        
  0.000000000000000E+000  0.000000000000000E+000  0.000000000000000E+000        
  0.000000000000000E+000                                                        
   69.3200000000000       0.145921000000000      -3.626100000000000E-002        
  0.000000000000000E+000  0.000000000000000E+000  0.000000000000000E+000        
  0.000000000000000E+000  0.000000000000000E+000  0.000000000000000E+000        
  0.000000000000000E+000                                                        
   26.9700000000000       0.305258000000000      -8.299200000000000E-002        
  0.000000000000000E+000  0.000000000000000E+000  0.000000000000000E+000        
  0.000000000000000E+000  0.000000000000000E+000  0.000000000000000E+000        
  0.000000000000000E+000                                                        
   11.1000000000000       0.398508000000000      -0.152090000000000             
  0.000000000000000E+000  0.000000000000000E+000  0.000000000000000E+000        
  0.000000000000000E+000  0.000000000000000E+000  0.000000000000000E+000        
  0.000000000000000E+000                                                        
   4.68200000000000       0.216980000000000      -0.115331000000000             
  0.000000000000000E+000  0.000000000000000E+000  0.000000000000000E+000        
  0.000000000000000E+000  0.000000000000000E+000  0.000000000000000E+000        
  0.000000000000000E+000                                                        
   1.42800000000000       1.759400000000000E-002  0.288979000000000             
   1.00000000000000       0.000000000000000E+000  0.000000000000000E+000        
  0.000000000000000E+000  0.000000000000000E+000  0.000000000000000E+000        
  0.000000000000000E+000                                                        
  0.554700000000000      -2.502000000000000E-003  0.586128000000000             
  0.000000000000000E+000   1.00000000000000       0.000000000000000E+000        
  0.000000000000000E+000  0.000000000000000E+000  0.000000000000000E+000        
  0.000000000000000E+000                                                        
  0.206700000000000       9.540000000000000E-004  0.277624000000000             
  0.000000000000000E+000  0.000000000000000E+000   1.00000000000000             
  0.000000000000000E+000  0.000000000000000E+000  0.000000000000000E+000        
  0.000000000000000E+000                                                        
   12.9740000000000       0.000000000000000E+000  0.000000000000000E+000        
  0.000000000000000E+000  0.000000000000000E+000  0.000000000000000E+000        
   1.00000000000000       0.000000000000000E+000  0.000000000000000E+000        
  0.000000000000000E+000                                                        
   34.9000000000000       0.000000000000000E+000  0.000000000000000E+000        
  0.000000000000000E+000  0.000000000000000E+000  0.000000000000000E+000        
  0.000000000000000E+000   1.00000000000000       0.000000000000000E+000        
  0.000000000000000E+000                                                        
   93.8810000000000       0.000000000000000E+000  0.000000000000000E+000        
  0.000000000000000E+000  0.000000000000000E+000  0.000000000000000E+000        
  0.000000000000000E+000  0.000000000000000E+000   1.00000000000000             
  0.000000000000000E+000                                                        
  6.959000000000000E-002  0.000000000000000E+000  0.000000000000000E+000        
  0.000000000000000E+000  0.000000000000000E+000  0.000000000000000E+000        
  0.000000000000000E+000  0.000000000000000E+000  0.000000000000000E+000        
   1.00000000000000                                                             
   10    8                                                                      
   63.4200000000000       6.044000000000000E-003  0.000000000000000E+000        
  0.000000000000000E+000  0.000000000000000E+000  0.000000000000000E+000        
  0.000000000000000E+000  0.000000000000000E+000  0.000000000000000E+000        
   14.6600000000000       4.179900000000000E-002  0.000000000000000E+000        
  0.000000000000000E+000  0.000000000000000E+000  0.000000000000000E+000        
  0.000000000000000E+000  0.000000000000000E+000  0.000000000000000E+000        
   4.45900000000000       0.161143000000000       0.000000000000000E+000        
  0.000000000000000E+000  0.000000000000000E+000  0.000000000000000E+000        
  0.000000000000000E+000  0.000000000000000E+000  0.000000000000000E+000        
   1.53100000000000       0.356731000000000        1.00000000000000             
  0.000000000000000E+000  0.000000000000000E+000  0.000000000000000E+000        
  0.000000000000000E+000  0.000000000000000E+000  0.000000000000000E+000        
  0.530200000000000       0.448309000000000       0.000000000000000E+000        
   1.00000000000000       0.000000000000000E+000  0.000000000000000E+000        
  0.000000000000000E+000  0.000000000000000E+000  0.000000000000000E+000        
  0.175000000000000       0.244940000000000       0.000000000000000E+000        
  0.000000000000000E+000   1.00000000000000       0.000000000000000E+000        
  0.000000000000000E+000  0.000000000000000E+000  0.000000000000000E+000        
   14.4750000000000       0.000000000000000E+000  0.000000000000000E+000        
  0.000000000000000E+000  0.000000000000000E+000   1.00000000000000             
  0.000000000000000E+000  0.000000000000000E+000  0.000000000000000E+000        
   42.7300000000000       0.000000000000000E+000  0.000000000000000E+000        
  0.000000000000000E+000  0.000000000000000E+000  0.000000000000000E+000        
   1.00000000000000       0.000000000000000E+000  0.000000000000000E+000        
   126.140000000000       0.000000000000000E+000  0.000000000000000E+000        
  0.000000000000000E+000  0.000000000000000E+000  0.000000000000000E+000        
  0.000000000000000E+000   1.00000000000000       0.000000000000000E+000        
  5.348000000000000E-002  0.000000000000000E+000  0.000000000000000E+000        
  0.000000000000000E+000  0.000000000000000E+000  0.000000000000000E+000        
  0.000000000000000E+000  0.000000000000000E+000   1.00000000000000             
    6    6                                                                      
   3.77500000000000        1.00000000000000       0.000000000000000E+000        
  0.000000000000000E+000  0.000000000000000E+000  0.000000000000000E+000        
  0.000000000000000E+000                                                        
   1.30000000000000       0.000000000000000E+000   1.00000000000000             
  0.000000000000000E+000  0.000000000000000E+000  0.000000000000000E+000        
  0.000000000000000E+000                                                        
  0.444000000000000       0.000000000000000E+000  0.000000000000000E+000        
   1.00000000000000       0.000000000000000E+000  0.000000000000000E+000        
  0.000000000000000E+000                                                        
   14.9270000000000       0.000000000000000E+000  0.000000000000000E+000        
  0.000000000000000E+000   1.00000000000000       0.000000000000000E+000        
  0.000000000000000E+000                                                        
   57.5440000000000       0.000000000000000E+000  0.000000000000000E+000        
  0.000000000000000E+000  0.000000000000000E+000   1.00000000000000             
  0.000000000000000E+000                                                        
  0.154000000000000       0.000000000000000E+000  0.000000000000000E+000        
  0.000000000000000E+000  0.000000000000000E+000  0.000000000000000E+000        
   1.00000000000000                                                             
    4    4                                                                      
   2.66600000000000        1.00000000000000       0.000000000000000E+000        
  0.000000000000000E+000  0.000000000000000E+000                                
  0.859000000000000       0.000000000000000E+000   1.00000000000000             
  0.000000000000000E+000  0.000000000000000E+000                                
   26.4830000000000       0.000000000000000E+000  0.000000000000000E+000        
   1.00000000000000       0.000000000000000E+000                                
  0.324000000000000       0.000000000000000E+000  0.000000000000000E+000        
  0.000000000000000E+000   1.00000000000000                                     
    2    2                                                                      
   1.84600000000000        1.00000000000000       0.000000000000000E+000        
  0.714000000000000       0.000000000000000E+000   1.00000000000000             
FINISH                                                                          
 
********************************************************************************
 ONE- AND TWO-ELECTRON INTEGRALS OVER SYMMETRY-ADAPTED AOS ARE CALCULATED.

  SPHERICAL HARMONICS ARE USED.
  
  INTEGRALS LESS THAN  0.10E-13 ARE NEGLECTED.

  NUCLEAR REPULSION ENERGY :   16.3692116267 A.U.
  @MOLECU-I, ONE ELECTRON INTEGRALS (CPU/WALL):        0.07/       0.08 SECONDS.
  @TWOEL-I,    4451187 INTEGRALS OF SYMMETRY TYPE  I I I I
  @TWOEL-I,   19201619 INTEGRALS OF SYMMETRY TYPE  I J I J
  @TWOEL-I,   10110458 INTEGRALS OF SYMMETRY TYPE  I I J J
  @TWOEL-I,   14196382 INTEGRALS OF SYMMETRY TYPE  I J K L
  @TWOEL-I, TOTAL NUMBER OF 2-E INTEGRALS   47959646.
  @MOLECU-I, TWO ELECTRON INTEGRALS (CPU/WALL):      241.45/      33.08 SECONDS.
 @CHECKOUT-I, Total execution time (CPU/WALL):      241.53/      33.19 seconds.

Running with 14 threads/proc

--executable xvmol finished with status     0 in       33.23 seconds (walltime).
 --invoking executable--
/nfs/workspaces/public/cfour_mpi/bin/xvmol2ja
 @GETMEM-I,  Allocated    3814 MB of main memory.
 @CHECKOUT-I, Total execution time (CPU/WALL):        0.17/       0.07 seconds.
--executable xvmol2ja finished with status     0 in        0.12 seconds (walltime).
 --invoking executable--
/nfs/workspaces/public/cfour_mpi/bin/xvprop
 @GETMEM-I,  Allocated    3814 MB of main memory.
   Property integrals will be calculated.
    --------------------------------------------------------------
                                   Property evaluated at 
    Property type                X             Y             Z
    --------------------------------------------------------------
    Dipole moment               ----          ----          ----  
    Quadrupole moment           ----          ----          ----  
    Octopole moment             ----          ----          ----  
    Relativisitic corr.         ----          ----          ----  
    Second moment            0.0000000     0.0000000     0.0000000
    Electron density         0.0000000     0.0000000     1.6174219
    Electron density         0.0000000     0.0000000    -1.3149124
    Field gradient           0.0000000     0.0000000     1.6174219
    Field gradient           0.0000000     0.0000000    -1.3149124
    Potential                0.0000000     0.0000000     1.6174219
    Potential                0.0000000     0.0000000    -1.3149124
    --------------------------------------------------------------
 @CHECKOUT-I, Total execution time (CPU/WALL):        1.56/       1.58 seconds.
--executable xvprop finished with status     0 in        1.61 seconds (walltime).
 --invoking executable--
/nfs/workspaces/public/cfour_mpi/bin/xvscf
  There are  218 functions in the AO basis.

  There are 4 irreducible representations.

       Irrep        # of functions
         1                 86
         2                 52
         3                 52
         4                 28


  Parameters for SCF calculation: 
        SCF reference function:  RHF  
  Maximum number of iterations:  150
     Full symmetry point group: CXv 
     Computational point group: C2v 
        Initial density matrix: MOREAD                 
     SCF convergence tolerance: 10**(-10)
  DIIS convergence acceleration:  ON
          Latest start for DIIS:   8
                     DIIS order:   6

  Memory information:    2523578 words required.
  Fock matrices are constructed from AO integral file.
 @GETMEM-I,  Allocated      19 MB of main memory.
  Initialization and symmetry analysis required      0.001 seconds.

  Adding electric field perturbation to one-electron Hamiltonian.
  Field direction     : Z
  Field strength      :  0.0002000 a.u.

  @INITGES-I, Occupancies from core Hamiltonian:

          Alpha population by irrep:   5    1    1    0
           Beta population by irrep:   5    1    1    0


 total no. of electrons in initial guess :  0.000000000000000E+000
  --------------------------------------------------------------------
  Iteration         Total Energy            Largest Density Difference
  --------------------------------------------------------------------
       0            16.369374580154794              0.0000000000D+00
   current occupation vector 
     5  1  1  0
     5  1  1  0
       1           -93.520774237632864              0.1754117280D+02
   current occupation vector 
     5  1  1  0
     5  1  1  0
       2           -98.111486219858634              0.1754115106D+02
   current occupation vector 
     5  1  1  0
     5  1  1  0
       3          -100.811966582957083              0.6448731376D+01
   current occupation vector 
     5  1  1  0
     5  1  1  0
       4           -95.818141408140107              0.6442320323D+01
   current occupation vector 
     5  1  1  0
     5  1  1  0
       5          -100.480522419084664              0.6892911489D+01
   current occupation vector 
     5  1  1  0
     5  1  1  0
       6           -95.446539662006003              0.6893525658D+01
   current occupation vector 
     5  1  1  0
     5  1  1  0
       7          -100.463260971143100              0.6921247235D+01
   current occupation vector 
     5  1  1  0
     5  1  1  0
       8           -95.433737625926454              0.6921315497D+01
   current occupation vector 
     5  1  1  0
     5  1  1  0
       9          -107.496771163916307              0.5698471108D+01
   current occupation vector 
     5  1  1  0
     5  1  1  0
      10          -110.203626526275642              0.1242702901D+01
   current occupation vector 
     5  1  1  0
     5  1  1  0
      11          -112.387079951785822              0.1202361528D+01
   current occupation vector 
     5  1  1  0
     5  1  1  0
      12          -112.551394082916190              0.4799147878D+00
   current occupation vector 
     5  1  1  0
     5  1  1  0
      13          -112.560318048402920              0.1271241680D+00
   current occupation vector 
     5  1  1  0
     5  1  1  0
      14          -112.563264234568450              0.6804871192D-01
   current occupation vector 
     5  1  1  0
     5  1  1  0
      15          -112.563467533986156              0.1779660697D-01
   current occupation vector 
     5  1  1  0
     5  1  1  0
      16          -112.563606400938212              0.2065761297D-01
   current occupation vector 
     5  1  1  0
     5  1  1  0
      17          -112.563655338346237              0.1457117996D-01
   current occupation vector 
     5  1  1  0
     5  1  1  0
      18          -112.563664023340991              0.7912470187D-02
   current occupation vector 
     5  1  1  0
     5  1  1  0
      19          -112.563664093293411              0.6836796489D-03
   current occupation vector 
     5  1  1  0
     5  1  1  0
      20          -112.563664093896605              0.2227776364D-04
   current occupation vector 
     5  1  1  0
     5  1  1  0
      21          -112.563664093944297              0.9036731385D-05
   current occupation vector 
     5  1  1  0
     5  1  1  0
      22          -112.563664093945377              0.1299016359D-05
   current occupation vector 
     5  1  1  0
     5  1  1  0
      23          -112.563664093945292              0.2405899500D-06
   current occupation vector 
     5  1  1  0
     5  1  1  0
      24          -112.563664093944695              0.5444148554D-07
   current occupation vector 
     5  1  1  0
     5  1  1  0
      25          -112.563664093943444              0.3699860085D-07
   current occupation vector 
     5  1  1  0
     5  1  1  0
      26          -112.563664093945178              0.2398466870D-07
   current occupation vector 
     5  1  1  0
     5  1  1  0
      27          -112.563664093945263              0.1599785127D-07
   current occupation vector 
     5  1  1  0
     5  1  1  0
      28          -112.563664093944780              0.1230756164D-08
   current occupation vector 
     5  1  1  0
     5  1  1  0
      29          -112.563664093944780              0.1042068654D-09
   current occupation vector 
     5  1  1  0
     5  1  1  0
      30          -112.563664093943189              0.1249882420D-09
   current occupation vector 
     5  1  1  0
     5  1  1  0

  SCF has converged.

 Density matrix saved to file den.dat
 total electron number:   14.0000000000003     
     E(SCF)=      -112.563664093945036              0.7052003426D-10

  Eigenvector printing suppressed.

 @PUTMOS-I, Writing converged MOs to NEWMOS. 
 @PUTMOS-I, Symmetry   1 Full Blocks 21 Partial Blocksize   2
 @PUTMOS-I, Symmetry   2 Full Blocks 13 Partial Blocksize   0
 @PUTMOS-I, Symmetry   3 Full Blocks 13 Partial Blocksize   0
 @PUTMOS-I, Symmetry   4 Full Blocks  7 Partial Blocksize   0
 @PUTFOCK-I, Writing converged Fock matrix to NEWFOCK. 
 @PUTFOCK-I, Symmetry   1 Full Blocks 21 Partial Blocksize   2
 @PUTFOCK-I, Symmetry   2 Full Blocks 13 Partial Blocksize   0
 @PUTFOCK-I, Symmetry   3 Full Blocks 13 Partial Blocksize   0
 @PUTFOCK-I, Symmetry   4 Full Blocks  7 Partial Blocksize   0


 
  ORBITAL EIGENVALUES (ALPHA)  (1H = 27.2113834 eV)

       MO #        E(hartree)               E(eV)           FULLSYM    COMPSYM
       ----   --------------------   --------------------   -------   ---------
    1     1         -20.6497304499        -561.9077323797     SG+        A1 (1)
    2     2         -11.5120512131        -313.2588392803     SG+        A1 (1)
    3     3          -1.2944870843         -35.2247843567     SG+        A1 (1)
    4     4          -0.8013655054         -21.8062640115     SG+        A1 (1)
    5     5          -0.5402681975         -14.7014450614     SG+        A1 (1)
    6   139          -0.5067772301         -13.7901095078      PI        B2 (3)
    7    87          -0.5067772301         -13.7901095078      PI        B1 (2)
  +++++++++++++++++++++++++++++++++++++++++++++++++++++++++++++++++++++++++++++
    8   140           0.0023329180           0.0634819254      PI        B2 (3)
    9    88           0.0023329180           0.0634819254      PI        B1 (2)
   10     6           0.0621085595           1.6900598255     SG+        A1 (1)
   11     7           0.0682808676           1.8580168664     SG+        A1 (1)
   12    89           0.0833289023           2.2674947081      PI        B1 (2)
   13   141           0.0833289023           2.2674947081      PI        B2 (3)
   14     8           0.1566773621           4.2634077711     SG+        A1 (1)
   15   142           0.1776538350           4.8342066161      PI        B2 (3)
   16    90           0.1776538350           4.8342066161      PI        B1 (2)
   17     9           0.2079880613           5.6596428793     SG+        A1 (1)
   18   191           0.2231423982           6.0720133495      DE        A2 (4)
   19    10           0.2231423982           6.0720133495      DE        A1 (1)
   20   143           0.2881703908           7.8415149876      PI        B2 (3)
   21    91           0.2881703908           7.8415149876      PI        B1 (2)
   22    11           0.3005197303           8.1775576014     SG+        A1 (1)
   23    12           0.3255463192           8.8585657066     SG+        A1 (1)
   24   144           0.4038245775          10.9886254046      PI        B2 (3)
   25    92           0.4038245775          10.9886254046      PI        B1 (2)
   26    13           0.4288003369          11.6682503706     SG+        A1 (1)
   27    14           0.5127541044          13.9527485255     SG+        A1 (1)
   28    15           0.5493545541          14.9486973945      DE        A1 (1)
   29   192           0.5493545541          14.9486973945      DE        A2 (4)
   30   145           0.6229854151          16.9522949836      PI        B2 (3)
   31    93           0.6229854151          16.9522949836      PI        B1 (2)
   32    16           0.7091107996          19.2958858422     SG+        A1 (1)
   33   146           0.7338618240          19.9693954549      PH        B2 (3)
   34    94           0.7338618240          19.9693954549      PH        B1 (2)
   35   193           0.7418516668          20.1868101308      DE        A2 (4)
   36    17           0.7418516668          20.1868101308      DE        A1 (1)
   37   147           0.7798598419          21.2210651558      PI        B2 (3)
   38    95           0.7798598419          21.2210651558      PI        B1 (2)
   39    18           0.8224051915          22.3787829771     SG+        A1 (1)
   40    19           0.8630200401          23.4839691939      DE        A1 (1)
   41   194           0.8630200401          23.4839691939      DE        A2 (4)
   42    20           0.8788658452          23.9151554705     SG+        A1 (1)
   43   148           0.8893750877          24.2011264991      PI        B2 (3)
   44    96           0.8893750877          24.2011264991      PI        B1 (2)
   45   149           1.0366448889          28.2085415207      PI        B2 (3)
   46    97           1.0366448889          28.2085415208      PI        B1 (2)
   47    21           1.1300621040          30.7505531774     SG+        A1 (1)
   48    22           1.3700971977          37.2822401417     SG+        A1 (1)
   49    98           1.4220950432          38.6971734514      PH        B1 (2)
   50   150           1.4220950432          38.6971734514      PH        B2 (3)
   51    99           1.5031471226          40.9027126590      PI        B1 (2)
   52   151           1.5031471226          40.9027126590      PI        B2 (3)
   53    23           1.5814326151          43.0329692101      DE        A1 (1)
   54   195           1.5814326151          43.0329692101      DE        A2 (4)
   55    24           1.5984211940          43.4952519447     SG+        A1 (1)
   56   152           1.6378546454          44.5682907085      PI        B2 (3)
   57   100           1.6378546454          44.5682907085      PI        B1 (2)
   58    25           1.6849700249          45.8503653660      DE        A1 (1)
   59   196           1.6849700249          45.8503653661      DE        A2 (4)
   60    26           1.9159055780          52.1344412425     SG+        A1 (1)
   61    27           1.9666978958          53.5165704758     SG+        A1 (1)
   62   197           2.0716624953          56.3728024359      PI        A2 (4)
   63    28           2.0716624953          56.3728024359      PI        A1 (1)
   64   153           2.0814560455          56.6392984843      PI        B2 (3)
   65   101           2.0814560455          56.6392984843      PI        B1 (2)
   66   198           2.1308107745          57.9823089366      DE        A2 (4)
   67    29           2.1308107745          57.9823089366      DE        A1 (1)
   68   154           2.2094052069          60.1209721707      PH        B2 (3)
   69   102           2.2094052069          60.1209721707      PH        B1 (2)
   70   155           2.2206371475          60.4266088121      PH        B2 (3)
   71   103           2.2206371475          60.4266088121      PH        B1 (2)
   72    30           2.2285367498          60.6415679191     SG+        A1 (1)
   73   156           2.2317780193          60.7297673477      PI        B2 (3)
   74   104           2.2317780193          60.7297673477      PI        B1 (2)
   75   199           2.2903942229          62.3247953370      DE        A2 (4)
   76    31           2.2903942229          62.3247953370      DE        A1 (1)
   77    32           2.4181918716          65.8023461528     SG+        A1 (1)
   78   157           2.5162773642          68.4713880977      PI        B2 (3)
   79   105           2.5162773642          68.4713880977      PI        B1 (2)
   80   106           2.5939290553          70.5843980374      PI        B1 (2)
   81   158           2.5939290553          70.5843980374      PI        B2 (3)
   82    33           2.6216541465          71.3388361225     SG+        A1 (1)
   83    34           2.6668958261          72.5699248115      DE        A1 (1)
   84   200           2.6668958261          72.5699248115      DE        A2 (4)
   85    35           2.9853326762          81.2350320294     SG+        A1 (1)
   86   159           3.4268464668          93.2492330603      PI        B2 (3)
   87   107           3.4268464668          93.2492330603      PI        B1 (2)
   88   201           3.7062656158         100.8526146529      PI        A2 (4)
   89    36           3.7062656158         100.8526146529      PI        A1 (1)
   90    37           3.9018596248         106.1749982242     SG+        A1 (1)
   91   108           3.9333992877         107.0332360837      PH        B1 (2)
   92   160           3.9333992877         107.0332360837      PH        B2 (3)
   93   109           4.1356462048         112.5366544850      PH        B1 (2)
   94   161           4.1356462048         112.5366544850      PH        B2 (3)
   95    38           4.1454013603         112.8021057622     SG+        A1 (1)
   96   110           4.1584158892         113.1562490973      PI        B1 (2)
   97   162           4.1584158892         113.1562490973      PI        B2 (3)
   98    39           4.1944161059         114.1358647955      DE        A1 (1)
   99   202           4.1944161059         114.1358647955      DE        A2 (4)
  100    40           4.2865527490         116.6430303176      DE        A1 (1)
  101   203           4.2865527490         116.6430303176      DE        A2 (4)
  102    41           4.4267572218         120.4581879823     SG+        A1 (1)
  103   111           4.5606725640         124.1022097019      PI        B1 (2)
  104   163           4.5606725640         124.1022097019      PI        B2 (3)
  105   204           4.7120204077         128.2205939020      DE        A2 (4)
  106    42           4.7120204077         128.2205939021      DE        A1 (1)
  107    43           4.7547405794         129.3830688745     SG+        A1 (1)
  108   164           5.1790474607         140.9290460992      PI        B2 (3)
  109   112           5.1790474607         140.9290460992      PI        B1 (2)
  110    44           5.2710834903         143.4334737873     SG+        A1 (1)
  111   165           5.3442994928         145.4257825033      PI        B2 (3)
  112   113           5.3442994928         145.4257825034      PI        B1 (2)
  113   205           5.8331939197         158.7292761959      PI        A2 (4)
  114    45           5.8331939197         158.7292761959      PI        A1 (1)
  115   166           5.9068224011         160.7328090317      PH        B2 (3)
  116   114           5.9068224011         160.7328090318      PH        B1 (2)
  117    46           6.0610416254         164.9293274721     SG+        A1 (1)
  118    47           6.1190225541         166.5070687535      DE        A1 (1)
  119   206           6.1190225541         166.5070687535      DE        A2 (4)
  120   167           6.1416878486         167.1238227716      PI        B2 (3)
  121   115           6.1416878486         167.1238227716      PI        B1 (2)
  122    48           6.1978067057         168.6508945074     SG+        A1 (1)
  123   207           6.3441749880         172.6337779544      DE        A2 (4)
  124    49           6.3441749880         172.6337779544      DE        A1 (1)
  125   168           6.3608636387         173.0878992274      PH        B2 (3)
  126   116           6.3608636387         173.0878992274      PH        B1 (2)
  127   208           6.4953869293         176.7484640651      DE        A2 (4)
  128    50           6.4953869293         176.7484640651      DE        A1 (1)
  129   117           6.8170545465         185.5014849236      PI        B1 (2)
  130   169           6.8170545465         185.5014849236      PI        B2 (3)
  131    51           7.1125484366         193.5422824592     SG+        A1 (1)
  132   118           7.3278797422         199.4017451735      PI        B1 (2)
  133   170           7.3278797422         199.4017451735      PI        B2 (3)
  134    52           7.9225613185         215.5838535484     SG+        A1 (1)
  135    53           9.6021794539         261.2885865963     SG+        A1 (1)
  136   119           9.7732539982         265.9437616109      PI        B1 (2)
  137   171           9.7732539982         265.9437616110      PI        B2 (3)
  138   209          10.6493709769         289.7841166224      PI        A2 (4)
  139    54          10.6493709769         289.7841166224      PI        A1 (1)
  140    55          10.6897784085         290.8836587350     SG+        A1 (1)
  141   172          10.7411699991         292.2820950101      PH        B2 (3)
  142   120          10.7411699991         292.2820950101      PH        B1 (2)
  143   210          10.9709439686         298.5345625903      DE        A2 (4)
  144    56          10.9709439686         298.5345625903      DE        A1 (1)
  145   173          10.9776132827         298.7160438527      PI        B2 (3)
  146   121          10.9776132827         298.7160438527      PI        B1 (2)
  147    57          11.1728370917         304.0283537680     SG+        A1 (1)
  148   174          11.8872651090         323.4689284593      PH        B2 (3)
  149   122          11.8872651090         323.4689284593      PH        B1 (2)
  150    58          11.9999149603         326.5342867513      DE        A1 (1)
  151   211          11.9999149603         326.5342867517      DE        A2 (4)
  152   123          12.4019263265         337.4735721699      PI        B1 (2)
  153   175          12.4019263265         337.4735721699      PI        B2 (3)
  154    59          12.6319977087         343.7341327607     SG+        A1 (1)
  155    60          12.7317724512         346.4491415306      DE        A1 (1)
  156   212          12.7317724512         346.4491415307      DE        A2 (4)
  157   124          13.0990056286         356.4420643179      PI        B1 (2)
  158   176          13.0990056286         356.4420643180      PI        B2 (3)
  159    61          13.5836632074         369.6302675132     SG+        A1 (1)
  160    62          17.3762470850         472.8317214841     SG+        A1 (1)
  161   177          18.7440232675         510.0508035917      PI        B2 (3)
  162   125          18.7440232676         510.0508035920      PI        B1 (2)
  163    63          19.7765808031         538.1481225741     SG+        A1 (1)
  164   213          26.2691482102         714.8198635404      DE        A2 (4)
  165    64          26.2691482102         714.8198635404      DE        A1 (1)
  166   178          26.5922771932         723.6126501821      PI        B2 (3)
  167   126          26.5922771932         723.6126501821      PI        B1 (2)
  168    65          27.0696217015         736.6018546116     SG+        A1 (1)
  169   127          33.4611676882         910.5246629745      PI        B1 (2)
  170   179          33.4611676882         910.5246629746      PI        B2 (3)
  171    66          34.3277058969         934.1043664042     SG+        A1 (1)
  172    67          35.6389508368         969.7851551943     SG+        A1 (1)
  173    68          47.0731289279        1280.9249590952      DE        A1 (1)
  174   214          47.0731289279        1280.9249590952      DE        A2 (4)
  175   180          47.2598974316        1286.0071884564      PI        B2 (3)
  176   128          47.2598974316        1286.0071884564      PI        B1 (2)
  177    69          47.5399527940        1293.6278822961     SG+        A1 (1)
  178    70          63.7958271464        1735.9727118010     SG+        A1 (1)
  179   181          66.3238338216        1804.7632706787      PI        B2 (3)
  180   129          66.3238338217        1804.7632706789      PI        B1 (2)
  181    71          67.0764269407        1825.2423705857     SG+        A1 (1)
  182   182          98.5175434490        2680.7986464160      PH        B2 (3)
  183   130          98.5175434490        2680.7986464160      PH        B1 (2)
  184    72          98.5310469951        2681.1660965863      DE        A1 (1)
  185   215          98.5310469951        2681.1660965863      DE        A2 (4)
  186   131          98.5444760863        2681.5315207359      PI        B1 (2)
  187   183          98.5444760863        2681.5315207359      PI        B2 (3)
  188    73          98.5561494714        2681.8491696933     SG+        A1 (1)
  189   184         103.3062944582        2811.1071861362      PH        B2 (3)
  190   132         103.3062944582        2811.1071861362      PH        B1 (2)
  191   216         103.3090130471        2811.1811627012      DE        A2 (4)
  192    74         103.3090130472        2811.1811627024      DE        A1 (1)
  193   185         103.3401515069        2812.0284832681      PI        B2 (3)
  194   133         103.3401515069        2812.0284832681      PI        B1 (2)
  195    75         103.3460414484        2812.1887567257     SG+        A1 (1)
  196   217         114.9703508587        3128.5022968478      DE        A2 (4)
  197    76         114.9703508587        3128.5022968478      DE        A1 (1)
  198   186         115.1267707497        3132.7586984740      PI        B2 (3)
  199   134         115.1267707497        3132.7586984740      PI        B1 (2)
  200    77         115.3622837700        3139.1673335658     SG+        A1 (1)
  201   135         116.7592154284        3177.1797765047      PI        B1 (2)
  202   187         116.7592154284        3177.1797765048      PI        B2 (3)
  203    78         117.4584485724        3196.2068776727     SG+        A1 (1)
  204    79         121.9036489629        3317.1669297884     SG+        A1 (1)
  205    80         198.5536244157        5402.9187994352      DE        A1 (1)
  206   218         198.5536244157        5402.9187994352      DE        A2 (4)
  207   136         198.6554747206        5405.6902871304      PI        B1 (2)
  208   188         198.6554747206        5405.6902871305      PI        B2 (3)
  209    81         198.7994986317        5409.6093769958     SG+        A1 (1)
  210    82         216.3211565463        5886.3979283129     SG+        A1 (1)
  211   189         224.8027306740        6117.1932937365      PI        B2 (3)
  212   137         224.8027306740        6117.1932937366      PI        B1 (2)
  213    83         225.3931806780        6133.2602551738     SG+        A1 (1)
  214   190         395.2797220102       10756.1080658654      PI        B2 (3)
  215   138         395.2797220102       10756.1080658654      PI        B1 (2)
  216    84         395.8412177718       10771.3871423105     SG+        A1 (1)
  217    85         508.6241715718       13840.3673391466     SG+        A1 (1)
  218    86         895.1388348190       24357.9660304896     SG+        A1 (1)


  VSCF finished.

 @CHECKOUT-I, Total execution time (CPU/WALL):       55.89/      13.30 seconds.
--executable xvscf finished with status     0 in       13.34 seconds (walltime).
 --invoking executable--
/nfs/workspaces/public/cfour_mpi/bin/xvtran
 @GETMEM-I,  Allocated    3814 MB of main memory.
  Full RHF integral transformation
  Transformation of IIII integrals :
  1 pass through the AO integral file was required.
     4451187 AO integrals were read.
     8565208 MO integrals were written to HF2.
  Transformation of IIJJ integrals :
  1 pass through the AO integral file was required.
    10110458 AO integrals were read.
    14343367 MO integrals were written to HF2.
  Transformation of IJIJ integrals :
  1 pass through the AO integral file was required.
    19201619 AO integrals were read.
    26581686 MO integrals were written to HF2.
  Transformation of IJKL integrals :
  1 pass through the AO integral file was required.
    14196382 AO integrals were read.
    17998128 MO integrals were written to HF2.
  Summary of active molecular orbitals: 
------------------------------------------------------------------------
 
  Index      Eigenvalue    Symmetry    Index      Eigenvalue    Symmetry
------------------------------------------------------------------------
     1       -20.6497304        1       110         4.1356462        2
     2       -11.5120512        1       111         4.1584159        2
     3        -1.2944871        1       112         4.5606726        2
     4        -0.8013655        1       113         5.1790475        2
     5        -0.5402682        1       114         5.3442995        2
     6        -0.5067772        2       115         5.9068224        2
     7        -0.5067772        3       116         6.1416878        2
     8         0.0621086        1       117         6.3608636        2
     9         0.0682809        1       118         6.8170545        2
    10         0.1566774        1       119         7.3278797        2
    11         0.2079881        1       120         9.7732540        2
    12         0.2231424        1       121        10.7411700        2
    13         0.3005197        1       122        10.9776133        2
    14         0.3255463        1       123        11.8872651        2
    15         0.4288003        1       124        12.4019263        2
    16         0.5127541        1       125        13.0990056        2
    17         0.5493546        1       126        18.7440233        2
    18         0.7091108        1       127        26.5922772        2
    19         0.7418517        1       128        33.4611677        2
    20         0.8224052        1       129        47.2598974        2
    21         0.8630200        1       130        66.3238338        2
    22         0.8788658        1       131        98.5175434        2
    23         1.1300621        1       132        98.5444761        2
    24         1.3700972        1       133       103.3062945        2
    25         1.5814326        1       134       103.3401515        2
    26         1.5984212        1       135       115.1267707        2
    27         1.6849700        1       136       116.7592154        2
    28         1.9159056        1       137       198.6554747        2
    29         1.9666979        1       138       224.8027307        2
    30         2.0716625        1       139       395.2797220        2
    31         2.1308108        1       140         0.0023329        3
    32         2.2285367        1       141         0.0833289        3
    33         2.2903942        1       142         0.1776538        3
    34         2.4181919        1       143         0.2881704        3
    35         2.6216541        1       144         0.4038246        3
    36         2.6668958        1       145         0.6229854        3
    37         2.9853327        1       146         0.7338618        3
    38         3.7062656        1       147         0.7798598        3
    39         3.9018596        1       148         0.8893751        3
    40         4.1454014        1       149         1.0366449        3
    41         4.1944161        1       150         1.4220950        3
    42         4.2865527        1       151         1.5031471        3
    43         4.4267572        1       152         1.6378546        3
    44         4.7120204        1       153         2.0814560        3
    45         4.7547406        1       154         2.2094052        3
    46         5.2710835        1       155         2.2206371        3
    47         5.8331939        1       156         2.2317780        3
    48         6.0610416        1       157         2.5162774        3
    49         6.1190226        1       158         2.5939291        3
    50         6.1978067        1       159         3.4268465        3
    51         6.3441750        1       160         3.9333993        3
    52         6.4953869        1       161         4.1356462        3
    53         7.1125484        1       162         4.1584159        3
    54         7.9225613        1       163         4.5606726        3
    55         9.6021795        1       164         5.1790475        3
    56        10.6493710        1       165         5.3442995        3
    57        10.6897784        1       166         5.9068224        3
    58        10.9709440        1       167         6.1416878        3
    59        11.1728371        1       168         6.3608636        3
    60        11.9999150        1       169         6.8170545        3
    61        12.6319977        1       170         7.3278797        3
    62        12.7317725        1       171         9.7732540        3
    63        13.5836632        1       172        10.7411700        3
    64        17.3762471        1       173        10.9776133        3
    65        19.7765808        1       174        11.8872651        3
    66        26.2691482        1       175        12.4019263        3
    67        27.0696217        1       176        13.0990056        3
    68        34.3277059        1       177        18.7440233        3
    69        35.6389508        1       178        26.5922772        3
    70        47.0731289        1       179        33.4611677        3
    71        47.5399528        1       180        47.2598974        3
    72        63.7958271        1       181        66.3238338        3
    73        67.0764269        1       182        98.5175434        3
    74        98.5310470        1       183        98.5444761        3
    75        98.5561495        1       184       103.3062945        3
    76       103.3090130        1       185       103.3401515        3
    77       103.3460414        1       186       115.1267707        3
    78       114.9703509        1       187       116.7592154        3
    79       115.3622838        1       188       198.6554747        3
    80       117.4584486        1       189       224.8027307        3
    81       121.9036490        1       190       395.2797220        3
    82       198.5536244        1       191         0.2231424        4
    83       198.7994986        1       192         0.5493546        4
    84       216.3211565        1       193         0.7418517        4
    85       225.3931807        1       194         0.8630200        4
    86       395.8412178        1       195         1.5814326        4
    87       508.6241716        1       196         1.6849700        4
    88       895.1388348        1       197         2.0716625        4
    89         0.0023329        2       198         2.1308108        4
    90         0.0833289        2       199         2.2903942        4
    91         0.1776538        2       200         2.6668958        4
    92         0.2881704        2       201         3.7062656        4
    93         0.4038246        2       202         4.1944161        4
    94         0.6229854        2       203         4.2865527        4
    95         0.7338618        2       204         4.7120204        4
    96         0.7798598        2       205         5.8331939        4
    97         0.8893751        2       206         6.1190226        4
    98         1.0366449        2       207         6.3441750        4
    99         1.4220950        2       208         6.4953869        4
   100         1.5031471        2       209        10.6493710        4
   101         1.6378546        2       210        10.9709440        4
   102         2.0814560        2       211        11.9999150        4
   103         2.2094052        2       212        12.7317725        4
   104         2.2206371        2       213        26.2691482        4
   105         2.2317780        2       214        47.0731289        4
   106         2.5162774        2       215        98.5310470        4
   107         2.5939291        2       216       103.3090130        4
   108         3.4268465        2       217       114.9703509        4
   109         3.9333993        2       218       198.5536244        4
------------------------------------------------------------------------
  -20.6497304499306       -11.5120512131079       -1.29448708428158     
 -0.801365505418197      -0.540268197515151      -0.506777230141223     
 -0.506777230141251       6.210855951887739E-002  6.828086757388195E-002
  0.156677362134702       0.207988061323877       0.223142398175340     
  0.300519730334554       0.325546319215784       0.428800336941160     
  0.512754104427604       0.549354554113327       0.709110799644679     
  0.741851666785172       0.822405191537446       0.863020040130591     
  0.878865845185944        1.13006210398691        1.37009719769504     
   1.58143261507471        1.59842119400415        1.68497002493598     
   1.91590557804908        1.96669789584629        2.07166249533232     
   2.13081077445598        2.22853674977546        2.29039422292054     
   2.41819187159580        2.62165414649649        2.66689582608488     
   2.98533267622850        3.70626561576776        3.90185962482857     
   4.14540136030720        4.19441610585306        4.28655274900745     
   4.42675722184220        4.71202040768214        4.75474057943172     
   5.27108349027737        5.83319391971501        6.06104162539927     
[...]
 Convergence information after    13 iterations: 
 Largest element of residual vector : -0.14421640E-05.
 Largest element of DIIS residual   : -0.13632762E-05.
 Convergence information after    14 iterations: 
 Largest element of residual vector : -0.89033427E-06.
 Largest element of DIIS residual   : -0.80693436E-06.
 Convergence information after    15 iterations: 
 Largest element of residual vector : -0.41866682E-06.
 Largest element of DIIS residual   : -0.25283649E-06.
 Convergence information after    16 iterations: 
 Largest element of residual vector : -0.15450639E-06.
 Largest element of DIIS residual   : -0.13201477E-06.
 Convergence information after    17 iterations: 
 Largest element of residual vector : -0.69327615E-07.
 Largest element of DIIS residual   : -0.61482173E-07.
 Perturbed amplitude equations converged in    17 iterations.
  Dominant contributions to perturbed wavefunction:
    7    7  140   45  -0.2290126947 ABAB
    7    7   45  140  -0.2290126947 ABAB
    7    7  140   22  -0.2122989101 ABAB
    7    7   22  140  -0.2122989101 ABAB
    7    7  140   39  -0.2114737756 ABAB
    7    7   39  140  -0.2114737756 ABAB
    7    7  140   28   0.2044878609 ABAB
    7    7   28  140   0.2044878609 ABAB
    7    0   35    0   0.1646284156 AA  
    7    7  140   29  -0.1622826821 ABAB
    7    7   29  140  -0.1622826821 ABAB
    7    7  140   57   0.1591220871 ABAB
    7    7   57  140   0.1591220871 ABAB
    7    7  140   54   0.1467764720 ABAB
    7    7   54  140   0.1467764720 ABAB
    7    6   45   89  -0.1433252242 ABAB
    6    7   89   45  -0.1433252242 ABAB
    7    0   39    0   0.1354185790 AA  
    7    7  140   16   0.1329891704 ABAB
    7    7   16  140   0.1329891704 ABAB
  norm of converged amps    1.70796319707753     
 Starting iterative solution of the perturbed Lambda equations.
 The DIIS procedure is used to accelerate convergence.
 Convergence criterion is 10**(-7).
 Maximum number of iterations is 100.
 Convergence information after     1 iterations: 
 Largest element of residual vector :  0.77118913E-01.
 Largest element of DIIS residual   :  0.77118913E-01.
 Convergence information after     2 iterations: 
 Largest element of residual vector :  0.15359081E-01.
 Largest element of DIIS residual   :  0.11649066E-01.
 Convergence information after     3 iterations: 
 Largest element of residual vector : -0.65112592E-02.
 Largest element of DIIS residual   : -0.61864422E-02.
 Convergence information after     4 iterations: 
 Largest element of residual vector : -0.38596056E-02.
 Largest element of DIIS residual   : -0.34717399E-02.
 Convergence information after     5 iterations: 
 Largest element of residual vector : -0.32223785E-02.
 Largest element of DIIS residual   : -0.24676725E-02.
 Convergence information after     6 iterations: 
 Largest element of residual vector : -0.16045643E-02.
 Largest element of DIIS residual   : -0.71344459E-03.
 Convergence information after     7 iterations: 
 Largest element of residual vector : -0.73654938E-03.
 Largest element of DIIS residual   : -0.34690869E-03.
 Convergence information after     8 iterations: 
 Largest element of residual vector : -0.24162673E-03.
 Largest element of DIIS residual   : -0.15657189E-03.
 Convergence information after     9 iterations: 
 Largest element of residual vector : -0.10189618E-03.
 Largest element of DIIS residual   : -0.46140693E-04.
 Convergence information after    10 iterations: 
 Largest element of residual vector : -0.41685882E-04.
 Largest element of DIIS residual   : -0.18687686E-04.
 Convergence information after    11 iterations: 
 Largest element of residual vector : -0.86371170E-05.
 Largest element of DIIS residual   : -0.48909200E-05.
 Convergence information after    12 iterations: 
 Largest element of residual vector : -0.24095947E-05.
 Largest element of DIIS residual   : -0.18596808E-05.
 Convergence information after    13 iterations: 
 Largest element of residual vector : -0.15666293E-05.
 Largest element of DIIS residual   : -0.13599388E-05.
 Convergence information after    14 iterations: 
 Largest element of residual vector : -0.66214137E-06.
 Largest element of DIIS residual   : -0.52889521E-06.
 Convergence information after    15 iterations: 
 Largest element of residual vector : -0.37616197E-06.
 Largest element of DIIS residual   : -0.14381666E-06.
 Convergence information after    16 iterations: 
 Largest element of residual vector : -0.89561674E-07.
 Largest element of DIIS residual   : -0.86999272E-07.
 Perturbed Lambda equations converged in    16 iterations.
  Dominant contributions to perturbed wavefunction:
    7    7  140   45  -0.1924020495 ABAB
    7    7   45  140  -0.1924020495 ABAB
    7    7  140   22  -0.1780521905 ABAB
    7    7   22  140  -0.1780521905 ABAB
    7    7  140   39  -0.1760268242 ABAB
    7    7   39  140  -0.1760268242 ABAB
    7    7  140   28   0.1741346435 ABAB
    7    7   28  140   0.1741346435 ABAB
    7    7  140   29  -0.1333253407 ABAB
    7    7   29  140  -0.1333253407 ABAB
    7    7  140   57   0.1326080881 ABAB
    7    7   57  140   0.1326080881 ABAB
    7    7  140   54   0.1240127167 ABAB
    7    7   54  140   0.1240127167 ABAB
    7    6   45   89  -0.1189489535 ABAB
    6    7   89   45  -0.1189489535 ABAB
    7    7  140   16   0.1097570390 ABAB
    7    7   16  140   0.1097570390 ABAB
    7    6   39   89  -0.1092135760 ABAB
    6    7   89   39  -0.1092135760 ABAB
        The DBOC first-order density matrix is being calculated 
             (Symmetry block 3, perturbation   2)
 term   3.09701384122267     
 final tnorm  0.808811187672420     
  norm contr. I: |<0|L dT/dx|0>|^2   0.000000000000000E+000
  norm contr. II: <0|[nabla(1+L)e-T][nabla e^T]|0>   3.09701384122267     
  total norm contribution   3.09701384122267     
 oo  8.762229659518754E-003
 vv  -23.1797626005106     
 vo  7.061843839613920E-002
  Correlated perturbed 1-el contribution to DBOC  -23.1003819324550       cm**-1
  SUM_I |dc_I/dx|^2 contribution to DBOC   11.6593577623451       cm**-1
 
 
  The total diagonal Born-Oppenheimer correction (DBOC) is:      0.0040093345 a.u.
  The total diagonal Born-Oppenheimer correction (DBOC) is:        879.947215 cm-1
 
 Total CC energy including DBOC  -113.102576596445     
 First-order density matrix is being calculated  (Symmetry block 3, perturbation   2)
 Calculation of the contributions of <pq||rs> to dI(i,j)/dx required   4.2 seconds.
 Calculation of the contributions of <pq||rs> to dI(a,b)/dx required  15.9 seconds.
 Calculation of the contributions of <pq||rs> to dI(i,a)/dx required   9.2 seconds.
 First-order Z-vector equations are solved for 1 perturbation.
 Convergence reached after  19 iterations.
        U*G(pq,rs) contribution is being calculated
             (Symmetry block 3, perturbation   2)

 CCSD contribution to force constants 

        0.0000000000        0.0000000000        0.0000000000
        0.0000000000        0.0000000000        0.0000000000
        0.0000000000        0.0000000000        0.0000000000
        0.0000000000        0.0000000000        0.0000000000
        0.0000000000        0.0000000000        0.0000000000
        0.0000000000        0.0000000000        0.0000000000
        0.0000000000        0.0000000000        0.0000000000
        0.0000000000        0.0000000000        0.0000000000
        0.0000000000        0.0000000000        0.0000000000
        0.0000000000        0.0000000000        0.0000000000
        0.0000000000        0.0000000000        0.0000000000
        0.0000000000       -3.3693787563        3.3693787563

 CCSD contribution to dipole derivatives 

        0.0000000000        0.0000000000        0.0000000000
        0.0000000000        0.0000000000        0.0000000000
        0.0000000000        0.0000000000        0.0000000000
        0.0000000000        0.0000000000       -0.0570916009
        0.0000000000        0.0000000000        0.0000000000
        0.0000000000        0.0000000000        0.0000000000
 @CHECKOUT-I, Total execution time (CPU/WALL):     1275.66/     544.73 seconds.
--executable xsdcc finished with status     0 in      544.95 seconds (walltime).
 --invoking executable--
/nfs/workspaces/public/cfour_mpi/bin/xanti
 @GETMEM-I,  Allocated    3814 MB of main memory.
 CCSD MO derivative gammas will be sorted to Mulliken order.
 @CHECKOUT-I, Total execution time (CPU/WALL):       12.32/      34.14 seconds.
--executable xanti finished with status     0 in       34.30 seconds (walltime).
 --invoking executable--
/nfs/workspaces/public/cfour_mpi/bin/xbcktrn
 @GETMEM-I,  Allocated    3814 MB of main memory.
 CCSD MO derivative gammas will be transformed to the AO basis.
 @CHECKOUT-I, Total execution time (CPU/WALL):       25.69/       3.79 seconds.
--executable xbcktrn finished with status     0 in        3.85 seconds (walltime).
 --invoking executable--
/nfs/workspaces/public/cfour_mpi/bin/xvdint
 @GETMEM-I,  Allocated    3814 MB of main memory.
 One- and two-electron integral derivatives are calculated
 for RHF-CC/MBPT hessians and dipole derivatives.
 Spherical gaussians are used.
  magnet F F
                    8722  records have been written to the Sort file.
  Total length of Sort file :             178609116  words.
 Evaluation of 2el integral derivatives

                      Two-electron integral gradient
                      ------------------------------

                         C #1 z     0.0000000000
                         O #2 z     0.0000000000


 C #1       0.0000000000            0.0554796768            0.0000000000
 O #2       0.0000000000           -0.0554796768            0.0000000000


 Evaluation of 2e integral derivatives required  355.52 seconds.
  contribution to Hessian
        0.0000000000        0.0000000000        0.0000000000
        0.0000000000        0.0554796768       -0.0554796768
 @CHECKOUT-I, Total execution time (CPU/WALL):      355.51/      73.31 seconds.
--executable xvdint finished with status     0 in       73.48 seconds (walltime).
 --invoking executable--
/nfs/workspaces/public/cfour_mpi/bin/xanti
 @GETMEM-I,  Allocated    3814 MB of main memory.
 CCSD MO gammas will be sorted to Mulliken order.
 @CHECKOUT-I, Total execution time (CPU/WALL):       17.32/      56.05 seconds.
--executable xanti finished with status     0 in       57.25 seconds (walltime).
 --invoking executable--
/nfs/workspaces/public/cfour_mpi/bin/xbcktrn
 @GETMEM-I,  Allocated    3814 MB of main memory.
 CCSD MO gammas will be transformed to the AO basis.
 @CHECKOUT-I, Total execution time (CPU/WALL):       45.75/      20.59 seconds.
--executable xbcktrn finished with status     0 in       20.67 seconds (walltime).
 --invoking executable--
/nfs/workspaces/public/cfour_mpi/bin/xvdint
 @GETMEM-I,  Allocated    3814 MB of main memory.
 One- and two-electron integral derivatives are calculated
 for RHF-CC/MBPT hessians and dipole derivatives.
 Spherical gaussians are used.
  magnet F F

                     Kinetic energy integral gradient
                     --------------------------------

                         C #1 z    -0.5858244858
                         O #2 z     0.5858244858


 C #1       0.0000000000            0.0000000000           -0.5858244858
 O #2       0.0000000000            0.0000000000            0.5858244858



                   Nuclear attraction integral gradient
                   ------------------------------------

                         C #1 z    14.3964738983
                         O #2 z   -14.3964738983


 C #1       0.0000000000            0.0000000000           14.3964738983
 O #2       0.0000000000            0.0000000000          -14.3964738983



                      Reorthonormalization gradient
                      -----------------------------

                         C #1 z     0.0000000000
                         O #2 z     0.0000000000


 C #1       0.0000000000            0.0000000000            0.0000000000
 O #2       0.0000000000            0.0000000000            0.0000000000



                     Kinetic energy integral Hessian
                     -------------------------------


           Symmetry 1

           C #1 z      O #2 z

 C #1 z    0.612813
 O #2 z   -0.612813    0.612813


           Symmetry 2

           C #1 x      O #2 x

 C #1 x   -0.466735
 O #2 x    0.466735   -0.466735


           Symmetry 3

           C #1 y      O #2 y

 C #1 y   -0.466735
 O #2 y    0.466735   -0.466735




           C #1 x      C #1 y      C #1 z      O #2 x      O #2 y      O #2 z

 C #1 x   -0.466735
 C #1 y    0.000000   -0.466735
 C #1 z    0.000000    0.000000    0.612813

 O #2 x    0.466735    0.000000    0.000000   -0.466735
 O #2 y    0.000000    0.466735    0.000000    0.000000   -0.466735
 O #2 z    0.000000    0.000000   -0.612813    0.000000    0.000000    0.612813




                   Nuclear attraction integral Hessian
                   -----------------------------------


           Symmetry 1

           C #1 z      O #2 z

 C #1 z   -8.813102
 O #2 z    8.813102   -8.813102


           Symmetry 2

           C #1 x      O #2 x

 C #1 x    8.020932
 O #2 x   -8.020932    8.020932


           Symmetry 3

           C #1 y      O #2 y

 C #1 y    8.020932
 O #2 y   -8.020932    8.020932




           C #1 x      C #1 y      C #1 z      O #2 x      O #2 y      O #2 z

 C #1 x    8.020932
 C #1 y    0.000000    8.020932
 C #1 z    0.000000    0.000000   -8.813102

 O #2 x   -8.020932    0.000000    0.000000    8.020932
 O #2 y    0.000000   -8.020932    0.000000    0.000000    8.020932
 O #2 z    0.000000    0.000000    8.813102    0.000000    0.000000   -8.813102




                Highest order reorthonormalization Hessian
                ------------------------------------------


           Symmetry 1

           C #1 z      O #2 z

 C #1 z    0.000000
 O #2 z    0.000000    0.000000


           Symmetry 2

           C #1 x      O #2 x

 C #1 x    0.000000
 O #2 x    0.000000    0.000000


           Symmetry 3

           C #1 y      O #2 y

 C #1 y    0.000000
 O #2 y    0.000000    0.000000




           C #1 x      C #1 y      C #1 z      O #2 x      O #2 y      O #2 z




                Electronic contributions to dipole moment
                -----------------------------------------

                               au             Debye

                    z      1.25886299      3.19971111

  Conversion factor used: 1 a.u. =   2.54174691 Debye 



   Electronic contributions to static part of dipole moment derivatives
   --------------------------------------------------------------------


                     Total dipole moment derivatives
                     -------------------------------


           Symmetry 1
                              Ez

               C #1 z    -5.67270994
               O #2 z    -8.32729006

           Symmetry 2
                              Ex

               C #1 x    -5.67026953
               O #2 x    -8.32973047

           Symmetry 3
                              Ey

               C #1 y    -5.67026953
               O #2 y    -8.32973047



                       Ex          Ey          Ez

      C #1    x   -5.670270    0.000000    0.000000
      C #1    y    0.000000   -5.670270    0.000000
      C #1    z    0.000000    0.000000   -5.672710

      O #2    x   -8.329730    0.000000    0.000000
      O #2    y    0.000000   -8.329730    0.000000
      O #2    z    0.000000    0.000000   -8.327290

 Evaluation of 1e integral derivatives required    1.71 seconds.
                    8815  records have been written to the Sort file.
  Total length of Sort file :             180513570  words.
 Evaluation of 2el integral derivatives

                      Two-electron integral gradient
                      ------------------------------

                         C #1 z    -7.6190693151
                         O #2 z     7.6190693151


 C #1       0.0000000000            0.0000000000           -7.6190693151
 O #2       0.0000000000            0.0000000000            7.6190693151


 Evaluation of 2e integral derivatives required  725.19 seconds.

                            Molecular gradient
                            ------------------

                         C #1 z     0.6092657374
                         O #2 z    -0.6092657374


 C #1       0.0000000000            0.0000000000            0.6092657374
 O #2       0.0000000000            0.0000000000           -0.6092657374


  Molecular gradient norm 0.862E+00

                            Molecular hessian
                            -----------------


           Symmetry 1

           C #1 z      O #2 z

 C #1 z   18.621532
 O #2 z  -18.621532   18.621532


           Symmetry 2

           C #1 x      O #2 x

 C #1 x    3.573895
 O #2 x   -3.573895    3.573895


           Symmetry 3

           C #1 y      O #2 y

 C #1 y    3.573895
 O #2 y   -3.573895    3.573895




           C #1 x      C #1 y      C #1 z      O #2 x      O #2 y      O #2 z

 C #1 x    3.573895
 C #1 y    0.000000    3.573895
 C #1 z    0.000000    0.000000   18.621532

 O #2 x   -3.573895    0.000000    0.000000    3.573895
 O #2 y    0.000000   -3.573895    0.000000    0.000000    3.573895
 O #2 z    0.000000    0.000000  -18.621532    0.000000    0.000000   18.621532




                           Total dipole moment
                           -------------------

                               au             Debye

                    z      0.44409555      1.12877848

  Conversion factor used: 1 a.u. =   2.54174691 Debye 



                     Total dipole moment derivatives
                     -------------------------------


           Symmetry 1
                              Ez

               C #1 z     0.60627645
               O #2 z    -0.60627645

           Symmetry 2
                              Ex

               C #1 x     0.15706548
               O #2 x    -0.15706548

           Symmetry 3
                              Ey

               C #1 y     0.15706548
               O #2 y    -0.15706548



                       Ex          Ey          Ez

      C #1    x    0.157065    0.000000    0.000000
      C #1    y    0.000000    0.157065    0.000000
      C #1    z    0.000000    0.000000    0.606276

      O #2    x   -0.157065    0.000000    0.000000
      O #2    y    0.000000   -0.157065    0.000000
      O #2    z    0.000000    0.000000   -0.606276

 @CHECKOUT-I, Total execution time (CPU/WALL):      726.90/     126.75 seconds.
--executable xvdint finished with status     0 in      126.93 seconds (walltime).
 --invoking executable--
/nfs/workspaces/public/cfour_mpi/bin/xjoda
  @GTFLGS-I, Hessian will be transformed to curvilinear coordinates.
  @GTFLGS-I, Hessian will be transformed to curvilinear coordinates.
  igrd and ihes are                      0                     1
  gradient from JOBARC 
   0.000000000000000   0.000000000000000   0.609265737443154
   0.000000000000000   0.000000000000000  -0.609265737443154
 
  @PROJFCM-I, Projecting force constant matrix onto totally symmetric subspace.
  Largest difference between matrix elements of symmetrized
  and unsymmetrized FCM :    -0.2127187315E-12.
  read isotopes from ZMAT file 
 
  Summary of diagonal Born-Oppenheimer correction at the correlated level
  The total diagonal Born-Oppenheimer correction (DBOC) is:      0.0040093345 a.u.
  The total diagonal Born-Oppenheimer correction (DBOC) is:        879.947215 cm-1
  The total diagonal Born-Oppenheimer correction (DBOC) is:            10.527 kJ/mole
  hellooooooo 
  readis is  F
 
 @CHECKOUT-I, Total execution time (CPU/WALL):        0.01/       0.10 seconds.
--executable xjoda finished with status     0 in        0.15 seconds (walltime).
  The final electronic energy is      -113.102576596444862 a.u. 
  This computation required                         4695.05 seconds (walltime).
