 --invoking executable--
/nfs/workspaces/public/cfour_mpi/bin/xjoda


   *************************************************************************
         <<<     CCCCCC     CCCCCC   |||     CCCCCC     CCCCCC   >>>
       <<<      CCC        CCC       |||    CCC        CCC         >>>
      <<<      CCC        CCC        |||   CCC        CCC            >>>
    <<<        CCC        CCC        |||   CCC        CCC              >>>
      <<<      CCC        CCC        |||   CCC        CCC            >>>
       <<<      CCC        CCC       |||    CCC        CCC         >>>
         <<<     CCCCCC     CCCCCC   |||     CCCCCC     CCCCCC   >>>
   *************************************************************************

     ****************************************************************
     * CFOUR Coupled-Cluster techniques for Computational Chemistry *
     ****************************************************************
 

   Department of Chemistry                Institut fuer Physikalische Chemie
   University of Florida                  Universitaet Mainz
   Gainesville, FL 32611, USA             D-55099 Mainz, Germany

   Department of Chemistry                Fakultaet fuer Chemie und Biowiss.
   Johns Hopkins University               Karlsruher Institut fuer Technologie
   Baltimore, MD 21218, USA               D-76131 Karlsruhe, Germany

   Department of Chemistry                Department of Physical Chemistry
   Southern Methodist University          Eotvos Lorand University
   Dallas, TX 75275, USA                  H-1053 Budapest, Hungary

 
                       Version 2.1
 
                     vincent.theory.phys.ucl.ac.uk                     
                     Wed 26 Feb 13:57:37 GMT 2025                      
                     integer*8 version is running
 
********************************************************************************
*                          Input from ZMAT file                                *
********************************************************************************
Carbon Monoxide DBOC calculation                                                
C                                                                               
O 1 r                                                                           
                                                                                
r=0.9310344827586207                                                            
                                                                                
                                                                                
*CFOUR(CALC=CCSD,BASIS=AUG-PCVQZ,SCF_CONV=10                                    
CC_CONV=14,DBOC=ON,MEMORY=500000000                                             
ZFIELD=-200)                                                                    
                                                                                
%isotopes                                                                       
13                                                                              
16                                                                              
********************************************************************************
  @GTFLGS-I, Hessian will be transformed to curvilinear coordinates.
    -------------------------------------------------------------------
                    CFOUR Control Parameters 
    -------------------------------------------------------------------
        External           Internal           Value            Units
          Name               Name
    -------------------------------------------------------------------
       ABCDTYPE             IABCDT         STANDARD    [  0]    ***   
       ANHARMONIC           IANHAR         OFF         [  0]    ***   
       ANH_ALGORIT          IANALG         STANDARD    [  0]    ***   
       ANH_DERIVAT          IANDER         SECOND      [  1]    ***   
       ANH_MODE             ANHMOD         VIBRATION   [  0]    ***   
       ANH_STEPSIZ          ICUBST             50000          x 10-6  
       ANH_SYMMETR          IANHSM         ABELIAN     [  0]    ***   
       AO_LADDERS           IAOLAD         SINGLEPASS  [  1]    ***   
       AV_SCF               IAVSCF         OFF         [  0]    ***   
       BASIS                IBASIS         AUG-PCVQZ   [ 52]    ***   
       BOTHVECTORS          BOTHVC         OFF         [  0]    ***   
       BOX_POTENT           IPIAB          OFF         [  0]    ***   
       BREIT                IBREIT         OFF         [  0]    ***   
       BRUCK_CONV           IBRTOL          10D-  4             ***   
       BRUECKNER            IBRKNR         OFF         [  0]    ***   
       BUFFERSIZE           IBUFFS              4096            ***   
       CACHE_RECS           ICHREC             10               ***   
       CALCLEVEL            ICLLVL         CCSD        [ 10]    ***   
       CCORBOPT             ICCORB         OFF         [  0]  x 0.01  
       CC_CONV              ICCCNV          10D- 14             ***   
       CC_EXPORDER          ICCEOR              5               ***   
       CC_EXTRAPOL          ICCEXT         DIIS        [  1]    ***   
       CC_GUESS             ICCGES         MP2         [  0]    ***   
       CC_MAXCYC            ICCCYC            100              cycles 
       CC_PROGRAM           ICCPRO         VCC         [  0]    ***   
       CHARGE               ICHRGE              0               ***   
       CHOLESKY             ICHOLE         OFF         [  0]    ***   
       CIS_CONV             ICISTL              5               ***   
       COMM_SIZE            IPSIZE            ***               ***   
       CONSTANT             ICONST         OLD         [  1]    ***   
       CONTINUUM            ICONTU         NONE        [  0]    ***   
       CONTRACTION          ICNTYP         GENERAL     [  1]    ***   
       COORDINATES          ICOORD         INTERNAL    [  0]    ***   
       CPHF_CONVER          ICPHFT          10D- 16             ***   
       CPHF_MAXCYC          ICPHFC             64              cycles 
       CUBIC                ICUBIC         OFF         [  0]    ***   
       CURVILINEAR          ICURVY         ON          [  1]    ***   
       DBOC                 IDBOC          ON          [  1]    ***   
       DCT                  IDCT           OFF         [  0]    ***   
       DERIV_LEV            IDRLVL         SECOND      [  2]    ***   
       DEVMEM_SIZE          IDVMEM          50000000           MByte  
       DIAG_MRCC            IEOMST          10D-  0             ***   
       DIFF_TYPE            IDIFTY         RELAXED     [  0]    ***   
       DIRECT               IDIRCT         OFF         [  0]    ***   
       DROPMO               IDRPMO      NONE         
       ECP                  IECP           OFF         [  0]    ***   
       EIGENVECTOR          IVEC                1               ***   
       EL_ANHARM            IELANH         OFF         [  0]    ***   
       EOMFOLLOW            IEOMSR         ENERGY      [  0]    ***   
       EOMIP                IEOMIP         OFF         [  0]    ***   
       EOMLEVEL             HBARFM         SAME        [  0]    ***   
       EOM_MRCC             IMRCCE         NEW         [  1]    ***   
       EOM_NONIT            EOMNON         OFF         [  0]    ***   
       EOM_NSING            IEOMSI          10D-  0             ***   
       EOM_NSTATES          IMRCCD         DAVIDSON    [  0]    ***   
       EOM_NTRIP            IEOMTR          10D-  0             ***   
       EOM_ORDER            IEXORD         ENERGY      [  0]    ***   
       EOM_PROPSTA          IEOMST              0               ***   
       ESTATE_CONV          IEXTOL          10D-  5             ***   
       ESTATE_DIAG          IEXDIG         ITERATIVE   [  0]    ***   
       ESTATE_LOCK          IESLOC         ON          [  1]    ***   
       ESTATE_MAXC          IEXMXC             40               ***   
       ESTATE_PROP          IEXPRP         OFF         [  0]    ***   
       EVAL_HESS            IRECAL              0            # of cyc.
       EXCITATION           IEXCIT              0               ***   
       EXCITE               IEXCIT         NONE        [  0]    ***   
       EXTERN_POT           IEXPOT         OFF         [  0]    ***   
       FCGRADNEW            IFCGNW         OFF         [  0]    ***   
       FC_FIELD             IFINFC              0             x 10-6  
       FD_CALTYPE           IFDCAL         GRADONLY    [  0]    ***   
       FD_PROJECT           IFDPRJ         OFF         [  1]    ***   
       FD_STEPSIZE          IDISFD              0            10-4 bohr
       FD_USEGROUP          IFDGRP         FULL        [  0]    ***   
       FILE_RECSIZ          IFLREC              4096           words  
       FINITE_PERT          IFIPER              0             x 10-6  
       FIXGEOM              IFIXGM         OFF         [  0]    ***   
       FOCK                 IFOCK          AO          [  1]    ***   
       FREQ_ALGORI          IVIALG         STANDARD    [  0]    ***   
       FROZEN_CORE          IFROCO         OFF         [  0]    ***   
       GAMMA_ABCD           IGABCD         STORE       [  0]    ***   
       GAMMA_ABCI           IGABCI         STORE       [  0]    ***   
       GENBAS_1             IGNBS1              0               ***   
       GENBAS_2             IGNBS2              0               ***   
       GENBAS_3             IGNBS3              0               ***   
       GENBAS_4             IGNBS4              0               ***   
       GEO_CONV             ICONTL              5              H/bohr 
       GEO_MAXCYC           IOPTCY             50               ***   
       GEO_MAXSTEP          IMXSTP            300            millibohr
       GEO_METHOD           INR            SINGLE_POINT[  5]    ***   
       GIAO                 IGIAO          OFF         [  1]    ***   
       GIMIC                IGIMIC         OFF         [  0]    ***   
       GRID                 IGRID          OFF         [  0]    ***   
       GRID_ALGO            IGALGO         SERIAL      [  0]    ***   
       GUESS                IGUESS         MOREAD      [  0]    ***   
       HBAR                 IHBAR          OFF         [  0]    ***   
       HESS_TYPE            IHESTP         SCF         [  0]    ***   
       HF2_FILE             IHF2Fl         USE         [  1]    ***   
       HFSTABILITY          ISTABL         OFF         [  0]    ***   
       INCORE               INCORE         OFF         [  0]    ***   
       INPUT_MRCC           IMRCC          ON          [  1]    ***   
       INTEGRALS            INTTYP         VMOL        [  1]    ***   
       JODA_PRINT           IJPRNT              0               ***   
       KEYWORD_OUT          IDMPKW         NO          [  0]    ***   
       LINDEP_TOL           ILINDP              8               ***   
       LINEQ_CONV           IZTACN          10D-  7           cycles  
       LINEQ_EXPOR          ILMAXD              5               ***   
       LINEQ_MAXCY          ILMAXC            100               ***   
       LINEQ_TYPE           ILTYPE         DIIS        [  1]    ***   
       LOCK_ORBOCC          ILOCOC         OFF         [  0]    ***   
       MEMORY_SIZE          IMEMSZ         500000000           words  
       MEM_UNIT             IMEMU          INTEGERWORDS[  0]    ***   
       MRCC                 IMRCCC         OFF         [  0]    ***   
       MULTIPLICTY          IMULTP              1               ***   
       NACOUPLING           IVCOUP         OFF         [  0]    ***   
       NEGEVAL              IDIE           ABORT       [  0]    ***   
       NEWNORM              INEWNO         OFF         [  0]    ***   
       NON-HF               INONHF         OFF         [  0]    ***   
       NTOP_TAMP            ITOPT2             15               ***   
       NUC_MODEL            INUCMO         POINT       [  0]    ***   
       OCCUPATION           IOCCU   ESTIMATED BY SCF 
       OPEN-SHELL           IOPEN          SPIN-ORBITAL[  0]    ***   
       OPTVIB               IOPTVB         OFF         [  0]    ***   
       ORBITALS             IORBTP         STANDARD    [  0]    ***   
       PARALLEL             IPARAL         ON          [  1]    ***   
       PARA_INT             IPINTS         ON          [  1]    ***   
       PARA_PRINT           IPPRIN              0               ***   
       PERT_ORB             IPTORB         STANDARD    [  0]    ***   
       POINTS               IGRDFD              0               ***   
       PRINT                IPRNT               0               ***   
       PROPS                IPROPS         OFF         [  0]    ***   
       PROP_INTEGR          IINTYP         INTERNAL    [  0]    ***   
       PSI                  IPSI           OFF         [  0]    ***   
       QC_ALG               IQCALG         FLM         [  0]    ***   
       QC_LINALG            IQCLIN         TRIDIAG     [  2]    ***   
       QC_MAXCYC            IQCMAX          10D-100           cycles  
       QC_MAXSCFCY          IQCMSC          10D- 15           cycles  
       QC_RTRUST            IQCRTR          10D-  0           x 10-3  
       QC_SKIPSCF           IQCSKI         OFF         [  0]    ***   
       QC_START             IQCSTA          10D-  1             ***   
       QRHFGUESS            IQGUES         OFF         [  0]    ***   
       QUARTIC              IQUART         OFF         [  0]    ***   
       RAMAN_INT            IRAMIN         OFF         [  0]    ***   
       RAMAN_ORB            IRAMRE         UNRELAXED   [  0]    ***   
       RDO                  IRDOFM         ON          [  1]    ***   
       REDUCE_REPR          REDREP         Ir          [  0]    ***   
       REFERENCE            IREFNC         RHF         [  0]    ***   
       RELATIVIST           IRELAT         OFF         [  0]    ***   
       RELAX_DENS           IRDENS         ON          [  1]    ***   
       RESET_FLAGS          IRESET         OFF         [  0]    ***   
       RESTART_CC           ICCRES         OFF         [  0]    ***   
       ROT_EVEC             ROTVEC              0               ***   
       SAVE_INTS            ISVINT         OFF         [  0]    ***   
       SCALE_ON             ISTCRT              0               ***   
       SCF_CONV             ISCFCV          10D- 10             ***   
       SCF_DAMPING          IDAMP               0             x 10-3  
       SCF_EXPORDE          IRPPOR              6               ***   
       SCF_EXPSTAR          IRPPLS              8               ***   
       SCF_EXTRAPO          IRPP           ON          [  1]    ***   
       SCF_MAXCYC           ISCFCY            150              cycles 
       SCF_NOSTOP           ISCFST         OFF         [  0]    ***   
       SCF_PRINT            ISCFPR              0               ***   
       SCF_PROG             ISCFPR         SCF         [  0]    ***   
       SD_FIELD             IFINSD              0             x 10-6  
       SOPERT               IPERSO         OFF         [  0]    ***   
       SPHERICAL            IDFGHI         ON          [  1]    ***   
       SPINORBIT            ISOCAL         OFF         [  0]    ***   
       SPINROTATIO          ISRCON         OFF         [  0]    ***   
       SPIN_FLIP            ISPFLP         OFF         [  0]    ***   
       SPIN_ORBIT           ISPORB         OFF         [  0]    ***   
       SPIN_SCAL            ISCSMP         OFF         [  0]    ***   
       STEEPSCALE           ISTPSC              1000          x 10-3  
       SUBGROUP             ISUBGP         DEFAULT     [  0]    ***   
       SUBGRPAXIS           ISBXYZ         X           [  0]    ***   
       SYMMETRY             ISYM           ON          [  0]    ***   
       SYM_CHECK            ISYMCK         OVERRIDE    [  1]    ***   
       T3_EXTRAPOL          IT3EXT         OFF         [  0]    ***   
       T4_EXTRAPOL          IT4EXP         OFF         [  0]    ***   
       TAMP_SUM             IEVERY              5               ***   
       TESTSUITE            ITESTS         OFF         [  0]    ***   
       THERMOCH             ITHERM         OFF         [  0]    ***   
       TOL_CHOLESK          ITOLCH          10D-  4             ***   
       TRANGRAD             IRESRM         OFF         [  0]    ***   
       TRANS_INV            ITRAIN         IGNORE      [  1]    ***   
       TREAT_PERT           ITREAT         SIMULTANEOUS[  0]    ***   
       TRIP_ALGORI          ITRALG         NORMAL      [  0]    ***   
       UIJ_THRESHO          IUIJTH              1               ***   
       UNITS                IUNITS         ANGSTROM    [  0]    ***   
       UNOS                 IUNOS          OFF         [  0]    ***   
       UPDATE_HESS          IHUPDT         ON          [  1]    ***   
       VIBPHASE             ISETPH         STANDARD    [  0]    ***   
       VIBRATION            IVIB           ANALYTIC    [  1]    ***   
       VIB_ALGORIT          IGEALG         STANDARD    [  0]    ***   
       VNATORB              IVNORB         OFF         [  0]    ***   
       VTRAN                IVTRAN         FULL/PARTIAL[  0]    ***   
       XFIELD               IXEFLD              0             x 10-6  
       XFORM_TOL            IXFTOL          10D- 11             ***   
       YFIELD               IYEFLD              0             x 10-6  
       ZFIELD               IZEFLD            ***             x 10-6  
       ZSCALE_EXP           IZEXPS         OFF         [  0]    ***   
    -------------------------------------------------------------------
   2 entries found in Z-matrix 
   Job Title : Carbon Monoxide DBOC calculation                                                
   There are  1 unique internal coordinates.
   Of these,  0 will be optimized.
   User supplied Z-matrix: 
--------------------------------------------------------------------------------
       SYMBOL    BOND      LENGTH    ANGLE     ANGLE     DIHED     ANGLE
                  TO      (ANGST)    WRT      (DEG)      WRT      (DEG)
--------------------------------------------------------------------------------
        C    
        O          1         r    
                  *Initial values for internal coordinates* 
                      Name             Value
                        r               0.9310344828
--------------------------------------------------------------------------------
  read isotopes from ZMAT file 
   Rotational constants (in cm-1): 
          2.7114385342             2.7114385342
   Rotational constants (in MHz): 
      81286.8936773743         81286.8936773743
********************************************************************************
   The full molecular point group is CXv .
   The largest Abelian subgroup of the full molecular point group is C2v .
   The computational point group is C2v .
********************************************************************************
--------------------------------------------------------------------------------
   Analysis of internal coordinates specified by Z-matrix 
--------------------------------------------------------------------------------
   *The nuclear repulsion energy is   27.282019377777775 a.u.
   *There is   1 degree of freedom within the tot. symm. molecular subspace.
   *Z-matrix requests optimization of   0 coordinates.
   *The optimization is constrained.
   *The following   1 parameters can have non-zero 
    derivatives within the totally symmetric subspace:
             r    [ 1]
   *The following   0 parameters are to be optimized:

   *The following coordinates must be varied in an  unconstrained optimization.
             r    [ 1]
--------------------------------------------------------------------------------


 ----------------------------------------------------------------
         Coordinates used in calculation (QCOMP) 
 ----------------------------------------------------------------
 Z-matrix   Atomic            Coordinates (in bohr)
  Symbol    Number           X              Y              Z
 ----------------------------------------------------------------
     C         6        -0.00000000     0.00000000     0.97045314
     O         8         0.00000000     0.00000000    -0.78894741
 ----------------------------------------------------------------
 
   Interatomic distance matrix (Angstroms) 
 
                 C             O    
                [ 1]        [ 2]
  C    [ 1]     0.00000
  O    [ 2]     0.93103     0.00000
 rotcon2
   Rotational constants (in cm-1): 
          2.7114385342             0.0000000000
   Rotational constants (in MHz): 
      81286.8936773743             0.0000000000
  ECPDATA file not present.   Using default ECPDATA. 
  @GTFLGS-I, Hessian will be transformed to curvilinear coordinates.
  There are  218 basis functions.
 @CHECKOUT-I, Total execution time (CPU/WALL):        0.10/       0.15 seconds.
--executable xjoda finished with status     0 in        0.17 seconds (walltime).
 --invoking executable--
/nfs/workspaces/public/cfour_mpi/bin/xvmol
 SERIAL VERSION OF MOLECULE STARTED
********************************************************************************
                    INPUT FROM MOL FILE
********************************************************************************
INTGRL        1    0    1    0    0    0    0    0    0                         
         *** CFOUR Program System (Release V0.1) ***                            
Carbon Monoxide DBOC calculation                                                
    2    2 X  Y       0.10E-08              0    0                              
   9999.00      3.00                                                            
          6.00000000    1    5    1    1    1    1    1                         
C #1  -0.000000000000000   0.000000000000000   0.970453140298837                
   16    9                                                                      
   33980.0000000000       9.100000000000000E-005 -1.900000000000000E-005        
  0.000000000000000E+000  0.000000000000000E+000  0.000000000000000E+000        
  0.000000000000000E+000  0.000000000000000E+000  0.000000000000000E+000        
  0.000000000000000E+000                                                        
   5089.00000000000       7.040000000000000E-004 -1.510000000000000E-004        
  0.000000000000000E+000  0.000000000000000E+000  0.000000000000000E+000        
  0.000000000000000E+000  0.000000000000000E+000  0.000000000000000E+000        
  0.000000000000000E+000                                                        
   1157.00000000000       3.693000000000000E-003 -7.850000000000000E-004        
  0.000000000000000E+000  0.000000000000000E+000  0.000000000000000E+000        
  0.000000000000000E+000  0.000000000000000E+000  0.000000000000000E+000        
  0.000000000000000E+000                                                        
   326.600000000000       1.536000000000000E-002 -3.324000000000000E-003        
  0.000000000000000E+000  0.000000000000000E+000  0.000000000000000E+000        
  0.000000000000000E+000  0.000000000000000E+000  0.000000000000000E+000        
  0.000000000000000E+000                                                        
   106.100000000000       5.292900000000000E-002 -1.151200000000000E-002        
  0.000000000000000E+000  0.000000000000000E+000  0.000000000000000E+000        
  0.000000000000000E+000  0.000000000000000E+000  0.000000000000000E+000        
  0.000000000000000E+000                                                        
   38.1100000000000       0.147043000000000      -3.416000000000000E-002        
  0.000000000000000E+000  0.000000000000000E+000  0.000000000000000E+000        
  0.000000000000000E+000  0.000000000000000E+000  0.000000000000000E+000        
  0.000000000000000E+000                                                        
   14.7500000000000       0.305631000000000      -7.717300000000001E-002        
  0.000000000000000E+000  0.000000000000000E+000  0.000000000000000E+000        
  0.000000000000000E+000  0.000000000000000E+000  0.000000000000000E+000        
  0.000000000000000E+000                                                        
   6.03500000000000       0.399345000000000      -0.141493000000000             
  0.000000000000000E+000  0.000000000000000E+000  0.000000000000000E+000        
  0.000000000000000E+000  0.000000000000000E+000  0.000000000000000E+000        
  0.000000000000000E+000                                                        
   2.53000000000000       0.217051000000000      -0.118019000000000             
  0.000000000000000E+000  0.000000000000000E+000  0.000000000000000E+000        
  0.000000000000000E+000  0.000000000000000E+000  0.000000000000000E+000        
  0.000000000000000E+000                                                        
  0.735500000000000       1.589400000000000E-002  0.273806000000000             
   1.00000000000000       0.000000000000000E+000  0.000000000000000E+000        
  0.000000000000000E+000  0.000000000000000E+000  0.000000000000000E+000        
  0.000000000000000E+000                                                        
  0.290500000000000      -3.084000000000000E-003  0.586510000000000             
  0.000000000000000E+000   1.00000000000000       0.000000000000000E+000        
  0.000000000000000E+000  0.000000000000000E+000  0.000000000000000E+000        
  0.000000000000000E+000                                                        
  0.111100000000000       9.779999999999999E-004  0.285430000000000             
  0.000000000000000E+000  0.000000000000000E+000   1.00000000000000             
  0.000000000000000E+000  0.000000000000000E+000  0.000000000000000E+000        
  0.000000000000000E+000                                                        
   7.21600000000000       0.000000000000000E+000  0.000000000000000E+000        
  0.000000000000000E+000  0.000000000000000E+000  0.000000000000000E+000        
   1.00000000000000       0.000000000000000E+000  0.000000000000000E+000        
  0.000000000000000E+000                                                        
   19.5700000000000       0.000000000000000E+000  0.000000000000000E+000        
  0.000000000000000E+000  0.000000000000000E+000  0.000000000000000E+000        
  0.000000000000000E+000   1.00000000000000       0.000000000000000E+000        
  0.000000000000000E+000                                                        
   53.0730000000000       0.000000000000000E+000  0.000000000000000E+000        
  0.000000000000000E+000  0.000000000000000E+000  0.000000000000000E+000        
  0.000000000000000E+000  0.000000000000000E+000   1.00000000000000             
  0.000000000000000E+000                                                        
  4.145000000000000E-002  0.000000000000000E+000  0.000000000000000E+000        
  0.000000000000000E+000  0.000000000000000E+000  0.000000000000000E+000        
  0.000000000000000E+000  0.000000000000000E+000  0.000000000000000E+000        
   1.00000000000000                                                             
   10    8                                                                      
   34.5100000000000       5.378000000000000E-003  0.000000000000000E+000        
  0.000000000000000E+000  0.000000000000000E+000  0.000000000000000E+000        
  0.000000000000000E+000  0.000000000000000E+000  0.000000000000000E+000        
   7.91500000000000       3.613200000000000E-002  0.000000000000000E+000        
  0.000000000000000E+000  0.000000000000000E+000  0.000000000000000E+000        
  0.000000000000000E+000  0.000000000000000E+000  0.000000000000000E+000        
   2.36800000000000       0.142493000000000       0.000000000000000E+000        
  0.000000000000000E+000  0.000000000000000E+000  0.000000000000000E+000        
  0.000000000000000E+000  0.000000000000000E+000  0.000000000000000E+000        
  0.813200000000000       0.342150000000000        1.00000000000000             
  0.000000000000000E+000  0.000000000000000E+000  0.000000000000000E+000        
  0.000000000000000E+000  0.000000000000000E+000  0.000000000000000E+000        
  0.289000000000000       0.463864000000000       0.000000000000000E+000        
   1.00000000000000       0.000000000000000E+000  0.000000000000000E+000        
  0.000000000000000E+000  0.000000000000000E+000  0.000000000000000E+000        
  0.100700000000000       0.250028000000000       0.000000000000000E+000        
  0.000000000000000E+000   1.00000000000000       0.000000000000000E+000        
  0.000000000000000E+000  0.000000000000000E+000  0.000000000000000E+000        
   8.18200000000000       0.000000000000000E+000  0.000000000000000E+000        
  0.000000000000000E+000  0.000000000000000E+000   1.00000000000000             
  0.000000000000000E+000  0.000000000000000E+000  0.000000000000000E+000        
   24.1860000000000       0.000000000000000E+000  0.000000000000000E+000        
  0.000000000000000E+000  0.000000000000000E+000  0.000000000000000E+000        
   1.00000000000000       0.000000000000000E+000  0.000000000000000E+000        
   71.4940000000000       0.000000000000000E+000  0.000000000000000E+000        
  0.000000000000000E+000  0.000000000000000E+000  0.000000000000000E+000        
  0.000000000000000E+000   1.00000000000000       0.000000000000000E+000        
  3.218000000000000E-002  0.000000000000000E+000  0.000000000000000E+000        
  0.000000000000000E+000  0.000000000000000E+000  0.000000000000000E+000        
  0.000000000000000E+000  0.000000000000000E+000   1.00000000000000             
    6    6                                                                      
   1.84800000000000        1.00000000000000       0.000000000000000E+000        
  0.000000000000000E+000  0.000000000000000E+000  0.000000000000000E+000        
  0.000000000000000E+000                                                        
  0.649000000000000       0.000000000000000E+000   1.00000000000000             
  0.000000000000000E+000  0.000000000000000E+000  0.000000000000000E+000        
  0.000000000000000E+000                                                        
  0.228000000000000       0.000000000000000E+000  0.000000000000000E+000        
   1.00000000000000       0.000000000000000E+000  0.000000000000000E+000        
  0.000000000000000E+000                                                        
   8.65600000000000       0.000000000000000E+000  0.000000000000000E+000        
  0.000000000000000E+000   1.00000000000000       0.000000000000000E+000        
  0.000000000000000E+000                                                        
   33.2130000000000       0.000000000000000E+000  0.000000000000000E+000        
  0.000000000000000E+000  0.000000000000000E+000   1.00000000000000             
  0.000000000000000E+000                                                        
  7.660000000000000E-002  0.000000000000000E+000  0.000000000000000E+000        
  0.000000000000000E+000  0.000000000000000E+000  0.000000000000000E+000        
   1.00000000000000                                                             
    4    4                                                                      
   1.41900000000000        1.00000000000000       0.000000000000000E+000        
  0.000000000000000E+000  0.000000000000000E+000                                
  0.485000000000000       0.000000000000000E+000   1.00000000000000             
  0.000000000000000E+000  0.000000000000000E+000                                
   24.6940000000000       0.000000000000000E+000  0.000000000000000E+000        
   1.00000000000000       0.000000000000000E+000                                
  0.187000000000000       0.000000000000000E+000  0.000000000000000E+000        
  0.000000000000000E+000   1.00000000000000                                     
    2    2                                                                      
   1.01100000000000        1.00000000000000       0.000000000000000E+000        
  0.424000000000000       0.000000000000000E+000   1.00000000000000             
          8.00000000    1    5    1    1    1    1    1                         
O #2   0.000000000000000   0.000000000000000  -0.788947413426222                
   16    9                                                                      
   61420.0000000000       9.000000000000001E-005 -2.000000000000000E-005        
  0.000000000000000E+000  0.000000000000000E+000  0.000000000000000E+000        
  0.000000000000000E+000  0.000000000000000E+000  0.000000000000000E+000        
  0.000000000000000E+000                                                        
   9199.00000000000       6.980000000000001E-004 -1.590000000000000E-004        
  0.000000000000000E+000  0.000000000000000E+000  0.000000000000000E+000        
  0.000000000000000E+000  0.000000000000000E+000  0.000000000000000E+000        
  0.000000000000000E+000                                                        
   2091.00000000000       3.664000000000000E-003 -8.290000000000000E-004        
  0.000000000000000E+000  0.000000000000000E+000  0.000000000000000E+000        
  0.000000000000000E+000  0.000000000000000E+000  0.000000000000000E+000        
  0.000000000000000E+000                                                        
   590.900000000000       1.521800000000000E-002 -3.508000000000000E-003        
  0.000000000000000E+000  0.000000000000000E+000  0.000000000000000E+000        
  0.000000000000000E+000  0.000000000000000E+000  0.000000000000000E+000        
  0.000000000000000E+000                                                        
   192.300000000000       5.242300000000000E-002 -1.215600000000000E-002        
  0.000000000000000E+000  0.000000000000000E+000  0.000000000000000E+000        
  0.000000000000000E+000  0.000000000000000E+000  0.000000000000000E+000        
  0.000000000000000E+000                                                        
   69.3200000000000       0.145921000000000      -3.626100000000000E-002        
  0.000000000000000E+000  0.000000000000000E+000  0.000000000000000E+000        
  0.000000000000000E+000  0.000000000000000E+000  0.000000000000000E+000        
  0.000000000000000E+000                                                        
   26.9700000000000       0.305258000000000      -8.299200000000000E-002        
  0.000000000000000E+000  0.000000000000000E+000  0.000000000000000E+000        
  0.000000000000000E+000  0.000000000000000E+000  0.000000000000000E+000        
  0.000000000000000E+000                                                        
   11.1000000000000       0.398508000000000      -0.152090000000000             
  0.000000000000000E+000  0.000000000000000E+000  0.000000000000000E+000        
  0.000000000000000E+000  0.000000000000000E+000  0.000000000000000E+000        
  0.000000000000000E+000                                                        
   4.68200000000000       0.216980000000000      -0.115331000000000             
  0.000000000000000E+000  0.000000000000000E+000  0.000000000000000E+000        
  0.000000000000000E+000  0.000000000000000E+000  0.000000000000000E+000        
  0.000000000000000E+000                                                        
   1.42800000000000       1.759400000000000E-002  0.288979000000000             
   1.00000000000000       0.000000000000000E+000  0.000000000000000E+000        
  0.000000000000000E+000  0.000000000000000E+000  0.000000000000000E+000        
  0.000000000000000E+000                                                        
  0.554700000000000      -2.502000000000000E-003  0.586128000000000             
  0.000000000000000E+000   1.00000000000000       0.000000000000000E+000        
  0.000000000000000E+000  0.000000000000000E+000  0.000000000000000E+000        
  0.000000000000000E+000                                                        
  0.206700000000000       9.540000000000000E-004  0.277624000000000             
  0.000000000000000E+000  0.000000000000000E+000   1.00000000000000             
  0.000000000000000E+000  0.000000000000000E+000  0.000000000000000E+000        
  0.000000000000000E+000                                                        
   12.9740000000000       0.000000000000000E+000  0.000000000000000E+000        
  0.000000000000000E+000  0.000000000000000E+000  0.000000000000000E+000        
   1.00000000000000       0.000000000000000E+000  0.000000000000000E+000        
  0.000000000000000E+000                                                        
   34.9000000000000       0.000000000000000E+000  0.000000000000000E+000        
  0.000000000000000E+000  0.000000000000000E+000  0.000000000000000E+000        
  0.000000000000000E+000   1.00000000000000       0.000000000000000E+000        
  0.000000000000000E+000                                                        
   93.8810000000000       0.000000000000000E+000  0.000000000000000E+000        
  0.000000000000000E+000  0.000000000000000E+000  0.000000000000000E+000        
  0.000000000000000E+000  0.000000000000000E+000   1.00000000000000             
  0.000000000000000E+000                                                        
  6.959000000000000E-002  0.000000000000000E+000  0.000000000000000E+000        
  0.000000000000000E+000  0.000000000000000E+000  0.000000000000000E+000        
  0.000000000000000E+000  0.000000000000000E+000  0.000000000000000E+000        
   1.00000000000000                                                             
   10    8                                                                      
   63.4200000000000       6.044000000000000E-003  0.000000000000000E+000        
  0.000000000000000E+000  0.000000000000000E+000  0.000000000000000E+000        
  0.000000000000000E+000  0.000000000000000E+000  0.000000000000000E+000        
   14.6600000000000       4.179900000000000E-002  0.000000000000000E+000        
  0.000000000000000E+000  0.000000000000000E+000  0.000000000000000E+000        
  0.000000000000000E+000  0.000000000000000E+000  0.000000000000000E+000        
   4.45900000000000       0.161143000000000       0.000000000000000E+000        
  0.000000000000000E+000  0.000000000000000E+000  0.000000000000000E+000        
  0.000000000000000E+000  0.000000000000000E+000  0.000000000000000E+000        
   1.53100000000000       0.356731000000000        1.00000000000000             
  0.000000000000000E+000  0.000000000000000E+000  0.000000000000000E+000        
  0.000000000000000E+000  0.000000000000000E+000  0.000000000000000E+000        
  0.530200000000000       0.448309000000000       0.000000000000000E+000        
   1.00000000000000       0.000000000000000E+000  0.000000000000000E+000        
  0.000000000000000E+000  0.000000000000000E+000  0.000000000000000E+000        
  0.175000000000000       0.244940000000000       0.000000000000000E+000        
  0.000000000000000E+000   1.00000000000000       0.000000000000000E+000        
  0.000000000000000E+000  0.000000000000000E+000  0.000000000000000E+000        
   14.4750000000000       0.000000000000000E+000  0.000000000000000E+000        
  0.000000000000000E+000  0.000000000000000E+000   1.00000000000000             
  0.000000000000000E+000  0.000000000000000E+000  0.000000000000000E+000        
   42.7300000000000       0.000000000000000E+000  0.000000000000000E+000        
  0.000000000000000E+000  0.000000000000000E+000  0.000000000000000E+000        
   1.00000000000000       0.000000000000000E+000  0.000000000000000E+000        
   126.140000000000       0.000000000000000E+000  0.000000000000000E+000        
  0.000000000000000E+000  0.000000000000000E+000  0.000000000000000E+000        
  0.000000000000000E+000   1.00000000000000       0.000000000000000E+000        
  5.348000000000000E-002  0.000000000000000E+000  0.000000000000000E+000        
  0.000000000000000E+000  0.000000000000000E+000  0.000000000000000E+000        
  0.000000000000000E+000  0.000000000000000E+000   1.00000000000000             
    6    6                                                                      
   3.77500000000000        1.00000000000000       0.000000000000000E+000        
  0.000000000000000E+000  0.000000000000000E+000  0.000000000000000E+000        
  0.000000000000000E+000                                                        
   1.30000000000000       0.000000000000000E+000   1.00000000000000             
  0.000000000000000E+000  0.000000000000000E+000  0.000000000000000E+000        
  0.000000000000000E+000                                                        
  0.444000000000000       0.000000000000000E+000  0.000000000000000E+000        
   1.00000000000000       0.000000000000000E+000  0.000000000000000E+000        
  0.000000000000000E+000                                                        
   14.9270000000000       0.000000000000000E+000  0.000000000000000E+000        
  0.000000000000000E+000   1.00000000000000       0.000000000000000E+000        
  0.000000000000000E+000                                                        
   57.5440000000000       0.000000000000000E+000  0.000000000000000E+000        
  0.000000000000000E+000  0.000000000000000E+000   1.00000000000000             
  0.000000000000000E+000                                                        
  0.154000000000000       0.000000000000000E+000  0.000000000000000E+000        
  0.000000000000000E+000  0.000000000000000E+000  0.000000000000000E+000        
   1.00000000000000                                                             
    4    4                                                                      
   2.66600000000000        1.00000000000000       0.000000000000000E+000        
  0.000000000000000E+000  0.000000000000000E+000                                
  0.859000000000000       0.000000000000000E+000   1.00000000000000             
  0.000000000000000E+000  0.000000000000000E+000                                
   26.4830000000000       0.000000000000000E+000  0.000000000000000E+000        
   1.00000000000000       0.000000000000000E+000                                
  0.324000000000000       0.000000000000000E+000  0.000000000000000E+000        
  0.000000000000000E+000   1.00000000000000                                     
    2    2                                                                      
   1.84600000000000        1.00000000000000       0.000000000000000E+000        
  0.714000000000000       0.000000000000000E+000   1.00000000000000             
FINISH                                                                          
 
********************************************************************************
 ONE- AND TWO-ELECTRON INTEGRALS OVER SYMMETRY-ADAPTED AOS ARE CALCULATED.

  SPHERICAL HARMONICS ARE USED.
  
  INTEGRALS LESS THAN  0.10E-13 ARE NEGLECTED.

  NUCLEAR REPULSION ENERGY :   27.2820193778 A.U.
  @MOLECU-I, ONE ELECTRON INTEGRALS (CPU/WALL):        0.06/       0.07 SECONDS.
  @TWOEL-I,    4709398 INTEGRALS OF SYMMETRY TYPE  I I I I
  @TWOEL-I,   20152204 INTEGRALS OF SYMMETRY TYPE  I J I J
  @TWOEL-I,   10620430 INTEGRALS OF SYMMETRY TYPE  I I J J
  @TWOEL-I,   14873334 INTEGRALS OF SYMMETRY TYPE  I J K L
  @TWOEL-I, TOTAL NUMBER OF 2-E INTEGRALS   50355366.
  @MOLECU-I, TWO ELECTRON INTEGRALS (CPU/WALL):      192.82/      26.85 SECONDS.
 @CHECKOUT-I, Total execution time (CPU/WALL):      192.89/      26.93 seconds.

Running with 14 threads/proc

--executable xvmol finished with status     0 in       26.96 seconds (walltime).
 --invoking executable--
/nfs/workspaces/public/cfour_mpi/bin/xvmol2ja
 @GETMEM-I,  Allocated    3814 MB of main memory.
 @CHECKOUT-I, Total execution time (CPU/WALL):        0.27/       0.09 seconds.
--executable xvmol2ja finished with status     0 in        0.10 seconds (walltime).
 --invoking executable--
/nfs/workspaces/public/cfour_mpi/bin/xvprop
 @GETMEM-I,  Allocated    3814 MB of main memory.
   Property integrals will be calculated.
    --------------------------------------------------------------
                                   Property evaluated at 
    Property type                X             Y             Z
    --------------------------------------------------------------
    Dipole moment               ----          ----          ----  
    Quadrupole moment           ----          ----          ----  
    Octopole moment             ----          ----          ----  
    Relativisitic corr.         ----          ----          ----  
    Second moment            0.0000000     0.0000000     0.0000000
    Electron density         0.0000000     0.0000000     0.9704531
    Electron density         0.0000000     0.0000000    -0.7889474
    Field gradient           0.0000000     0.0000000     0.9704531
    Field gradient           0.0000000     0.0000000    -0.7889474
    Potential                0.0000000     0.0000000     0.9704531
    Potential                0.0000000     0.0000000    -0.7889474
    --------------------------------------------------------------
 @CHECKOUT-I, Total execution time (CPU/WALL):        1.36/       1.42 seconds.
--executable xvprop finished with status     0 in        1.44 seconds (walltime).
 --invoking executable--
/nfs/workspaces/public/cfour_mpi/bin/xvscf
  There are  218 functions in the AO basis.

  There are 4 irreducible representations.

       Irrep        # of functions
         1                 86
         2                 52
         3                 52
         4                 28


  Parameters for SCF calculation: 
        SCF reference function:  RHF  
  Maximum number of iterations:  150
     Full symmetry point group: CXv 
     Computational point group: C2v 
        Initial density matrix: MOREAD                 
     SCF convergence tolerance: 10**(-10)
  DIIS convergence acceleration:  ON
          Latest start for DIIS:   8
                     DIIS order:   6

  Memory information:    2523578 words required.
  Fock matrices are constructed from AO integral file.
 @GETMEM-I,  Allocated      19 MB of main memory.
  Initialization and symmetry analysis required      0.001 seconds.

  Adding electric field perturbation to one-electron Hamiltonian.
  Field direction     : Z
  Field strength      : -0.0002000 a.u.

  @INITGES-I, Occupancies from core Hamiltonian:

          Alpha population by irrep:   5    1    1    0
           Beta population by irrep:   5    1    1    0


 total no. of electrons in initial guess :  0.000000000000000E+000
  --------------------------------------------------------------------
  Iteration         Total Energy            Largest Density Difference
  --------------------------------------------------------------------
       0            27.281921605684897              0.0000000000D+00
   current occupation vector 
     5  1  1  0
     5  1  1  0
       1           -89.705721470184628              0.2067334317D+02
   current occupation vector 
     5  1  1  0
     5  1  1  0
       2           -91.695957882628690              0.1224650192D+03
   current occupation vector 
     5  1  1  0
     5  1  1  0
       3          -104.299814878828542              0.1224834908D+03
   current occupation vector 
     4  1  2  0
     4  1  2  0
       4          -102.164232137366312              0.1833319591D+02
   current occupation vector 
     5  1  1  0
     5  1  1  0
       5          -106.462052458785351              0.1833180391D+02
   current occupation vector 
     4  1  2  0
     4  1  2  0
       6          -103.858591896300979              0.1366304199D+02
   current occupation vector 
     5  1  1  0
     5  1  1  0
       7          -105.400840684608696              0.1338716163D+02
   current occupation vector 
     5  1  1  0
     5  1  1  0
       8          -103.004374810324961              0.4851586842D+01
   current occupation vector 
     5  1  1  0
     5  1  1  0
       9          -112.095166963849877              0.3058310032D+01
   current occupation vector 
     5  1  1  0
     5  1  1  0
      10          -112.584749117362790              0.6666261792D+00
   current occupation vector 
     5  1  1  0
     5  1  1  0
      11          -112.668799868338439              0.2228343064D+00
   current occupation vector 
     5  1  1  0
     5  1  1  0
      12          -112.670966334926604              0.4415641398D-01
   current occupation vector 
     5  1  1  0
     5  1  1  0
      13          -112.671057658777627              0.1304230556D-01
   current occupation vector 
     5  1  1  0
     5  1  1  0
      14          -112.671064847306823              0.3808607377D-02
   current occupation vector 
     5  1  1  0
     5  1  1  0
      15          -112.671065988780910              0.1848446365D-02
   current occupation vector 
     5  1  1  0
     5  1  1  0
      16          -112.671066064948192              0.4499110686D-03
   current occupation vector 
     5  1  1  0
     5  1  1  0
      17          -112.671066067627194              0.9602167474D-04
   current occupation vector 
     5  1  1  0
     5  1  1  0
      18          -112.671066067688614              0.1069259610D-04
   current occupation vector 
     5  1  1  0
     5  1  1  0
      19          -112.671066067691143              0.1615180583D-05
   current occupation vector 
     5  1  1  0
     5  1  1  0
      20          -112.671066067689353              0.4996893193D-06
   current occupation vector 
     5  1  1  0
     5  1  1  0
      21          -112.671066067691115              0.8403476093D-07
   current occupation vector 
     5  1  1  0
     5  1  1  0
      22          -112.671066067690120              0.1874835487D-07
   current occupation vector 
     5  1  1  0
     5  1  1  0
      23          -112.671066067690830              0.4847859003D-08
   current occupation vector 
     5  1  1  0
     5  1  1  0
      24          -112.671066067690916              0.1534939731D-08
   current occupation vector 
     5  1  1  0
     5  1  1  0
      25          -112.671066067690376              0.6374520911D-09
   current occupation vector 
     5  1  1  0
     5  1  1  0
      26          -112.671066067690830              0.1957718432D-09
   current occupation vector 
     5  1  1  0
     5  1  1  0
      27          -112.671066067690688              0.1402280514D-09
   current occupation vector 
     5  1  1  0
     5  1  1  0

  SCF has converged.

 Density matrix saved to file den.dat
 total electron number:   14.0000000000005     
     E(SCF)=      -112.671066067690433              0.7572104055D-10

  Eigenvector printing suppressed.

 @PUTMOS-I, Writing converged MOs to NEWMOS. 
 @PUTMOS-I, Symmetry   1 Full Blocks 21 Partial Blocksize   2
 @PUTMOS-I, Symmetry   2 Full Blocks 13 Partial Blocksize   0
 @PUTMOS-I, Symmetry   3 Full Blocks 13 Partial Blocksize   0
 @PUTMOS-I, Symmetry   4 Full Blocks  7 Partial Blocksize   0
 @PUTFOCK-I, Writing converged Fock matrix to NEWFOCK. 
 @PUTFOCK-I, Symmetry   1 Full Blocks 21 Partial Blocksize   2
 @PUTFOCK-I, Symmetry   2 Full Blocks 13 Partial Blocksize   0
 @PUTFOCK-I, Symmetry   3 Full Blocks 13 Partial Blocksize   0
 @PUTFOCK-I, Symmetry   4 Full Blocks  7 Partial Blocksize   0


 
  ORBITAL EIGENVALUES (ALPHA)  (1H = 27.2113834 eV)

       MO #        E(hartree)               E(eV)           FULLSYM    COMPSYM
       ----   --------------------   --------------------   -------   ---------
    1     1         -20.6488127671        -561.8827609597     SG+        A1 (1)
    2     2         -11.2715770439        -306.7152044630     SG+        A1 (1)
    3     3          -1.6604911715         -45.1842619003     SG+        A1 (1)
    4     4          -0.8206905353         -22.3321248082     SG+        A1 (1)
    5   139          -0.7424863480         -20.2040806855      PI        B2 (3)
    6    87          -0.7424863480         -20.2040806855      PI        B1 (2)
    7     5          -0.5256491508         -14.3036405753     SG+        A1 (1)
  +++++++++++++++++++++++++++++++++++++++++++++++++++++++++++++++++++++++++++++
    8     6           0.0570136793           1.5514210860     SG+        A1 (1)
    9   140           0.0644406221           1.7535184754      PI        B2 (3)
   10    88           0.0644406221           1.7535184754      PI        B1 (2)
   11     7           0.0761275656           2.0715363743     SG+        A1 (1)
   12   141           0.1548298354           4.2131340124      PI        B2 (3)
   13    89           0.1548298354           4.2131340124      PI        B1 (2)
   14     8           0.1567510351           4.2654125158     SG+        A1 (1)
   15    90           0.2062410851           5.6121052406      PI        B1 (2)
   16   142           0.2062410851           5.6121052406      PI        B2 (3)
   17     9           0.2266235596           6.1667405682     SG+        A1 (1)
   18    10           0.2267471008           6.1701022952      DE        A1 (1)
   19   191           0.2267471008           6.1701022952      DE        A2 (4)
   20    11           0.3019535537           8.2165739193     SG+        A1 (1)
   21   143           0.3465073098           9.4289432580      PI        B2 (3)
   22    91           0.3465073098           9.4289432581      PI        B1 (2)
   23    12           0.3997952489          10.8789818003     SG+        A1 (1)
   24   144           0.4085430664          11.1170220155      PI        B2 (3)
   25    92           0.4085430664          11.1170220155      PI        B1 (2)
   26    13           0.5078598884          13.8195701380     SG+        A1 (1)
   27    14           0.5191575294          14.1269945765      DE        A1 (1)
   28   192           0.5191575294          14.1269945765      DE        A2 (4)
   29    93           0.6179330302          16.8148126010      PI        B1 (2)
   30   145           0.6179330302          16.8148126010      PI        B2 (3)
   31    15           0.6594966352          17.9458157923     SG+        A1 (1)
   32    94           0.7497983867          20.4030513741      PH        B1 (2)
   33   146           0.7497983867          20.4030513741      PH        B2 (3)
   34   193           0.7691642170          20.9300224067      DE        A2 (4)
   35    16           0.7691642170          20.9300224067      DE        A1 (1)
   36    17           0.7973013560          21.6956728829     SG+        A1 (1)
   37    95           0.8489408386          23.1008546435      PI        B1 (2)
   38   147           0.8489408386          23.1008546435      PI        B2 (3)
   39    96           0.8693637706          23.6565908758      PI        B1 (2)
   40   148           0.8693637706          23.6565908759      PI        B2 (3)
   41    18           0.8798933085          23.9431141683     SG+        A1 (1)
   42   194           0.9097257789          24.7548969582      DE        A2 (4)
   43    19           0.9097257789          24.7548969582      DE        A1 (1)
   44    20           0.9657475855          26.2793278177     SG+        A1 (1)
   45    97           1.1323541963          30.8129241811      PI        B1 (2)
   46   149           1.1323541963          30.8129241811      PI        B2 (3)
   47    21           1.3629649229          37.0881610773     SG+        A1 (1)
   48    98           1.4598123120          39.7235125146      PH        B1 (2)
   49   150           1.4598123120          39.7235125146      PH        B2 (3)
   50    22           1.4955823798          40.6968655417      DE        A1 (1)
   51   195           1.4955823798          40.6968655417      DE        A2 (4)
   52   151           1.5237417903          41.4631220572      PI        B2 (3)
   53    99           1.5237417903          41.4631220572      PI        B1 (2)
   54    23           1.5624915353          42.5175562272     SG+        A1 (1)
   55    24           1.6643511153          45.2892963115     SG+        A1 (1)
   56   196           1.7732201294          48.2517727935      DE        A2 (4)
   57    25           1.7732201294          48.2517727936      DE        A1 (1)
   58    26           1.7790460027          48.4103028665     SG+        A1 (1)
   59   100           1.8550981442          50.4797868464      PI        B1 (2)
   60   152           1.8550981442          50.4797868466      PI        B2 (3)
   61   101           2.0208345353          54.9897033291      PI        B1 (2)
   62   153           2.0208345353          54.9897033291      PI        B2 (3)
   63   197           2.1161661872          57.5838094578      PI        A2 (4)
   64    27           2.1161661872          57.5838094578      PI        A1 (1)
   65    28           2.2384284214          60.9107339880     SG+        A1 (1)
   66   198           2.2434128811          61.0463680332      DE        A2 (4)
   67    29           2.2434128811          61.0463680332      DE        A1 (1)
   68   102           2.2644433781          61.6186369501      PH        B1 (2)
   69   154           2.2644433781          61.6186369501      PH        B2 (3)
   70    30           2.3508559789          63.9700433611     SG+        A1 (1)
   71   103           2.3584650033          64.1770954412      PI        B1 (2)
   72   155           2.3584650033          64.1770954412      PI        B2 (3)
   73   199           2.3936070324          65.1333586670      DE        A2 (4)
   74    31           2.3936070324          65.1333586670      DE        A1 (1)
   75   104           2.4402351625          66.4021745930      PH        B1 (2)
   76   156           2.4402351625          66.4021745930      PH        B2 (3)
   77   105           2.6107412986          71.0418824333      PI        B1 (2)
   78   157           2.6107412986          71.0418824333      PI        B2 (3)
   79    32           2.6520362201          72.1655743759     SG+        A1 (1)
   80   106           3.0658937156          83.4272093588      PI        B1 (2)
   81   158           3.0658937156          83.4272093588      PI        B2 (3)
   82   200           3.1601729643          85.9926781413      DE        A2 (4)
   83    33           3.1601729643          85.9926781416      DE        A1 (1)
   84    34           3.1845624856          86.6563507567     SG+        A1 (1)
   85    35           3.3540270360          91.2677156115     SG+        A1 (1)
   86   107           3.7400547020         101.7720624330      PI        B1 (2)
   87   159           3.7400547020         101.7720624331      PI        B2 (3)
   88    36           3.7793685558         102.8418467807      PI        A1 (1)
   89   201           3.7793685558         102.8418467807      PI        A2 (4)
   90    37           4.0070755248         109.0380684179     SG+        A1 (1)
   91   108           4.0594892014         110.4643170674      PH        B1 (2)
   92   160           4.0594892014         110.4643170674      PH        B2 (3)
   93   202           4.1804044536         113.7545883530      DE        A2 (4)
   94    38           4.1804044536         113.7545883530      DE        A1 (1)
   95   109           4.2197507431         114.8252553228      PI        B1 (2)
   96   161           4.2197507431         114.8252553228      PI        B2 (3)
   97    39           4.3561930512         118.5380392793     SG+        A1 (1)
   98   203           4.4738223272         121.7388946091      DE        A2 (4)
   99    40           4.4738223272         121.7388946091      DE        A1 (1)
  100   110           4.5271348186         123.1896012518      PH        B1 (2)
  101   162           4.5271348186         123.1896012518      PH        B2 (3)
  102    41           4.7207703827         128.4586928267     SG+        A1 (1)
  103   111           4.9344057988         134.2720080424      PI        B1 (2)
  104   163           4.9344057988         134.2720080425      PI        B2 (3)
  105    42           5.1744971473         140.8052257765     SG+        A1 (1)
  106    43           5.2068043599         141.6843497270      DE        A1 (1)
  107   204           5.2068043599         141.6843497270      DE        A2 (4)
  108   112           5.3513201354         145.6168239009      PI        B1 (2)
  109   164           5.3513201354         145.6168239010      PI        B2 (3)
  110   205           5.9319444328         161.4164142698      PI        A2 (4)
  111    44           5.9319444328         161.4164142698      PI        A1 (1)
  112   113           6.0226635730         163.8850075734      PI        B1 (2)
  113   165           6.0226635730         163.8850075735      PI        B2 (3)
  114    45           6.1455302131         167.2283788255     SG+        A1 (1)
  115   114           6.3165616912         171.8823819491      PH        B1 (2)
  116   166           6.3165616912         171.8823819491      PH        B2 (3)
  117   206           6.3512605055         172.8265846895      DE        A2 (4)
  118    46           6.3512605055         172.8265846895      DE        A1 (1)
  119    47           6.3623738521         173.1289942246     SG+        A1 (1)
  120   115           6.4301887697         174.9743319457      PI        B1 (2)
  121   167           6.4301887697         174.9743319457      PI        B2 (3)
  122   116           6.5638074048         178.6102798554      PH        B1 (2)
  123   168           6.5638074048         178.6102798554      PH        B2 (3)
  124   207           6.7875751222         184.6993090069      DE        A2 (4)
  125    48           6.7875751222         184.6993090072      DE        A1 (1)
  126    49           7.1720415714         195.1611729592     SG+        A1 (1)
  127   117           8.0067923460         217.8758963325      PI        B1 (2)
  128   169           8.0067923460         217.8758963325      PI        B2 (3)
  129    50           8.2099130569         223.4030918728      DE        A1 (1)
  130   208           8.2099130569         223.4030918730      DE        A2 (4)
  131    51           8.6874996265         236.3988831249     SG+        A1 (1)
  132    52           8.8781890829         241.5878070317     SG+        A1 (1)
  133   118           9.0152140790         245.3164467374      PI        B1 (2)
  134   170           9.0152140790         245.3164467375      PI        B2 (3)
  135    53           9.9010642504         269.4216553848     SG+        A1 (1)
  136   119          10.2259248457         278.2615615958      PI        B1 (2)
  137   171          10.2259248457         278.2615615961      PI        B2 (3)
  138   209          10.6094837209         288.6987292053      PI        A2 (4)
  139    54          10.6094837209         288.6987292053      PI        A1 (1)
  140   120          11.0774231918         301.4320095552      PH        B1 (2)
  141   172          11.0774231918         301.4320095552      PH        B2 (3)
  142   210          11.3763988765         309.5675515405      DE        A2 (4)
  143    55          11.3763988765         309.5675515405      DE        A1 (1)
  144    56          11.4093402318         310.4639313891     SG+        A1 (1)
  145   173          11.4840545201         312.4970105318      PI        B2 (3)
  146   121          11.4840545201         312.4970105318      PI        B1 (2)
  147   174          11.8812159828         323.3043233672      PH        B2 (3)
  148   122          11.8812159828         323.3043233672      PH        B1 (2)
  149    57          12.4942503038         339.9858353116      DE        A1 (1)
  150   211          12.4942503038         339.9858353119      DE        A2 (4)
  151    58          13.0212215547         354.3254520606     SG+        A1 (1)
  152    59          13.2166447680         359.6431880446      DE        A1 (1)
  153   212          13.2166447680         359.6431880446      DE        A2 (4)
  154   123          13.3373935543         362.9289295631      PI        B1 (2)
  155   175          13.3373935543         362.9289295631      PI        B2 (3)
  156    60          14.1982652851         386.3544402875     SG+        A1 (1)
  157   176          15.2979400944         416.2781131403      PI        B2 (3)
  158   124          15.2979400944         416.2781131403      PI        B1 (2)
  159    61          15.6500322940         425.8590289751     SG+        A1 (1)
  160    62          19.0525379566         518.4459150800     SG+        A1 (1)
  161   125          19.7217920113         536.6572437553      PI        B1 (2)
  162   177          19.7217920113         536.6572437554      PI        B2 (3)
  163    63          21.7960215372         593.0998986428     SG+        A1 (1)
  164   213          26.7934861752         729.0878249356      DE        A2 (4)
  165    64          26.7934861752         729.0878249357      DE        A1 (1)
  166   126          27.9360007944         760.1772282790      PI        B1 (2)
  167   178          27.9360007944         760.1772282790      PI        B2 (3)
  168    65          29.2111386951         794.8754945826     SG+        A1 (1)
  169   127          34.0594335934         926.8043058975      PI        B1 (2)
  170   179          34.0594335935         926.8043058986      PI        B2 (3)
  171    66          36.3324698441         988.6567667955     SG+        A1 (1)
  172    67          37.5047718175        1020.5567252548     SG+        A1 (1)
  173   214          47.2447471721        1285.5949289365      DE        A2 (4)
  174    68          47.2447471721        1285.5949289365      DE        A1 (1)
  175   180          48.2288450606        1312.3735938833      PI        B2 (3)
  176   128          48.2288450606        1312.3735938833      PI        B1 (2)
  177    69          48.8593263081        1329.5298608365     SG+        A1 (1)
  178    70          65.0803682824        1770.9268531459     SG+        A1 (1)
  179   129          67.1509453561        1827.2701197581      PI        B1 (2)
  180   181          67.1509453561        1827.2701197581      PI        B2 (3)
  181    71          68.7492524583        1870.7622671055     SG+        A1 (1)
  182   182          98.7819796956        2687.9943225071      PH        B2 (3)
  183   130          98.7819796956        2687.9943225071      PH        B1 (2)
  184    72          98.8361084689        2689.4672413102      DE        A1 (1)
  185   215          98.8361084689        2689.4672413102      DE        A2 (4)
  186   131          98.8889730143        2690.9057587256      PI        B1 (2)
  187   183          98.8889730143        2690.9057587256      PI        B2 (3)
  188    73          98.9509019190        2692.5909298939     SG+        A1 (1)
  189   132         103.3059471686        2811.0977359048      PH        B1 (2)
  190   184         103.3059471686        2811.0977359048      PH        B2 (3)
  191    74         103.3783554336        2813.0680649659      DE        A1 (1)
  192   216         103.3783554337        2813.0680649671      DE        A2 (4)
  193   133         103.4794702062        2815.8195378084      PI        B1 (2)
  194   185         103.4794702062        2815.8195378084      PI        B2 (3)
  195    75         103.5966309071        2819.0076425609     SG+        A1 (1)
  196   217         115.3796888246        3139.6409491779      DE        A2 (4)
  197    76         115.3796888246        3139.6409491779      DE        A1 (1)
  198   186         115.9428204076        3154.9645385895      PI        B2 (3)
  199   134         115.9428204076        3154.9645385895      PI        B1 (2)
  200    77         116.4655105113        3169.1876593996     SG+        A1 (1)
  201   135         117.2777203751        3191.2890134058      PI        B1 (2)
  202   187         117.2777203752        3191.2890134072      PI        B2 (3)
  203    78         119.2407030847        3244.7044885222     SG+        A1 (1)
  204    79         123.5120493597        3360.9337296475     SG+        A1 (1)
  205    80         198.6662048745        5405.9822694643      DE        A1 (1)
  206   218         198.6662048746        5405.9822694643      DE        A2 (4)
  207   188         199.2118932051        5420.8312038449      PI        B2 (3)
  208   136         199.2118932051        5420.8312038452      PI        B1 (2)
  209    81         199.5598308996        5430.2990698495     SG+        A1 (1)
  210    82         217.4940902456        5918.3150769081     SG+        A1 (1)
  211   137         225.5397558544        6137.2487684978      PI        B1 (2)
  212   189         225.5397558545        6137.2487684979      PI        B2 (3)
  213    83         226.8172529478        6172.0112316965     SG+        A1 (1)
  214   138         395.6809038445       10767.0247785705      PI        B1 (2)
  215   190         395.6809038445       10767.0247785718      PI        B2 (3)
  216    84         397.1267925121       10806.3694094596     SG+        A1 (1)
  217    85         509.9362475363       13876.0707412676     SG+        A1 (1)
  218    86         896.3901279600       24392.0154478935     SG+        A1 (1)


  VSCF finished.

 @CHECKOUT-I, Total execution time (CPU/WALL):       51.15/      10.58 seconds.
--executable xvscf finished with status     0 in       10.60 seconds (walltime).
 --invoking executable--
/nfs/workspaces/public/cfour_mpi/bin/xvtran
 @GETMEM-I,  Allocated    3814 MB of main memory.
  Full RHF integral transformation
  Transformation of IIII integrals :
  1 pass through the AO integral file was required.
     4709398 AO integrals were read.
     8904044 MO integrals were written to HF2.
  Transformation of IIJJ integrals :
  1 pass through the AO integral file was required.
    10620430 AO integrals were read.
    14735030 MO integrals were written to HF2.
  Transformation of IJIJ integrals :
  1 pass through the AO integral file was required.
    20152204 AO integrals were read.
    27980554 MO integrals were written to HF2.
  Transformation of IJKL integrals :
  1 pass through the AO integral file was required.
    14873334 AO integrals were read.
    18932372 MO integrals were written to HF2.
  Summary of active molecular orbitals: 
------------------------------------------------------------------------
 
  Index      Eigenvalue    Symmetry    Index      Eigenvalue    Symmetry
------------------------------------------------------------------------
     1       -20.6488128        1       110         4.2197507        2
     2       -11.2715770        1       111         4.5271348        2
     3        -1.6604912        1       112         4.9344058        2
     4        -0.8206905        1       113         5.3513201        2
     5        -0.5256492        1       114         6.0226636        2
     6        -0.7424863        2       115         6.3165617        2
     7        -0.7424863        3       116         6.4301888        2
     8         0.0570137        1       117         6.5638074        2
     9         0.0761276        1       118         8.0067923        2
    10         0.1567510        1       119         9.0152141        2
    11         0.2266236        1       120        10.2259248        2
    12         0.2267471        1       121        11.0774232        2
    13         0.3019536        1       122        11.4840545        2
    14         0.3997952        1       123        11.8812160        2
    15         0.5078599        1       124        13.3373936        2
    16         0.5191575        1       125        15.2979401        2
    17         0.6594966        1       126        19.7217920        2
    18         0.7691642        1       127        27.9360008        2
    19         0.7973014        1       128        34.0594336        2
    20         0.8798933        1       129        48.2288451        2
    21         0.9097258        1       130        67.1509454        2
    22         0.9657476        1       131        98.7819797        2
    23         1.3629649        1       132        98.8889730        2
    24         1.4955824        1       133       103.3059472        2
    25         1.5624915        1       134       103.4794702        2
    26         1.6643511        1       135       115.9428204        2
    27         1.7732201        1       136       117.2777204        2
    28         1.7790460        1       137       199.2118932        2
    29         2.1161662        1       138       225.5397559        2
    30         2.2384284        1       139       395.6809038        2
    31         2.2434129        1       140         0.0644406        3
    32         2.3508560        1       141         0.1548298        3
    33         2.3936070        1       142         0.2062411        3
    34         2.6520362        1       143         0.3465073        3
    35         3.1601730        1       144         0.4085431        3
    36         3.1845625        1       145         0.6179330        3
    37         3.3540270        1       146         0.7497984        3
    38         3.7793686        1       147         0.8489408        3
    39         4.0070755        1       148         0.8693638        3
    40         4.1804045        1       149         1.1323542        3
    41         4.3561931        1       150         1.4598123        3
    42         4.4738223        1       151         1.5237418        3
    43         4.7207704        1       152         1.8550981        3
    44         5.1744971        1       153         2.0208345        3
    45         5.2068044        1       154         2.2644434        3
    46         5.9319444        1       155         2.3584650        3
    47         6.1455302        1       156         2.4402352        3
    48         6.3512605        1       157         2.6107413        3
    49         6.3623739        1       158         3.0658937        3
    50         6.7875751        1       159         3.7400547        3
    51         7.1720416        1       160         4.0594892        3
    52         8.2099131        1       161         4.2197507        3
    53         8.6874996        1       162         4.5271348        3
    54         8.8781891        1       163         4.9344058        3
    55         9.9010643        1       164         5.3513201        3
    56        10.6094837        1       165         6.0226636        3
    57        11.3763989        1       166         6.3165617        3
    58        11.4093402        1       167         6.4301888        3
    59        12.4942503        1       168         6.5638074        3
    60        13.0212216        1       169         8.0067923        3
    61        13.2166448        1       170         9.0152141        3
    62        14.1982653        1       171        10.2259248        3
    63        15.6500323        1       172        11.0774232        3
    64        19.0525380        1       173        11.4840545        3
    65        21.7960215        1       174        11.8812160        3
    66        26.7934862        1       175        13.3373936        3
    67        29.2111387        1       176        15.2979401        3
    68        36.3324698        1       177        19.7217920        3
    69        37.5047718        1       178        27.9360008        3
    70        47.2447472        1       179        34.0594336        3
    71        48.8593263        1       180        48.2288451        3
    72        65.0803683        1       181        67.1509454        3
    73        68.7492525        1       182        98.7819797        3
    74        98.8361085        1       183        98.8889730        3
    75        98.9509019        1       184       103.3059472        3
    76       103.3783554        1       185       103.4794702        3
    77       103.5966309        1       186       115.9428204        3
    78       115.3796888        1       187       117.2777204        3
    79       116.4655105        1       188       199.2118932        3
    80       119.2407031        1       189       225.5397559        3
    81       123.5120494        1       190       395.6809038        3
    82       198.6662049        1       191         0.2267471        4
    83       199.5598309        1       192         0.5191575        4
    84       217.4940902        1       193         0.7691642        4
    85       226.8172529        1       194         0.9097258        4
    86       397.1267925        1       195         1.4955824        4
    87       509.9362475        1       196         1.7732201        4
    88       896.3901280        1       197         2.1161662        4
    89         0.0644406        2       198         2.2434129        4
    90         0.1548298        2       199         2.3936070        4
    91         0.2062411        2       200         3.1601730        4
    92         0.3465073        2       201         3.7793686        4
    93         0.4085431        2       202         4.1804045        4
    94         0.6179330        2       203         4.4738223        4
    95         0.7497984        2       204         5.2068044        4
    96         0.8489408        2       205         5.9319444        4
    97         0.8693638        2       206         6.3512605        4
    98         1.1323542        2       207         6.7875751        4
    99         1.4598123        2       208         8.2099131        4
   100         1.5237418        2       209        10.6094837        4
   101         1.8550981        2       210        11.3763989        4
   102         2.0208345        2       211        12.4942503        4
   103         2.2644434        2       212        13.2166448        4
   104         2.3584650        2       213        26.7934862        4
   105         2.4402352        2       214        47.2447472        4
   106         2.6107413        2       215        98.8361085        4
   107         3.0658937        2       216       103.3783554        4
   108         3.7400547        2       217       115.3796888        4
   109         4.0594892        2       218       198.6662049        4
------------------------------------------------------------------------
  -20.6488127670752       -11.2715770438566       -1.66049117151169     
 -0.820690535276616      -0.525649150763443      -0.742486348028809     
 -0.742486348029055       5.701367928169620E-002  7.612756557948150E-002
  0.156751035148014       0.226623559617459       0.226747100817631     
  0.301953553719427       0.399795248936951       0.507859888446240     
  0.519157529363036       0.659496635230281       0.769164217013078     
  0.797301355978907       0.879893308487155       0.909725778889688     
  0.965747585538979        1.36296492288060        1.49558237975218     
   1.56249153533378        1.66435111533316        1.77322012939642     
   1.77904600272761        2.11616618719218        2.23842842139244     
   2.24341288114059        2.35085597893922        2.39360703237893     
   2.65203622010207        3.16017296429046        3.18456248559164     
   3.35402703603590        3.77936855575916        4.00707552479202     
   4.18040445356561        4.35619305115265        4.47382232720844     
   4.72077038268869        5.17449714726868        5.20680435993393     
   5.93194443284921        6.14553021311915        6.35126050553832     
   6.36237385213755        6.78757512222580        7.17204157136802     
   8.20991305692919        8.68749962653274        8.87818908287185     
   9.90106425036821        10.6094837208925        11.3763988765272     
   11.4093402318191        12.4942503037736        13.0212215546752     
   13.2166447680346        14.1982652850899        15.6500322940251     
[...]
 Convergence information after     6 iterations: 
 Largest element of residual vector : -0.34207782E-03.
 Largest element of DIIS residual   : -0.88670048E-04.
 Convergence information after     7 iterations: 
 Largest element of residual vector : -0.59673995E-04.
 Largest element of DIIS residual   : -0.27040969E-04.
 Convergence information after     8 iterations: 
 Largest element of residual vector : -0.16598909E-04.
 Largest element of DIIS residual   :  0.97421370E-05.
 Convergence information after     9 iterations: 
 Largest element of residual vector :  0.50218238E-05.
 Largest element of DIIS residual   :  0.23171030E-05.
 Convergence information after    10 iterations: 
 Largest element of residual vector :  0.18215826E-05.
 Largest element of DIIS residual   :  0.97809462E-06.
 Convergence information after    11 iterations: 
 Largest element of residual vector :  0.50757871E-06.
 Largest element of DIIS residual   :  0.28178972E-06.
 Convergence information after    12 iterations: 
 Largest element of residual vector :  0.20122376E-06.
 Largest element of DIIS residual   :  0.13074805E-06.
 Convergence information after    13 iterations: 
 Largest element of residual vector :  0.82223220E-07.
 Largest element of DIIS residual   :  0.59741627E-07.
 Perturbed amplitude equations converged in    13 iterations.
  Dominant contributions to perturbed wavefunction:
    7    7  142   37   0.2504397391 ABAB
    7    7   37  142   0.2504397391 ABAB
    7    7  142   63   0.1977317176 ABAB
    7    7   63  142   0.1977317176 ABAB
    5    5  142   43   0.1943197751 ABAB
    5    5   43  142   0.1943197751 ABAB
    7    7  142   49   0.1942461840 ABAB
    7    7   49  142   0.1942461840 ABAB
    7    6   37   91   0.1729903374 ABAB
    6    7   91   37   0.1729903374 ABAB
    7    7  143   37   0.1622043354 ABAB
    7    7   37  143   0.1622043354 ABAB
    7    7  142   43   0.1581033383 ABAB
    7    7   43  142   0.1581033383 ABAB
    5    5  142   30  -0.1577408179 ABAB
    5    5   30  142  -0.1577408179 ABAB
    7    7  142   28   0.1565825423 ABAB
    7    7   28  142   0.1565825423 ABAB
    5    5  142   54   0.1556560925 ABAB
    5    5   54  142   0.1556560925 ABAB
  norm of converged amps    3.02131678709331     
 Starting iterative solution of the perturbed Lambda equations.
 The DIIS procedure is used to accelerate convergence.
 Convergence criterion is 10**(-7).
 Maximum number of iterations is 100.
 Convergence information after     1 iterations: 
 Largest element of residual vector : -0.58002238E-01.
 Largest element of DIIS residual   : -0.58002238E-01.
 Convergence information after     2 iterations: 
 Largest element of residual vector :  0.54124444E-02.
 Largest element of DIIS residual   :  0.64553907E-02.
 Convergence information after     3 iterations: 
 Largest element of residual vector : -0.33684419E-02.
 Largest element of DIIS residual   : -0.29893704E-02.
 Convergence information after     4 iterations: 
 Largest element of residual vector : -0.20695224E-02.
 Largest element of DIIS residual   : -0.15333995E-02.
 Convergence information after     5 iterations: 
 Largest element of residual vector : -0.10548253E-02.
 Largest element of DIIS residual   : -0.46501196E-03.
 Convergence information after     6 iterations: 
 Largest element of residual vector : -0.31891902E-03.
 Largest element of DIIS residual   : -0.79777975E-04.
 Convergence information after     7 iterations: 
 Largest element of residual vector : -0.53612439E-04.
 Largest element of DIIS residual   : -0.22504441E-04.
 Convergence information after     8 iterations: 
 Largest element of residual vector : -0.13624260E-04.
 Largest element of DIIS residual   :  0.86226319E-05.
 Convergence information after     9 iterations: 
 Largest element of residual vector :  0.45156096E-05.
 Largest element of DIIS residual   :  0.20368092E-05.
 Convergence information after    10 iterations: 
 Largest element of residual vector :  0.16098575E-05.
 Largest element of DIIS residual   :  0.88932324E-06.
 Convergence information after    11 iterations: 
 Largest element of residual vector :  0.47369027E-06.
 Largest element of DIIS residual   :  0.27083887E-06.
 Convergence information after    12 iterations: 
 Largest element of residual vector :  0.19013845E-06.
 Largest element of DIIS residual   :  0.12176609E-06.
 Convergence information after    13 iterations: 
 Largest element of residual vector :  0.77183142E-07.
 Largest element of DIIS residual   :  0.54285405E-07.
 Perturbed Lambda equations converged in    13 iterations.
  Dominant contributions to perturbed wavefunction:
    7    7  142   37   0.2414537396 ABAB
    7    7   37  142   0.2414537396 ABAB
    7    7  142   63   0.1904343890 ABAB
    7    7   63  142   0.1904343890 ABAB
    7    7  142   49   0.1873312627 ABAB
    7    7   49  142   0.1873312627 ABAB
    5    5  142   43   0.1867610151 ABAB
    5    5   43  142   0.1867610151 ABAB
    7    6   37   91   0.1651916904 ABAB
    6    7   91   37   0.1651916904 ABAB
    7    7  143   37   0.1569746289 ABAB
    7    7   37  143   0.1569746289 ABAB
    5    5  142   30  -0.1518425762 ABAB
    5    5   30  142  -0.1518425762 ABAB
    7    7  142   43   0.1513078356 ABAB
    7    7   43  142   0.1513078356 ABAB
    7    7  142   28   0.1504089870 ABAB
    7    7   28  142   0.1504089870 ABAB
    5    5  142   54   0.1496090241 ABAB
    5    5   54  142   0.1496090241 ABAB
        The DBOC first-order density matrix is being calculated 
             (Symmetry block 3, perturbation   2)
 term   10.9734180087691     
 final tnorm  0.909485196208387     
  norm contr. I: |<0|L dT/dx|0>|^2   0.000000000000000E+000
  norm contr. II: <0|[nabla(1+L)e-T][nabla e^T]|0>   10.9734180087691     
  total norm contribution   10.9734180087691     
 oo  1.352557443035506E-002
 vv  -82.4497172595728     
 vo  9.228577180595398E-003
  Correlated perturbed 1-el contribution to DBOC  -82.4269631079618       cm**-1
  SUM_I |dc_I/dx|^2 contribution to DBOC   41.3117322037825       cm**-1
 
 
  The total diagonal Born-Oppenheimer correction (DBOC) is:      0.0040347330 a.u.
  The total diagonal Born-Oppenheimer correction (DBOC) is:        885.521529 cm-1
 
 Total CC energy including DBOC  -113.145564982173     
 First-order density matrix is being calculated  (Symmetry block 3, perturbation   2)
 Calculation of the contributions of <pq||rs> to dI(i,j)/dx required   1.8 seconds.
 Calculation of the contributions of <pq||rs> to dI(a,b)/dx required  16.1 seconds.
 Calculation of the contributions of <pq||rs> to dI(i,a)/dx required  10.2 seconds.
 First-order Z-vector equations are solved for 1 perturbation.
 Convergence reached after  17 iterations.
        U*G(pq,rs) contribution is being calculated
             (Symmetry block 3, perturbation   2)

 CCSD contribution to force constants 

        0.0000000000        0.0000000000        0.0000000000
        0.0000000000        0.0000000000        0.0000000000
        0.0000000000        0.0000000000        0.0000000000
        0.0000000000        0.0000000000        0.0000000000
        0.0000000000        0.0000000000        0.0000000000
        0.0000000000        0.0000000000        0.0000000000
        0.0000000000        0.0000000000        0.0000000000
        0.0000000000        0.0000000000        0.0000000000
        0.0000000000        0.0000000000        0.0000000000
        0.0000000000        0.0000000000        0.0000000000
        0.0000000000        0.0000000000        0.0000000000
        0.0000000000      -16.7946298557       16.7946298557

 CCSD contribution to dipole derivatives 

        0.0000000000        0.0000000000        0.0000000000
        0.0000000000        0.0000000000        0.0000000000
        0.0000000000        0.0000000000        0.0000000000
        0.0000000000        0.0000000000       -0.0362363788
        0.0000000000        0.0000000000        0.0000000000
        0.0000000000        0.0000000000        0.0000000000
 @CHECKOUT-I, Total execution time (CPU/WALL):     1051.79/     255.39 seconds.
--executable xsdcc finished with status     0 in      255.42 seconds (walltime).
 --invoking executable--
/nfs/workspaces/public/cfour_mpi/bin/xanti
 @GETMEM-I,  Allocated    3814 MB of main memory.
 CCSD MO derivative gammas will be sorted to Mulliken order.
 @CHECKOUT-I, Total execution time (CPU/WALL):        9.19/      14.15 seconds.
--executable xanti finished with status     0 in       14.16 seconds (walltime).
 --invoking executable--
/nfs/workspaces/public/cfour_mpi/bin/xbcktrn
 @GETMEM-I,  Allocated    3814 MB of main memory.
 CCSD MO derivative gammas will be transformed to the AO basis.
 @CHECKOUT-I, Total execution time (CPU/WALL):       19.29/       3.17 seconds.
--executable xbcktrn finished with status     0 in        3.19 seconds (walltime).
 --invoking executable--
/nfs/workspaces/public/cfour_mpi/bin/xvdint
 @GETMEM-I,  Allocated    3814 MB of main memory.
 One- and two-electron integral derivatives are calculated
 for RHF-CC/MBPT hessians and dipole derivatives.
 Spherical gaussians are used.
  magnet F F
                    8722  records have been written to the Sort file.
  Total length of Sort file :             178609116  words.
 Evaluation of 2el integral derivatives

                      Two-electron integral gradient
                      ------------------------------

                         C #1 z     0.0000000000
                         O #2 z     0.0000000000


 C #1       0.0000000000           -2.1060635765            0.0000000000
 O #2       0.0000000000            2.1060635765            0.0000000000


 Evaluation of 2e integral derivatives required  341.80 seconds.
  contribution to Hessian
        0.0000000000        0.0000000000        0.0000000000
        0.0000000000       -2.1060635765        2.1060635765
 @CHECKOUT-I, Total execution time (CPU/WALL):      341.79/      69.07 seconds.
--executable xvdint finished with status     0 in       69.09 seconds (walltime).
 --invoking executable--
/nfs/workspaces/public/cfour_mpi/bin/xanti
 @GETMEM-I,  Allocated    3814 MB of main memory.
 CCSD MO gammas will be sorted to Mulliken order.
 @CHECKOUT-I, Total execution time (CPU/WALL):       12.71/      11.32 seconds.
--executable xanti finished with status     0 in       11.34 seconds (walltime).
 --invoking executable--
/nfs/workspaces/public/cfour_mpi/bin/xbcktrn
 @GETMEM-I,  Allocated    3814 MB of main memory.
 CCSD MO gammas will be transformed to the AO basis.
 @CHECKOUT-I, Total execution time (CPU/WALL):       29.56/       5.47 seconds.
--executable xbcktrn finished with status     0 in        5.49 seconds (walltime).
 --invoking executable--
/nfs/workspaces/public/cfour_mpi/bin/xvdint
 @GETMEM-I,  Allocated    3814 MB of main memory.
 One- and two-electron integral derivatives are calculated
 for RHF-CC/MBPT hessians and dipole derivatives.
 Spherical gaussians are used.
  magnet F F

                     Kinetic energy integral gradient
                     --------------------------------

                         C #1 z    -2.0223119519
                         O #2 z     2.0223119519


 C #1       0.0000000000            0.0000000000           -2.0223119519
 O #2       0.0000000000            0.0000000000            2.0223119519



                   Nuclear attraction integral gradient
                   ------------------------------------

                         C #1 z    28.4632176871
                         O #2 z   -28.4632176871


 C #1       0.0000000000            0.0000000000           28.4632176871
 O #2       0.0000000000            0.0000000000          -28.4632176871



                      Reorthonormalization gradient
                      -----------------------------

                         C #1 z     0.0000000000
                         O #2 z     0.0000000000


 C #1       0.0000000000            0.0000000000            0.0000000000
 O #2       0.0000000000            0.0000000000            0.0000000000



                     Kinetic energy integral Hessian
                     -------------------------------


           Symmetry 1

           C #1 z      O #2 z

 C #1 z    0.232518
 O #2 z   -0.232518    0.232518


           Symmetry 2

           C #1 x      O #2 x

 C #1 x   -4.016118
 O #2 x    4.016118   -4.016118


           Symmetry 3

           C #1 y      O #2 y

 C #1 y   -4.016118
 O #2 y    4.016118   -4.016118




           C #1 x      C #1 y      C #1 z      O #2 x      O #2 y      O #2 z

 C #1 x   -4.016118
 C #1 y    0.000000   -4.016118
 C #1 z    0.000000    0.000000    0.232518

 O #2 x    4.016118    0.000000    0.000000   -4.016118
 O #2 y    0.000000    4.016118    0.000000    0.000000   -4.016118
 O #2 z    0.000000    0.000000   -0.232518    0.000000    0.000000    0.232518




                   Nuclear attraction integral Hessian
                   -----------------------------------


           Symmetry 1

           C #1 z      O #2 z

 C #1 z  -11.756208
 O #2 z   11.756208  -11.756208


           Symmetry 2

           C #1 x      O #2 x

 C #1 x   34.762220
 O #2 x  -34.762220   34.762220


           Symmetry 3

           C #1 y      O #2 y

 C #1 y   34.762220
 O #2 y  -34.762220   34.762220




           C #1 x      C #1 y      C #1 z      O #2 x      O #2 y      O #2 z

 C #1 x   34.762220
 C #1 y    0.000000   34.762220
 C #1 z    0.000000    0.000000  -11.756208

 O #2 x  -34.762220    0.000000    0.000000   34.762220
 O #2 y    0.000000  -34.762220    0.000000    0.000000   34.762220
 O #2 z    0.000000    0.000000   11.756208    0.000000    0.000000  -11.756208




                Highest order reorthonormalization Hessian
                ------------------------------------------


           Symmetry 1

           C #1 z      O #2 z

 C #1 z    0.000000
 O #2 z    0.000000    0.000000


           Symmetry 2

           C #1 x      O #2 x

 C #1 x    0.000000
 O #2 x    0.000000    0.000000


           Symmetry 3

           C #1 y      O #2 y

 C #1 y    0.000000
 O #2 y    0.000000    0.000000




           C #1 x      C #1 y      C #1 z      O #2 x      O #2 y      O #2 z




                Electronic contributions to dipole moment
                -----------------------------------------

                               au             Debye

                    z      0.19135444      0.48637457

  Conversion factor used: 1 a.u. =   2.54174691 Debye 



   Electronic contributions to static part of dipole moment derivatives
   --------------------------------------------------------------------


                     Total dipole moment derivatives
                     -------------------------------


           Symmetry 1
                              Ez

               C #1 z    -5.86745822
               O #2 z    -8.13254178

           Symmetry 2
                              Ex

               C #1 x    -5.91113971
               O #2 x    -8.08886029

           Symmetry 3
                              Ey

               C #1 y    -5.91113971
               O #2 y    -8.08886029



                       Ex          Ey          Ez

      C #1    x   -5.911140    0.000000    0.000000
      C #1    y    0.000000   -5.911140    0.000000
      C #1    z    0.000000    0.000000   -5.867458

      O #2    x   -8.088860    0.000000    0.000000
      O #2    y    0.000000   -8.088860    0.000000
      O #2    z    0.000000    0.000000   -8.132542

 Evaluation of 1e integral derivatives required    1.71 seconds.
                    8815  records have been written to the Sort file.
  Total length of Sort file :             180513570  words.
 Evaluation of 2el integral derivatives

                      Two-electron integral gradient
                      ------------------------------

                         C #1 z   -11.7133561970
                         O #2 z    11.7133561970


 C #1       0.0000000000            0.0000000000          -11.7133561970
 O #2       0.0000000000            0.0000000000           11.7133561970


 Evaluation of 2e integral derivatives required  708.28 seconds.

                            Molecular gradient
                            ------------------

                         C #1 z    -0.7788792395
                         O #2 z     0.7788792395


 C #1       0.0000000000            0.0000000000           -0.7788792395
 O #2       0.0000000000            0.0000000000            0.7788792395


  Molecular gradient norm 0.110E+01

                            Molecular hessian
                            -----------------


           Symmetry 1

           C #1 z      O #2 z

 C #1 z  111.531546
 O #2 z -111.531546  111.531546


           Symmetry 2

           C #1 x      O #2 x

 C #1 x   17.533695
 O #2 x  -17.533695   17.533695


           Symmetry 3

           C #1 y      O #2 y

 C #1 y   17.533695
 O #2 y  -17.533695   17.533695




           C #1 x      C #1 y      C #1 z      O #2 x      O #2 y      O #2 z

 C #1 x   17.533695
 C #1 y    0.000000   17.533695
 C #1 z    0.000000    0.000000  111.531546

 O #2 x  -17.533695    0.000000    0.000000   17.533695
 O #2 y    0.000000  -17.533695    0.000000    0.000000   17.533695
 O #2 z    0.000000    0.000000 -111.531546    0.000000    0.000000  111.531546




                           Total dipole moment
                           -------------------

                               au             Debye

                    z     -0.29750602     -0.75618501

  Conversion factor used: 1 a.u. =   2.54174691 Debye 



                     Total dipole moment derivatives
                     -------------------------------


           Symmetry 1
                              Ez

               C #1 z     0.63151792
               O #2 z    -0.63151792

           Symmetry 2
                              Ex

               C #1 x    -0.17004441
               O #2 x     0.17004441

           Symmetry 3
                              Ey

               C #1 y    -0.17004441
               O #2 y     0.17004441



                       Ex          Ey          Ez

      C #1    x   -0.170044    0.000000    0.000000
      C #1    y    0.000000   -0.170044    0.000000
      C #1    z    0.000000    0.000000    0.631518

      O #2    x    0.170044    0.000000    0.000000
      O #2    y    0.000000    0.170044    0.000000
      O #2    z    0.000000    0.000000   -0.631518

 @CHECKOUT-I, Total execution time (CPU/WALL):      709.98/     134.44 seconds.
--executable xvdint finished with status     0 in      134.47 seconds (walltime).
 --invoking executable--
/nfs/workspaces/public/cfour_mpi/bin/xjoda
  @GTFLGS-I, Hessian will be transformed to curvilinear coordinates.
  @GTFLGS-I, Hessian will be transformed to curvilinear coordinates.
  igrd and ihes are                      0                     1
  gradient from JOBARC 
   0.000000000000000   0.000000000000000  -0.778879239497548
   0.000000000000000   0.000000000000000   0.778879239497548
 
  @PROJFCM-I, Projecting force constant matrix onto totally symmetric subspace.
  Largest difference between matrix elements of symmetrized
  and unsymmetrized FCM :     0.1198898758E-09.
  read isotopes from ZMAT file 
 
  Summary of diagonal Born-Oppenheimer correction at the correlated level
  The total diagonal Born-Oppenheimer correction (DBOC) is:      0.0040347330 a.u.
  The total diagonal Born-Oppenheimer correction (DBOC) is:        885.521529 cm-1
  The total diagonal Born-Oppenheimer correction (DBOC) is:            10.593 kJ/mole
  hellooooooo 
  readis is  F
 
 @CHECKOUT-I, Total execution time (CPU/WALL):        0.01/       0.07 seconds.
--executable xjoda finished with status     0 in        0.08 seconds (walltime).
  The final electronic energy is      -113.145564982173042 a.u. 
  This computation required                         2718.14 seconds (walltime).
