 --invoking executable--
/nfs/workspaces/public/cfour_mpi/bin/xjoda


   *************************************************************************
         <<<     CCCCCC     CCCCCC   |||     CCCCCC     CCCCCC   >>>
       <<<      CCC        CCC       |||    CCC        CCC         >>>
      <<<      CCC        CCC        |||   CCC        CCC            >>>
    <<<        CCC        CCC        |||   CCC        CCC              >>>
      <<<      CCC        CCC        |||   CCC        CCC            >>>
       <<<      CCC        CCC       |||    CCC        CCC         >>>
         <<<     CCCCCC     CCCCCC   |||     CCCCCC     CCCCCC   >>>
   *************************************************************************

     ****************************************************************
     * CFOUR Coupled-Cluster techniques for Computational Chemistry *
     ****************************************************************
 

   Department of Chemistry                Institut fuer Physikalische Chemie
   University of Florida                  Universitaet Mainz
   Gainesville, FL 32611, USA             D-55099 Mainz, Germany

   Department of Chemistry                Fakultaet fuer Chemie und Biowiss.
   Johns Hopkins University               Karlsruher Institut fuer Technologie
   Baltimore, MD 21218, USA               D-76131 Karlsruhe, Germany

   Department of Chemistry                Department of Physical Chemistry
   Southern Methodist University          Eotvos Lorand University
   Dallas, TX 75275, USA                  H-1053 Budapest, Hungary

 
                       Version 2.1
 
                     vincent.theory.phys.ucl.ac.uk                     
                     Wed 26 Feb 13:11:39 GMT 2025                      
                     integer*8 version is running
 
********************************************************************************
*                          Input from ZMAT file                                *
********************************************************************************
Carbon Monoxide DBOC calculation                                                
C                                                                               
O 1 r                                                                           
                                                                                
r=0.9310344827586207                                                            
                                                                                
                                                                                
*CFOUR(CALC=CCSD,BASIS=AUG-PCVQZ,SCF_CONV=10                                    
CC_CONV=14,DBOC=ON,MEMORY=500000000                                             
ZFIELD=200)                                                                     
                                                                                
%isotopes                                                                       
13                                                                              
16                                                                              
********************************************************************************
  @GTFLGS-I, Hessian will be transformed to curvilinear coordinates.
    -------------------------------------------------------------------
                    CFOUR Control Parameters 
    -------------------------------------------------------------------
        External           Internal           Value            Units
          Name               Name
    -------------------------------------------------------------------
       ABCDTYPE             IABCDT         STANDARD    [  0]    ***   
       ANHARMONIC           IANHAR         OFF         [  0]    ***   
       ANH_ALGORIT          IANALG         STANDARD    [  0]    ***   
       ANH_DERIVAT          IANDER         SECOND      [  1]    ***   
       ANH_MODE             ANHMOD         VIBRATION   [  0]    ***   
       ANH_STEPSIZ          ICUBST             50000          x 10-6  
       ANH_SYMMETR          IANHSM         ABELIAN     [  0]    ***   
       AO_LADDERS           IAOLAD         SINGLEPASS  [  1]    ***   
       AV_SCF               IAVSCF         OFF         [  0]    ***   
       BASIS                IBASIS         AUG-PCVQZ   [ 52]    ***   
       BOTHVECTORS          BOTHVC         OFF         [  0]    ***   
       BOX_POTENT           IPIAB          OFF         [  0]    ***   
       BREIT                IBREIT         OFF         [  0]    ***   
       BRUCK_CONV           IBRTOL          10D-  4             ***   
       BRUECKNER            IBRKNR         OFF         [  0]    ***   
       BUFFERSIZE           IBUFFS              4096            ***   
       CACHE_RECS           ICHREC             10               ***   
       CALCLEVEL            ICLLVL         CCSD        [ 10]    ***   
       CCORBOPT             ICCORB         OFF         [  0]  x 0.01  
       CC_CONV              ICCCNV          10D- 14             ***   
       CC_EXPORDER          ICCEOR              5               ***   
       CC_EXTRAPOL          ICCEXT         DIIS        [  1]    ***   
       CC_GUESS             ICCGES         MP2         [  0]    ***   
       CC_MAXCYC            ICCCYC            100              cycles 
       CC_PROGRAM           ICCPRO         VCC         [  0]    ***   
       CHARGE               ICHRGE              0               ***   
       CHOLESKY             ICHOLE         OFF         [  0]    ***   
       CIS_CONV             ICISTL              5               ***   
       COMM_SIZE            IPSIZE            ***               ***   
       CONSTANT             ICONST         OLD         [  1]    ***   
       CONTINUUM            ICONTU         NONE        [  0]    ***   
       CONTRACTION          ICNTYP         GENERAL     [  1]    ***   
       COORDINATES          ICOORD         INTERNAL    [  0]    ***   
       CPHF_CONVER          ICPHFT          10D- 16             ***   
       CPHF_MAXCYC          ICPHFC             64              cycles 
       CUBIC                ICUBIC         OFF         [  0]    ***   
       CURVILINEAR          ICURVY         ON          [  1]    ***   
       DBOC                 IDBOC          ON          [  1]    ***   
       DCT                  IDCT           OFF         [  0]    ***   
       DERIV_LEV            IDRLVL         SECOND      [  2]    ***   
       DEVMEM_SIZE          IDVMEM          50000000           MByte  
       DIAG_MRCC            IEOMST          10D-  0             ***   
       DIFF_TYPE            IDIFTY         RELAXED     [  0]    ***   
       DIRECT               IDIRCT         OFF         [  0]    ***   
       DROPMO               IDRPMO      NONE         
       ECP                  IECP           OFF         [  0]    ***   
       EIGENVECTOR          IVEC                1               ***   
       EL_ANHARM            IELANH         OFF         [  0]    ***   
       EOMFOLLOW            IEOMSR         ENERGY      [  0]    ***   
       EOMIP                IEOMIP         OFF         [  0]    ***   
       EOMLEVEL             HBARFM         SAME        [  0]    ***   
       EOM_MRCC             IMRCCE         NEW         [  1]    ***   
       EOM_NONIT            EOMNON         OFF         [  0]    ***   
       EOM_NSING            IEOMSI          10D-  0             ***   
       EOM_NSTATES          IMRCCD         DAVIDSON    [  0]    ***   
       EOM_NTRIP            IEOMTR          10D-  0             ***   
       EOM_ORDER            IEXORD         ENERGY      [  0]    ***   
       EOM_PROPSTA          IEOMST              0               ***   
       ESTATE_CONV          IEXTOL          10D-  5             ***   
       ESTATE_DIAG          IEXDIG         ITERATIVE   [  0]    ***   
       ESTATE_LOCK          IESLOC         ON          [  1]    ***   
       ESTATE_MAXC          IEXMXC             40               ***   
       ESTATE_PROP          IEXPRP         OFF         [  0]    ***   
       EVAL_HESS            IRECAL              0            # of cyc.
       EXCITATION           IEXCIT              0               ***   
       EXCITE               IEXCIT         NONE        [  0]    ***   
       EXTERN_POT           IEXPOT         OFF         [  0]    ***   
       FCGRADNEW            IFCGNW         OFF         [  0]    ***   
       FC_FIELD             IFINFC              0             x 10-6  
       FD_CALTYPE           IFDCAL         GRADONLY    [  0]    ***   
       FD_PROJECT           IFDPRJ         OFF         [  1]    ***   
       FD_STEPSIZE          IDISFD              0            10-4 bohr
       FD_USEGROUP          IFDGRP         FULL        [  0]    ***   
       FILE_RECSIZ          IFLREC              4096           words  
       FINITE_PERT          IFIPER              0             x 10-6  
       FIXGEOM              IFIXGM         OFF         [  0]    ***   
       FOCK                 IFOCK          AO          [  1]    ***   
       FREQ_ALGORI          IVIALG         STANDARD    [  0]    ***   
       FROZEN_CORE          IFROCO         OFF         [  0]    ***   
       GAMMA_ABCD           IGABCD         STORE       [  0]    ***   
       GAMMA_ABCI           IGABCI         STORE       [  0]    ***   
       GENBAS_1             IGNBS1              0               ***   
       GENBAS_2             IGNBS2              0               ***   
       GENBAS_3             IGNBS3              0               ***   
       GENBAS_4             IGNBS4              0               ***   
       GEO_CONV             ICONTL              5              H/bohr 
       GEO_MAXCYC           IOPTCY             50               ***   
       GEO_MAXSTEP          IMXSTP            300            millibohr
       GEO_METHOD           INR            SINGLE_POINT[  5]    ***   
       GIAO                 IGIAO          OFF         [  1]    ***   
       GIMIC                IGIMIC         OFF         [  0]    ***   
       GRID                 IGRID          OFF         [  0]    ***   
       GRID_ALGO            IGALGO         SERIAL      [  0]    ***   
       GUESS                IGUESS         MOREAD      [  0]    ***   
       HBAR                 IHBAR          OFF         [  0]    ***   
       HESS_TYPE            IHESTP         SCF         [  0]    ***   
       HF2_FILE             IHF2Fl         USE         [  1]    ***   
       HFSTABILITY          ISTABL         OFF         [  0]    ***   
       INCORE               INCORE         OFF         [  0]    ***   
       INPUT_MRCC           IMRCC          ON          [  1]    ***   
       INTEGRALS            INTTYP         VMOL        [  1]    ***   
       JODA_PRINT           IJPRNT              0               ***   
       KEYWORD_OUT          IDMPKW         NO          [  0]    ***   
       LINDEP_TOL           ILINDP              8               ***   
       LINEQ_CONV           IZTACN          10D-  7           cycles  
       LINEQ_EXPOR          ILMAXD              5               ***   
       LINEQ_MAXCY          ILMAXC            100               ***   
       LINEQ_TYPE           ILTYPE         DIIS        [  1]    ***   
       LOCK_ORBOCC          ILOCOC         OFF         [  0]    ***   
       MEMORY_SIZE          IMEMSZ         500000000           words  
       MEM_UNIT             IMEMU          INTEGERWORDS[  0]    ***   
       MRCC                 IMRCCC         OFF         [  0]    ***   
       MULTIPLICTY          IMULTP              1               ***   
       NACOUPLING           IVCOUP         OFF         [  0]    ***   
       NEGEVAL              IDIE           ABORT       [  0]    ***   
       NEWNORM              INEWNO         OFF         [  0]    ***   
       NON-HF               INONHF         OFF         [  0]    ***   
       NTOP_TAMP            ITOPT2             15               ***   
       NUC_MODEL            INUCMO         POINT       [  0]    ***   
       OCCUPATION           IOCCU   ESTIMATED BY SCF 
       OPEN-SHELL           IOPEN          SPIN-ORBITAL[  0]    ***   
       OPTVIB               IOPTVB         OFF         [  0]    ***   
       ORBITALS             IORBTP         STANDARD    [  0]    ***   
       PARALLEL             IPARAL         ON          [  1]    ***   
       PARA_INT             IPINTS         ON          [  1]    ***   
       PARA_PRINT           IPPRIN              0               ***   
       PERT_ORB             IPTORB         STANDARD    [  0]    ***   
       POINTS               IGRDFD              0               ***   
       PRINT                IPRNT               0               ***   
       PROPS                IPROPS         OFF         [  0]    ***   
       PROP_INTEGR          IINTYP         INTERNAL    [  0]    ***   
       PSI                  IPSI           OFF         [  0]    ***   
       QC_ALG               IQCALG         FLM         [  0]    ***   
       QC_LINALG            IQCLIN         TRIDIAG     [  2]    ***   
       QC_MAXCYC            IQCMAX          10D-100           cycles  
       QC_MAXSCFCY          IQCMSC          10D- 15           cycles  
       QC_RTRUST            IQCRTR          10D-  0           x 10-3  
       QC_SKIPSCF           IQCSKI         OFF         [  0]    ***   
       QC_START             IQCSTA          10D-  1             ***   
       QRHFGUESS            IQGUES         OFF         [  0]    ***   
       QUARTIC              IQUART         OFF         [  0]    ***   
       RAMAN_INT            IRAMIN         OFF         [  0]    ***   
       RAMAN_ORB            IRAMRE         UNRELAXED   [  0]    ***   
       RDO                  IRDOFM         ON          [  1]    ***   
       REDUCE_REPR          REDREP         Ir          [  0]    ***   
       REFERENCE            IREFNC         RHF         [  0]    ***   
       RELATIVIST           IRELAT         OFF         [  0]    ***   
       RELAX_DENS           IRDENS         ON          [  1]    ***   
       RESET_FLAGS          IRESET         OFF         [  0]    ***   
       RESTART_CC           ICCRES         OFF         [  0]    ***   
       ROT_EVEC             ROTVEC              0               ***   
       SAVE_INTS            ISVINT         OFF         [  0]    ***   
       SCALE_ON             ISTCRT              0               ***   
       SCF_CONV             ISCFCV          10D- 10             ***   
       SCF_DAMPING          IDAMP               0             x 10-3  
       SCF_EXPORDE          IRPPOR              6               ***   
       SCF_EXPSTAR          IRPPLS              8               ***   
       SCF_EXTRAPO          IRPP           ON          [  1]    ***   
       SCF_MAXCYC           ISCFCY            150              cycles 
       SCF_NOSTOP           ISCFST         OFF         [  0]    ***   
       SCF_PRINT            ISCFPR              0               ***   
       SCF_PROG             ISCFPR         SCF         [  0]    ***   
       SD_FIELD             IFINSD              0             x 10-6  
       SOPERT               IPERSO         OFF         [  0]    ***   
       SPHERICAL            IDFGHI         ON          [  1]    ***   
       SPINORBIT            ISOCAL         OFF         [  0]    ***   
       SPINROTATIO          ISRCON         OFF         [  0]    ***   
       SPIN_FLIP            ISPFLP         OFF         [  0]    ***   
       SPIN_ORBIT           ISPORB         OFF         [  0]    ***   
       SPIN_SCAL            ISCSMP         OFF         [  0]    ***   
       STEEPSCALE           ISTPSC              1000          x 10-3  
       SUBGROUP             ISUBGP         DEFAULT     [  0]    ***   
       SUBGRPAXIS           ISBXYZ         X           [  0]    ***   
       SYMMETRY             ISYM           ON          [  0]    ***   
       SYM_CHECK            ISYMCK         OVERRIDE    [  1]    ***   
       T3_EXTRAPOL          IT3EXT         OFF         [  0]    ***   
       T4_EXTRAPOL          IT4EXP         OFF         [  0]    ***   
       TAMP_SUM             IEVERY              5               ***   
       TESTSUITE            ITESTS         OFF         [  0]    ***   
       THERMOCH             ITHERM         OFF         [  0]    ***   
       TOL_CHOLESK          ITOLCH          10D-  4             ***   
       TRANGRAD             IRESRM         OFF         [  0]    ***   
       TRANS_INV            ITRAIN         IGNORE      [  1]    ***   
       TREAT_PERT           ITREAT         SIMULTANEOUS[  0]    ***   
       TRIP_ALGORI          ITRALG         NORMAL      [  0]    ***   
       UIJ_THRESHO          IUIJTH              1               ***   
       UNITS                IUNITS         ANGSTROM    [  0]    ***   
       UNOS                 IUNOS          OFF         [  0]    ***   
       UPDATE_HESS          IHUPDT         ON          [  1]    ***   
       VIBPHASE             ISETPH         STANDARD    [  0]    ***   
       VIBRATION            IVIB           ANALYTIC    [  1]    ***   
       VIB_ALGORIT          IGEALG         STANDARD    [  0]    ***   
       VNATORB              IVNORB         OFF         [  0]    ***   
       VTRAN                IVTRAN         FULL/PARTIAL[  0]    ***   
       XFIELD               IXEFLD              0             x 10-6  
       XFORM_TOL            IXFTOL          10D- 11             ***   
       YFIELD               IYEFLD              0             x 10-6  
       ZFIELD               IZEFLD            200             x 10-6  
       ZSCALE_EXP           IZEXPS         OFF         [  0]    ***   
    -------------------------------------------------------------------
   2 entries found in Z-matrix 
   Job Title : Carbon Monoxide DBOC calculation                                                
   There are  1 unique internal coordinates.
   Of these,  0 will be optimized.
   User supplied Z-matrix: 
--------------------------------------------------------------------------------
       SYMBOL    BOND      LENGTH    ANGLE     ANGLE     DIHED     ANGLE
                  TO      (ANGST)    WRT      (DEG)      WRT      (DEG)
--------------------------------------------------------------------------------
        C    
        O          1         r    
                  *Initial values for internal coordinates* 
                      Name             Value
                        r               0.9310344828
--------------------------------------------------------------------------------
  read isotopes from ZMAT file 
   Rotational constants (in cm-1): 
          2.7114385342             2.7114385342
   Rotational constants (in MHz): 
      81286.8936773743         81286.8936773743
********************************************************************************
   The full molecular point group is CXv .
   The largest Abelian subgroup of the full molecular point group is C2v .
   The computational point group is C2v .
********************************************************************************
--------------------------------------------------------------------------------
   Analysis of internal coordinates specified by Z-matrix 
--------------------------------------------------------------------------------
   *The nuclear repulsion energy is   27.282019377777775 a.u.
   *There is   1 degree of freedom within the tot. symm. molecular subspace.
   *Z-matrix requests optimization of   0 coordinates.
   *The optimization is constrained.
   *The following   1 parameters can have non-zero 
    derivatives within the totally symmetric subspace:
             r    [ 1]
   *The following   0 parameters are to be optimized:

   *The following coordinates must be varied in an  unconstrained optimization.
             r    [ 1]
--------------------------------------------------------------------------------


 ----------------------------------------------------------------
         Coordinates used in calculation (QCOMP) 
 ----------------------------------------------------------------
 Z-matrix   Atomic            Coordinates (in bohr)
  Symbol    Number           X              Y              Z
 ----------------------------------------------------------------
     C         6        -0.00000000     0.00000000     0.97045314
     O         8         0.00000000     0.00000000    -0.78894741
 ----------------------------------------------------------------
 
   Interatomic distance matrix (Angstroms) 
 
                 C             O    
                [ 1]        [ 2]
  C    [ 1]     0.00000
  O    [ 2]     0.93103     0.00000
 rotcon2
   Rotational constants (in cm-1): 
          2.7114385342             0.0000000000
   Rotational constants (in MHz): 
      81286.8936773743             0.0000000000
  ECPDATA file not present.   Using default ECPDATA. 
  @GTFLGS-I, Hessian will be transformed to curvilinear coordinates.
  There are  218 basis functions.
 @CHECKOUT-I, Total execution time (CPU/WALL):        0.09/       0.11 seconds.
--executable xjoda finished with status     0 in        0.12 seconds (walltime).
 --invoking executable--
/nfs/workspaces/public/cfour_mpi/bin/xvmol
 SERIAL VERSION OF MOLECULE STARTED
********************************************************************************
                    INPUT FROM MOL FILE
********************************************************************************
INTGRL        1    0    1    0    0    0    0    0    0                         
         *** CFOUR Program System (Release V0.1) ***                            
Carbon Monoxide DBOC calculation                                                
    2    2 X  Y       0.10E-08              0    0                              
   9999.00      3.00                                                            
          6.00000000    1    5    1    1    1    1    1                         
C #1  -0.000000000000000   0.000000000000000   0.970453140298837                
   16    9                                                                      
   33980.0000000000       9.100000000000000E-005 -1.900000000000000E-005        
  0.000000000000000E+000  0.000000000000000E+000  0.000000000000000E+000        
  0.000000000000000E+000  0.000000000000000E+000  0.000000000000000E+000        
  0.000000000000000E+000                                                        
   5089.00000000000       7.040000000000000E-004 -1.510000000000000E-004        
  0.000000000000000E+000  0.000000000000000E+000  0.000000000000000E+000        
  0.000000000000000E+000  0.000000000000000E+000  0.000000000000000E+000        
  0.000000000000000E+000                                                        
   1157.00000000000       3.693000000000000E-003 -7.850000000000000E-004        
  0.000000000000000E+000  0.000000000000000E+000  0.000000000000000E+000        
  0.000000000000000E+000  0.000000000000000E+000  0.000000000000000E+000        
  0.000000000000000E+000                                                        
   326.600000000000       1.536000000000000E-002 -3.324000000000000E-003        
  0.000000000000000E+000  0.000000000000000E+000  0.000000000000000E+000        
  0.000000000000000E+000  0.000000000000000E+000  0.000000000000000E+000        
  0.000000000000000E+000                                                        
   106.100000000000       5.292900000000000E-002 -1.151200000000000E-002        
  0.000000000000000E+000  0.000000000000000E+000  0.000000000000000E+000        
  0.000000000000000E+000  0.000000000000000E+000  0.000000000000000E+000        
  0.000000000000000E+000                                                        
   38.1100000000000       0.147043000000000      -3.416000000000000E-002        
  0.000000000000000E+000  0.000000000000000E+000  0.000000000000000E+000        
  0.000000000000000E+000  0.000000000000000E+000  0.000000000000000E+000        
  0.000000000000000E+000                                                        
   14.7500000000000       0.305631000000000      -7.717300000000001E-002        
  0.000000000000000E+000  0.000000000000000E+000  0.000000000000000E+000        
  0.000000000000000E+000  0.000000000000000E+000  0.000000000000000E+000        
  0.000000000000000E+000                                                        
   6.03500000000000       0.399345000000000      -0.141493000000000             
  0.000000000000000E+000  0.000000000000000E+000  0.000000000000000E+000        
  0.000000000000000E+000  0.000000000000000E+000  0.000000000000000E+000        
  0.000000000000000E+000                                                        
   2.53000000000000       0.217051000000000      -0.118019000000000             
  0.000000000000000E+000  0.000000000000000E+000  0.000000000000000E+000        
  0.000000000000000E+000  0.000000000000000E+000  0.000000000000000E+000        
  0.000000000000000E+000                                                        
  0.735500000000000       1.589400000000000E-002  0.273806000000000             
   1.00000000000000       0.000000000000000E+000  0.000000000000000E+000        
  0.000000000000000E+000  0.000000000000000E+000  0.000000000000000E+000        
  0.000000000000000E+000                                                        
  0.290500000000000      -3.084000000000000E-003  0.586510000000000             
  0.000000000000000E+000   1.00000000000000       0.000000000000000E+000        
  0.000000000000000E+000  0.000000000000000E+000  0.000000000000000E+000        
  0.000000000000000E+000                                                        
  0.111100000000000       9.779999999999999E-004  0.285430000000000             
  0.000000000000000E+000  0.000000000000000E+000   1.00000000000000             
  0.000000000000000E+000  0.000000000000000E+000  0.000000000000000E+000        
  0.000000000000000E+000                                                        
   7.21600000000000       0.000000000000000E+000  0.000000000000000E+000        
  0.000000000000000E+000  0.000000000000000E+000  0.000000000000000E+000        
   1.00000000000000       0.000000000000000E+000  0.000000000000000E+000        
  0.000000000000000E+000                                                        
   19.5700000000000       0.000000000000000E+000  0.000000000000000E+000        
  0.000000000000000E+000  0.000000000000000E+000  0.000000000000000E+000        
  0.000000000000000E+000   1.00000000000000       0.000000000000000E+000        
  0.000000000000000E+000                                                        
   53.0730000000000       0.000000000000000E+000  0.000000000000000E+000        
  0.000000000000000E+000  0.000000000000000E+000  0.000000000000000E+000        
  0.000000000000000E+000  0.000000000000000E+000   1.00000000000000             
  0.000000000000000E+000                                                        
  4.145000000000000E-002  0.000000000000000E+000  0.000000000000000E+000        
  0.000000000000000E+000  0.000000000000000E+000  0.000000000000000E+000        
  0.000000000000000E+000  0.000000000000000E+000  0.000000000000000E+000        
   1.00000000000000                                                             
   10    8                                                                      
   34.5100000000000       5.378000000000000E-003  0.000000000000000E+000        
  0.000000000000000E+000  0.000000000000000E+000  0.000000000000000E+000        
  0.000000000000000E+000  0.000000000000000E+000  0.000000000000000E+000        
   7.91500000000000       3.613200000000000E-002  0.000000000000000E+000        
  0.000000000000000E+000  0.000000000000000E+000  0.000000000000000E+000        
  0.000000000000000E+000  0.000000000000000E+000  0.000000000000000E+000        
   2.36800000000000       0.142493000000000       0.000000000000000E+000        
  0.000000000000000E+000  0.000000000000000E+000  0.000000000000000E+000        
  0.000000000000000E+000  0.000000000000000E+000  0.000000000000000E+000        
  0.813200000000000       0.342150000000000        1.00000000000000             
  0.000000000000000E+000  0.000000000000000E+000  0.000000000000000E+000        
  0.000000000000000E+000  0.000000000000000E+000  0.000000000000000E+000        
  0.289000000000000       0.463864000000000       0.000000000000000E+000        
   1.00000000000000       0.000000000000000E+000  0.000000000000000E+000        
  0.000000000000000E+000  0.000000000000000E+000  0.000000000000000E+000        
  0.100700000000000       0.250028000000000       0.000000000000000E+000        
  0.000000000000000E+000   1.00000000000000       0.000000000000000E+000        
  0.000000000000000E+000  0.000000000000000E+000  0.000000000000000E+000        
   8.18200000000000       0.000000000000000E+000  0.000000000000000E+000        
  0.000000000000000E+000  0.000000000000000E+000   1.00000000000000             
  0.000000000000000E+000  0.000000000000000E+000  0.000000000000000E+000        
   24.1860000000000       0.000000000000000E+000  0.000000000000000E+000        
  0.000000000000000E+000  0.000000000000000E+000  0.000000000000000E+000        
   1.00000000000000       0.000000000000000E+000  0.000000000000000E+000        
   71.4940000000000       0.000000000000000E+000  0.000000000000000E+000        
  0.000000000000000E+000  0.000000000000000E+000  0.000000000000000E+000        
  0.000000000000000E+000   1.00000000000000       0.000000000000000E+000        
  3.218000000000000E-002  0.000000000000000E+000  0.000000000000000E+000        
  0.000000000000000E+000  0.000000000000000E+000  0.000000000000000E+000        
  0.000000000000000E+000  0.000000000000000E+000   1.00000000000000             
    6    6                                                                      
   1.84800000000000        1.00000000000000       0.000000000000000E+000        
  0.000000000000000E+000  0.000000000000000E+000  0.000000000000000E+000        
  0.000000000000000E+000                                                        
  0.649000000000000       0.000000000000000E+000   1.00000000000000             
  0.000000000000000E+000  0.000000000000000E+000  0.000000000000000E+000        
  0.000000000000000E+000                                                        
  0.228000000000000       0.000000000000000E+000  0.000000000000000E+000        
   1.00000000000000       0.000000000000000E+000  0.000000000000000E+000        
  0.000000000000000E+000                                                        
   8.65600000000000       0.000000000000000E+000  0.000000000000000E+000        
  0.000000000000000E+000   1.00000000000000       0.000000000000000E+000        
  0.000000000000000E+000                                                        
   33.2130000000000       0.000000000000000E+000  0.000000000000000E+000        
  0.000000000000000E+000  0.000000000000000E+000   1.00000000000000             
  0.000000000000000E+000                                                        
  7.660000000000000E-002  0.000000000000000E+000  0.000000000000000E+000        
  0.000000000000000E+000  0.000000000000000E+000  0.000000000000000E+000        
   1.00000000000000                                                             
    4    4                                                                      
   1.41900000000000        1.00000000000000       0.000000000000000E+000        
  0.000000000000000E+000  0.000000000000000E+000                                
  0.485000000000000       0.000000000000000E+000   1.00000000000000             
  0.000000000000000E+000  0.000000000000000E+000                                
   24.6940000000000       0.000000000000000E+000  0.000000000000000E+000        
   1.00000000000000       0.000000000000000E+000                                
  0.187000000000000       0.000000000000000E+000  0.000000000000000E+000        
  0.000000000000000E+000   1.00000000000000                                     
    2    2                                                                      
   1.01100000000000        1.00000000000000       0.000000000000000E+000        
  0.424000000000000       0.000000000000000E+000   1.00000000000000             
          8.00000000    1    5    1    1    1    1    1                         
O #2   0.000000000000000   0.000000000000000  -0.788947413426222                
   16    9                                                                      
   61420.0000000000       9.000000000000001E-005 -2.000000000000000E-005        
  0.000000000000000E+000  0.000000000000000E+000  0.000000000000000E+000        
  0.000000000000000E+000  0.000000000000000E+000  0.000000000000000E+000        
  0.000000000000000E+000                                                        
   9199.00000000000       6.980000000000001E-004 -1.590000000000000E-004        
  0.000000000000000E+000  0.000000000000000E+000  0.000000000000000E+000        
  0.000000000000000E+000  0.000000000000000E+000  0.000000000000000E+000        
  0.000000000000000E+000                                                        
   2091.00000000000       3.664000000000000E-003 -8.290000000000000E-004        
  0.000000000000000E+000  0.000000000000000E+000  0.000000000000000E+000        
  0.000000000000000E+000  0.000000000000000E+000  0.000000000000000E+000        
  0.000000000000000E+000                                                        
   590.900000000000       1.521800000000000E-002 -3.508000000000000E-003        
  0.000000000000000E+000  0.000000000000000E+000  0.000000000000000E+000        
  0.000000000000000E+000  0.000000000000000E+000  0.000000000000000E+000        
  0.000000000000000E+000                                                        
   192.300000000000       5.242300000000000E-002 -1.215600000000000E-002        
  0.000000000000000E+000  0.000000000000000E+000  0.000000000000000E+000        
  0.000000000000000E+000  0.000000000000000E+000  0.000000000000000E+000        
  0.000000000000000E+000                                                        
   69.3200000000000       0.145921000000000      -3.626100000000000E-002        
  0.000000000000000E+000  0.000000000000000E+000  0.000000000000000E+000        
  0.000000000000000E+000  0.000000000000000E+000  0.000000000000000E+000        
  0.000000000000000E+000                                                        
   26.9700000000000       0.305258000000000      -8.299200000000000E-002        
  0.000000000000000E+000  0.000000000000000E+000  0.000000000000000E+000        
  0.000000000000000E+000  0.000000000000000E+000  0.000000000000000E+000        
  0.000000000000000E+000                                                        
   11.1000000000000       0.398508000000000      -0.152090000000000             
  0.000000000000000E+000  0.000000000000000E+000  0.000000000000000E+000        
  0.000000000000000E+000  0.000000000000000E+000  0.000000000000000E+000        
  0.000000000000000E+000                                                        
   4.68200000000000       0.216980000000000      -0.115331000000000             
  0.000000000000000E+000  0.000000000000000E+000  0.000000000000000E+000        
  0.000000000000000E+000  0.000000000000000E+000  0.000000000000000E+000        
  0.000000000000000E+000                                                        
   1.42800000000000       1.759400000000000E-002  0.288979000000000             
   1.00000000000000       0.000000000000000E+000  0.000000000000000E+000        
  0.000000000000000E+000  0.000000000000000E+000  0.000000000000000E+000        
  0.000000000000000E+000                                                        
  0.554700000000000      -2.502000000000000E-003  0.586128000000000             
  0.000000000000000E+000   1.00000000000000       0.000000000000000E+000        
  0.000000000000000E+000  0.000000000000000E+000  0.000000000000000E+000        
  0.000000000000000E+000                                                        
  0.206700000000000       9.540000000000000E-004  0.277624000000000             
  0.000000000000000E+000  0.000000000000000E+000   1.00000000000000             
  0.000000000000000E+000  0.000000000000000E+000  0.000000000000000E+000        
  0.000000000000000E+000                                                        
   12.9740000000000       0.000000000000000E+000  0.000000000000000E+000        
  0.000000000000000E+000  0.000000000000000E+000  0.000000000000000E+000        
   1.00000000000000       0.000000000000000E+000  0.000000000000000E+000        
  0.000000000000000E+000                                                        
   34.9000000000000       0.000000000000000E+000  0.000000000000000E+000        
  0.000000000000000E+000  0.000000000000000E+000  0.000000000000000E+000        
  0.000000000000000E+000   1.00000000000000       0.000000000000000E+000        
  0.000000000000000E+000                                                        
   93.8810000000000       0.000000000000000E+000  0.000000000000000E+000        
  0.000000000000000E+000  0.000000000000000E+000  0.000000000000000E+000        
  0.000000000000000E+000  0.000000000000000E+000   1.00000000000000             
  0.000000000000000E+000                                                        
  6.959000000000000E-002  0.000000000000000E+000  0.000000000000000E+000        
  0.000000000000000E+000  0.000000000000000E+000  0.000000000000000E+000        
  0.000000000000000E+000  0.000000000000000E+000  0.000000000000000E+000        
   1.00000000000000                                                             
   10    8                                                                      
   63.4200000000000       6.044000000000000E-003  0.000000000000000E+000        
  0.000000000000000E+000  0.000000000000000E+000  0.000000000000000E+000        
  0.000000000000000E+000  0.000000000000000E+000  0.000000000000000E+000        
   14.6600000000000       4.179900000000000E-002  0.000000000000000E+000        
  0.000000000000000E+000  0.000000000000000E+000  0.000000000000000E+000        
  0.000000000000000E+000  0.000000000000000E+000  0.000000000000000E+000        
   4.45900000000000       0.161143000000000       0.000000000000000E+000        
  0.000000000000000E+000  0.000000000000000E+000  0.000000000000000E+000        
  0.000000000000000E+000  0.000000000000000E+000  0.000000000000000E+000        
   1.53100000000000       0.356731000000000        1.00000000000000             
  0.000000000000000E+000  0.000000000000000E+000  0.000000000000000E+000        
  0.000000000000000E+000  0.000000000000000E+000  0.000000000000000E+000        
  0.530200000000000       0.448309000000000       0.000000000000000E+000        
   1.00000000000000       0.000000000000000E+000  0.000000000000000E+000        
  0.000000000000000E+000  0.000000000000000E+000  0.000000000000000E+000        
  0.175000000000000       0.244940000000000       0.000000000000000E+000        
  0.000000000000000E+000   1.00000000000000       0.000000000000000E+000        
  0.000000000000000E+000  0.000000000000000E+000  0.000000000000000E+000        
   14.4750000000000       0.000000000000000E+000  0.000000000000000E+000        
  0.000000000000000E+000  0.000000000000000E+000   1.00000000000000             
  0.000000000000000E+000  0.000000000000000E+000  0.000000000000000E+000        
   42.7300000000000       0.000000000000000E+000  0.000000000000000E+000        
  0.000000000000000E+000  0.000000000000000E+000  0.000000000000000E+000        
   1.00000000000000       0.000000000000000E+000  0.000000000000000E+000        
   126.140000000000       0.000000000000000E+000  0.000000000000000E+000        
  0.000000000000000E+000  0.000000000000000E+000  0.000000000000000E+000        
  0.000000000000000E+000   1.00000000000000       0.000000000000000E+000        
  5.348000000000000E-002  0.000000000000000E+000  0.000000000000000E+000        
  0.000000000000000E+000  0.000000000000000E+000  0.000000000000000E+000        
  0.000000000000000E+000  0.000000000000000E+000   1.00000000000000             
    6    6                                                                      
   3.77500000000000        1.00000000000000       0.000000000000000E+000        
  0.000000000000000E+000  0.000000000000000E+000  0.000000000000000E+000        
  0.000000000000000E+000                                                        
   1.30000000000000       0.000000000000000E+000   1.00000000000000             
  0.000000000000000E+000  0.000000000000000E+000  0.000000000000000E+000        
  0.000000000000000E+000                                                        
  0.444000000000000       0.000000000000000E+000  0.000000000000000E+000        
   1.00000000000000       0.000000000000000E+000  0.000000000000000E+000        
  0.000000000000000E+000                                                        
   14.9270000000000       0.000000000000000E+000  0.000000000000000E+000        
  0.000000000000000E+000   1.00000000000000       0.000000000000000E+000        
  0.000000000000000E+000                                                        
   57.5440000000000       0.000000000000000E+000  0.000000000000000E+000        
  0.000000000000000E+000  0.000000000000000E+000   1.00000000000000             
  0.000000000000000E+000                                                        
  0.154000000000000       0.000000000000000E+000  0.000000000000000E+000        
  0.000000000000000E+000  0.000000000000000E+000  0.000000000000000E+000        
   1.00000000000000                                                             
    4    4                                                                      
   2.66600000000000        1.00000000000000       0.000000000000000E+000        
  0.000000000000000E+000  0.000000000000000E+000                                
  0.859000000000000       0.000000000000000E+000   1.00000000000000             
  0.000000000000000E+000  0.000000000000000E+000                                
   26.4830000000000       0.000000000000000E+000  0.000000000000000E+000        
   1.00000000000000       0.000000000000000E+000                                
  0.324000000000000       0.000000000000000E+000  0.000000000000000E+000        
  0.000000000000000E+000   1.00000000000000                                     
    2    2                                                                      
   1.84600000000000        1.00000000000000       0.000000000000000E+000        
  0.714000000000000       0.000000000000000E+000   1.00000000000000             
FINISH                                                                          
 
********************************************************************************
 ONE- AND TWO-ELECTRON INTEGRALS OVER SYMMETRY-ADAPTED AOS ARE CALCULATED.

  SPHERICAL HARMONICS ARE USED.
  
  INTEGRALS LESS THAN  0.10E-13 ARE NEGLECTED.

  NUCLEAR REPULSION ENERGY :   27.2820193778 A.U.
  @MOLECU-I, ONE ELECTRON INTEGRALS (CPU/WALL):        0.05/       0.06 SECONDS.
  @TWOEL-I,    4709398 INTEGRALS OF SYMMETRY TYPE  I I I I
  @TWOEL-I,   20152204 INTEGRALS OF SYMMETRY TYPE  I J I J
  @TWOEL-I,   10620430 INTEGRALS OF SYMMETRY TYPE  I I J J
  @TWOEL-I,   14873334 INTEGRALS OF SYMMETRY TYPE  I J K L
  @TWOEL-I, TOTAL NUMBER OF 2-E INTEGRALS   50355366.
  @MOLECU-I, TWO ELECTRON INTEGRALS (CPU/WALL):      199.49/      25.23 SECONDS.
 @CHECKOUT-I, Total execution time (CPU/WALL):      199.55/      25.32 seconds.

Running with 14 threads/proc

--executable xvmol finished with status     0 in       25.33 seconds (walltime).
 --invoking executable--
/nfs/workspaces/public/cfour_mpi/bin/xvmol2ja
 @GETMEM-I,  Allocated    3814 MB of main memory.
 @CHECKOUT-I, Total execution time (CPU/WALL):        0.14/       0.06 seconds.
--executable xvmol2ja finished with status     0 in        0.07 seconds (walltime).
 --invoking executable--
/nfs/workspaces/public/cfour_mpi/bin/xvprop
 @GETMEM-I,  Allocated    3814 MB of main memory.
   Property integrals will be calculated.
    --------------------------------------------------------------
                                   Property evaluated at 
    Property type                X             Y             Z
    --------------------------------------------------------------
    Dipole moment               ----          ----          ----  
    Quadrupole moment           ----          ----          ----  
    Octopole moment             ----          ----          ----  
    Relativisitic corr.         ----          ----          ----  
    Second moment            0.0000000     0.0000000     0.0000000
    Electron density         0.0000000     0.0000000     0.9704531
    Electron density         0.0000000     0.0000000    -0.7889474
    Field gradient           0.0000000     0.0000000     0.9704531
    Field gradient           0.0000000     0.0000000    -0.7889474
    Potential                0.0000000     0.0000000     0.9704531
    Potential                0.0000000     0.0000000    -0.7889474
    --------------------------------------------------------------
 @CHECKOUT-I, Total execution time (CPU/WALL):        1.43/       1.46 seconds.
--executable xvprop finished with status     0 in        1.47 seconds (walltime).
 --invoking executable--
/nfs/workspaces/public/cfour_mpi/bin/xvscf
  There are  218 functions in the AO basis.

  There are 4 irreducible representations.

       Irrep        # of functions
         1                 86
         2                 52
         3                 52
         4                 28


  Parameters for SCF calculation: 
        SCF reference function:  RHF  
  Maximum number of iterations:  150
     Full symmetry point group: CXv 
     Computational point group: C2v 
        Initial density matrix: MOREAD                 
     SCF convergence tolerance: 10**(-10)
  DIIS convergence acceleration:  ON
          Latest start for DIIS:   8
                     DIIS order:   6

  Memory information:    2523578 words required.
  Fock matrices are constructed from AO integral file.
 @GETMEM-I,  Allocated      19 MB of main memory.
  Initialization and symmetry analysis required      0.001 seconds.

  Adding electric field perturbation to one-electron Hamiltonian.
  Field direction     : Z
  Field strength      :  0.0002000 a.u.

  @INITGES-I, Occupancies from core Hamiltonian:

          Alpha population by irrep:   5    1    1    0
           Beta population by irrep:   5    1    1    0


 total no. of electrons in initial guess :  0.000000000000000E+000
  --------------------------------------------------------------------
  Iteration         Total Energy            Largest Density Difference
  --------------------------------------------------------------------
       0            27.282117149870647              0.0000000000D+00
   current occupation vector 
     5  1  1  0
     5  1  1  0
       1           -89.707025926043357              0.2067362974D+02
   current occupation vector 
     5  1  1  0
     5  1  1  0
       2           -91.699324046670739              0.1252818618D+03
   current occupation vector 
     5  1  1  0
     5  1  1  0
       3          -104.301874650472016              0.1253003119D+03
   current occupation vector 
     4  1  2  0
     4  1  2  0
       4          -102.168903225565728              0.1841116217D+02
   current occupation vector 
     5  1  1  0
     5  1  1  0
       5          -106.464261580461184              0.1840977669D+02
   current occupation vector 
     4  1  2  0
     4  1  2  0
       6          -103.859123861932218              0.1362152633D+02
   current occupation vector 
     5  1  1  0
     5  1  1  0
       7          -105.403009005351478              0.1334323199D+02
   current occupation vector 
     5  1  1  0
     5  1  1  0
       8          -102.996756633164082              0.4849537928D+01
   current occupation vector 
     5  1  1  0
     5  1  1  0
       9          -112.096410477059081              0.3061344046D+01
   current occupation vector 
     5  1  1  0
     5  1  1  0
      10          -112.585046907864736              0.6661452909D+00
   current occupation vector 
     5  1  1  0
     5  1  1  0
      11          -112.668709737510582              0.2219768728D+00
   current occupation vector 
     5  1  1  0
     5  1  1  0
      12          -112.670869216992045              0.4402717267D-01
   current occupation vector 
     5  1  1  0
     5  1  1  0
      13          -112.670959887799157              0.1299333244D-01
   current occupation vector 
     5  1  1  0
     5  1  1  0
      14          -112.670967005458166              0.3784485051D-02
   current occupation vector 
     5  1  1  0
     5  1  1  0
      15          -112.670968138996599              0.1840871331D-02
   current occupation vector 
     5  1  1  0
     5  1  1  0
      16          -112.670968214514275              0.4478991473D-03
   current occupation vector 
     5  1  1  0
     5  1  1  0
      17          -112.670968217158119              0.9537007258D-04
   current occupation vector 
     5  1  1  0
     5  1  1  0
      18          -112.670968217216270              0.1059789436D-04
   current occupation vector 
     5  1  1  0
     5  1  1  0
      19          -112.670968217220022              0.1608900787D-05
   current occupation vector 
     5  1  1  0
     5  1  1  0
      20          -112.670968217219794              0.5000223835D-06
   current occupation vector 
     5  1  1  0
     5  1  1  0
      21          -112.670968217218885              0.8394195650D-07
   current occupation vector 
     5  1  1  0
     5  1  1  0
      22          -112.670968217218800              0.1878824940D-07
   current occupation vector 
     5  1  1  0
     5  1  1  0
      23          -112.670968217219823              0.4831801848D-08
   current occupation vector 
     5  1  1  0
     5  1  1  0
      24          -112.670968217219993              0.1530171545D-08
   current occupation vector 
     5  1  1  0
     5  1  1  0
      25          -112.670968217219027              0.6439797584D-09
   current occupation vector 
     5  1  1  0
     5  1  1  0
      26          -112.670968217218800              0.1960915874D-09
   current occupation vector 
     5  1  1  0
     5  1  1  0
      27          -112.670968217218629              0.1259621296D-09
   current occupation vector 
     5  1  1  0
     5  1  1  0
      28          -112.670968217218771              0.4948169652D-09
   current occupation vector 
     5  1  1  0
     5  1  1  0
      29          -112.670968217219539              0.3311014796D-09
   current occupation vector 
     5  1  1  0
     5  1  1  0
      30          -112.670968217219084              0.1828381890D-09
   current occupation vector 
     5  1  1  0
     5  1  1  0
      31          -112.670968217218771              0.2760365270D-09
   current occupation vector 
     5  1  1  0
     5  1  1  0
      32          -112.670968217218913              0.5909616130D-09
   current occupation vector 
     5  1  1  0
     5  1  1  0
      33          -112.670968217220050              0.2045392744D-08
   current occupation vector 
     5  1  1  0
     5  1  1  0
      34          -112.670968217218316              0.1653418291D-08
   current occupation vector 
     5  1  1  0
     5  1  1  0
      35          -112.670968217218828              0.1974349573D-09
   current occupation vector 
     5  1  1  0
     5  1  1  0
      36          -112.670968217219198              0.2048579639D-09
   current occupation vector 
     5  1  1  0
     5  1  1  0

  SCF has converged.

 Density matrix saved to file den.dat
 total electron number:   14.0000000000004     
     E(SCF)=      -112.670968217219539              0.6043654466D-10

  Eigenvector printing suppressed.

 @PUTMOS-I, Writing converged MOs to NEWMOS. 
 @PUTMOS-I, Symmetry   1 Full Blocks 21 Partial Blocksize   2
 @PUTMOS-I, Symmetry   2 Full Blocks 13 Partial Blocksize   0
 @PUTMOS-I, Symmetry   3 Full Blocks 13 Partial Blocksize   0
 @PUTMOS-I, Symmetry   4 Full Blocks  7 Partial Blocksize   0
 @PUTFOCK-I, Writing converged Fock matrix to NEWFOCK. 
 @PUTFOCK-I, Symmetry   1 Full Blocks 21 Partial Blocksize   2
 @PUTFOCK-I, Symmetry   2 Full Blocks 13 Partial Blocksize   0
 @PUTFOCK-I, Symmetry   3 Full Blocks 13 Partial Blocksize   0
 @PUTFOCK-I, Symmetry   4 Full Blocks  7 Partial Blocksize   0


 
  ORBITAL EIGENVALUES (ALPHA)  (1H = 27.2113834 eV)

       MO #        E(hartree)               E(eV)           FULLSYM    COMPSYM
       ----   --------------------   --------------------   -------   ---------
    1     1         -20.6487295382        -561.8804961872     SG+        A1 (1)
    2     2         -11.2713712289        -306.7096039532     SG+        A1 (1)
    3     3          -1.6604451636         -45.1830099612     SG+        A1 (1)
    4     4          -0.8208291544         -22.3358968273     SG+        A1 (1)
    5   139          -0.7424747867         -20.2037660855      PI        B2 (3)
    6    87          -0.7424747867         -20.2037660853      PI        B1 (2)
    7     5          -0.5251573926         -14.2902591540     SG+        A1 (1)
  +++++++++++++++++++++++++++++++++++++++++++++++++++++++++++++++++++++++++++++
    8     6           0.0559734795           1.5231158118     SG+        A1 (1)
    9   140           0.0652099793           1.7744537489      PI        B2 (3)
   10    88           0.0652099793           1.7744537489      PI        B1 (2)
   11     7           0.0781805343           2.1274004926     SG+        A1 (1)
   12    89           0.1541660678           4.1950719781      PI        B1 (2)
   13   141           0.1541660678           4.1950719782      PI        B2 (3)
   14     8           0.1560816143           4.2471966475     SG+        A1 (1)
   15   142           0.2069135185           5.6304030826      PI        B2 (3)
   16    90           0.2069135185           5.6304030827      PI        B1 (2)
   17     9           0.2261797584           6.1546641218     SG+        A1 (1)
   18   191           0.2271940201           6.1822635859      DE        A2 (4)
   19    10           0.2271940201           6.1822635859      DE        A1 (1)
   20    11           0.3028649736           8.2413749154     SG+        A1 (1)
   21    91           0.3471409059           9.4461842841      PI        B1 (2)
   22   143           0.3471409059           9.4461842841      PI        B2 (3)
   23    12           0.4005092597          10.8984110209     SG+        A1 (1)
   24    92           0.4083553731          11.1119146213      PI        B1 (2)
   25   144           0.4083553731          11.1119146213      PI        B2 (3)
   26    13           0.5072807562          13.8038111497     SG+        A1 (1)
   27   192           0.5188914502          14.1197541942      DE        A2 (4)
   28    14           0.5188914502          14.1197541942      DE        A1 (1)
   29   145           0.6174894682          16.8027426656      PI        B2 (3)
   30    93           0.6174894682          16.8027426656      PI        B1 (2)
   31    15           0.6589240324          17.9302344768     SG+        A1 (1)
   32   146           0.7501889512          20.4136791737      PH        B2 (3)
   33    94           0.7501889512          20.4136791737      PH        B1 (2)
   34   193           0.7695766253          20.9412446068      DE        A2 (4)
   35    16           0.7695766253          20.9412446069      DE        A1 (1)
   36    17           0.7976386653          21.7048515365     SG+        A1 (1)
   37    95           0.8496140649          23.1191740622      PI        B1 (2)
   38   147           0.8496140649          23.1191740622      PI        B2 (3)
   39    96           0.8693261727          23.6555677842      PI        B1 (2)
   40   148           0.8693261727          23.6555677842      PI        B2 (3)
   41    18           0.8802989727          23.9541528522     SG+        A1 (1)
   42    19           0.9100292049          24.7631536003      DE        A1 (1)
   43   194           0.9100292049          24.7631536003      DE        A2 (4)
   44    20           0.9662488487          26.2929678809     SG+        A1 (1)
   45   149           1.1328229781          30.8256803814      PI        B2 (3)
   46    97           1.1328229781          30.8256803814      PI        B1 (2)
   47    21           1.3627771701          37.0830520638     SG+        A1 (1)
   48    98           1.4596082166          39.7179587944      PH        B1 (2)
   49   150           1.4596082166          39.7179587944      PH        B2 (3)
   50    22           1.4952482579          40.6877736236      DE        A1 (1)
   51   195           1.4952482579          40.6877736236      DE        A2 (4)
   52    99           1.5232761952          41.4504525725      PI        B1 (2)
   53   151           1.5232761952          41.4504525725      PI        B2 (3)
   54    23           1.5623250687          42.5130264391     SG+        A1 (1)
   55    24           1.6645968307          45.2959825663     SG+        A1 (1)
   56   196           1.7732059555          48.2513871027      DE        A2 (4)
   57    25           1.7732059555          48.2513871028      DE        A1 (1)
   58    26           1.7786557886          48.3996845993     SG+        A1 (1)
   59   100           1.8550854229          50.4794406809      PI        B1 (2)
   60   152           1.8550854229          50.4794406811      PI        B2 (3)
   61   153           2.0209500841          54.9928475698      PI        B2 (3)
   62   101           2.0209500841          54.9928475698      PI        B1 (2)
   63   197           2.1165038222          57.5929969745      PI        A2 (4)
   64    27           2.1165038222          57.5929969745      PI        A1 (1)
   65    28           2.2387366508          60.9191213375     SG+        A1 (1)
   66   198           2.2437743722          61.0562047057      DE        A2 (4)
   67    29           2.2437743722          61.0562047057      DE        A1 (1)
   68   102           2.2648660372          61.6301380882      PH        B1 (2)
   69   154           2.2648660372          61.6301380882      PH        B2 (3)
   70    30           2.3514831417          63.9871093282     SG+        A1 (1)
   71   155           2.3590464314          64.1929169031      PI        B2 (3)
   72   103           2.3590464314          64.1929169032      PI        B1 (2)
   73   199           2.3940779437          65.1461728154      DE        A2 (4)
   74    31           2.3940779437          65.1461728154      DE        A1 (1)
   75   156           2.4404995545          66.4093690662      PH        B2 (3)
   76   104           2.4404995545          66.4093690662      PH        B1 (2)
   77   157           2.6109380473          71.0472362377      PI        B2 (3)
   78   105           2.6109380473          71.0472362377      PI        B1 (2)
   79    32           2.6524296432          72.1762799639     SG+        A1 (1)
   80   158           3.0660700429          83.4320074685      PI        B2 (3)
   81   106           3.0660700429          83.4320074685      PI        B1 (2)
   82   200           3.1602400186          85.9945027831      DE        A2 (4)
   83    33           3.1602400186          85.9945027834      DE        A1 (1)
   84    34           3.1845295661          86.6554549722     SG+        A1 (1)
   85    35           3.3539553363          91.2657645619     SG+        A1 (1)
   86   159           3.7400440009         101.7717712416      PI        B2 (3)
   87   107           3.7400440009         101.7717712416      PI        B1 (2)
   88   201           3.7792587900         102.8388599024      PI        A2 (4)
   89    36           3.7792587900         102.8388599024      PI        A1 (1)
   90    37           4.0069002315         109.0332984446     SG+        A1 (1)
   91   160           4.0593117022         110.4594870679      PH        B2 (3)
   92   108           4.0593117022         110.4594870679      PH        B1 (2)
   93   202           4.1802206044         113.7495855621      DE        A2 (4)
   94    38           4.1802206044         113.7495855622      DE        A1 (1)
   95   109           4.2194910465         114.8181886187      PI        B1 (2)
   96   161           4.2194910465         114.8181886187      PI        B2 (3)
   97    39           4.3560229196         118.5334097649     SG+        A1 (1)
   98   203           4.4737549716         121.7370617690      DE        A2 (4)
   99    40           4.4737549716         121.7370617691      DE        A1 (1)
  100   110           4.5271012401         123.1886875338      PH        B1 (2)
  101   162           4.5271012401         123.1886875339      PH        B2 (3)
  102    41           4.7209222721         128.4628259489     SG+        A1 (1)
  103   163           4.9344193222         134.2723760316      PI        B2 (3)
  104   111           4.9344193222         134.2723760316      PI        B1 (2)
  105    42           5.1745305018         140.8061333998     SG+        A1 (1)
  106    43           5.2069276360         141.6877042387      DE        A1 (1)
  107   204           5.2069276360         141.6877042387      DE        A2 (4)
  108   164           5.3514565726         145.6205365468      PI        B2 (3)
  109   112           5.3514565726         145.6205365468      PI        B1 (2)
  110   205           5.9322199374         161.4239111297      PI        A2 (4)
  111    44           5.9322199374         161.4239111297      PI        A1 (1)
  112   165           6.0229721508         163.8934044035      PI        B2 (3)
  113   113           6.0229721508         163.8934044037      PI        B1 (2)
  114    45           6.1459447428         167.2396587509     SG+        A1 (1)
  115   114           6.3169267909         171.8923168179      PH        B1 (2)
  116   166           6.3169267909         171.8923168179      PH        B2 (3)
  117   206           6.3516328467         172.8367166089      DE        A2 (4)
  118    46           6.3516328467         172.8367166089      DE        A1 (1)
  119    47           6.3624858193         173.1320410049     SG+        A1 (1)
  120   167           6.4304401846         174.9811732935      PI        B2 (3)
  121   115           6.4304401846         174.9811732936      PI        B1 (2)
  122   116           6.5639719935         178.6147585423      PH        B1 (2)
  123   168           6.5639719935         178.6147585423      PH        B2 (3)
  124   207           6.7877467303         184.7039786994      DE        A2 (4)
  125    48           6.7877467303         184.7039786997      DE        A1 (1)
  126    49           7.1722321003         195.1663575151     SG+        A1 (1)
  127   169           8.0070017415         217.8815942726      PI        B2 (3)
  128   117           8.0070017415         217.8815942727      PI        B1 (2)
  129    50           8.2100582813         223.4070436297      DE        A1 (1)
  130   208           8.2100582813         223.4070436300      DE        A2 (4)
  131    51           8.6876018993         236.4016661076     SG+        A1 (1)
  132    52           8.8784273140         241.5942896315     SG+        A1 (1)
  133   170           9.0153025109         245.3188530902      PI        B2 (3)
  134   118           9.0153025109         245.3188530906      PI        B1 (2)
  135    53           9.9011031922         269.4227150470     SG+        A1 (1)
  136   119          10.2259628345         278.2625953235      PI        B1 (2)
  137   171          10.2259628345         278.2625953236      PI        B2 (3)
  138   209          10.6094637869         288.6981867744      PI        A2 (4)
  139    54          10.6094637869         288.6981867744      PI        A1 (1)
  140   120          11.0773774878         301.4307658862      PH        B1 (2)
  141   172          11.0773774878         301.4307658862      PH        B2 (3)
  142   210          11.3763379721         309.5658942470      DE        A2 (4)
  143    55          11.3763379721         309.5658942470      DE        A1 (1)
  144    56          11.4092474546         310.4614067938     SG+        A1 (1)
  145   121          11.4839794388         312.4949674667      PI        B1 (2)
  146   173          11.4839794388         312.4949674668      PI        B2 (3)
  147   122          11.8812415448         323.3050189423      PH        B1 (2)
  148   174          11.8812415448         323.3050189423      PH        B2 (3)
  149    57          12.4942741010         339.9864828665      DE        A1 (1)
  150   211          12.4942741010         339.9864828668      DE        A2 (4)
  151    58          13.0212790663         354.3270170306     SG+        A1 (1)
  152    59          13.2166860485         359.6443113445      DE        A1 (1)
  153   212          13.2166860486         359.6443113445      DE        A2 (4)
  154   123          13.3374303421         362.9299306105      PI        B1 (2)
  155   175          13.3374303421         362.9299306106      PI        B2 (3)
  156    60          14.1983011325         386.3554157445     SG+        A1 (1)
  157   176          15.2979569268         416.2785711710      PI        B2 (3)
  158   124          15.2979569268         416.2785711710      PI        B1 (2)
  159    61          15.6500210795         425.8587238133     SG+        A1 (1)
  160    62          19.0526546382         518.4490901484     SG+        A1 (1)
  161   177          19.7219925349         536.6627002794      PI        B2 (3)
  162   125          19.7219925349         536.6627002795      PI        B1 (2)
  163    63          21.7962370745         593.1057637116     SG+        A1 (1)
  164   213          26.7936799255         729.0930971495      DE        A2 (4)
  165    64          26.7936799255         729.0930971496      DE        A1 (1)
  166   178          27.9362056514         760.1828027212      PI        B2 (3)
  167   126          27.9362056514         760.1828027213      PI        B1 (2)
  168    65          29.2113462222         794.8811416825     SG+        A1 (1)
  169   127          34.0595102800         926.8063926454      PI        B1 (2)
  170   179          34.0595102800         926.8063926463      PI        B2 (3)
  171    66          36.3325298586         988.6583998732     SG+        A1 (1)
  172    67          37.5049471204        1020.5614954888     SG+        A1 (1)
  173   214          47.2448363634        1285.5973559549      DE        A2 (4)
  174    68          47.2448363634        1285.5973559550      DE        A1 (1)
  175   128          48.2289081803        1312.3753114576      PI        B1 (2)
  176   180          48.2289081803        1312.3753114576      PI        B2 (3)
  177    69          48.8593738868        1329.5311555165     SG+        A1 (1)
  178    70          65.0804571041        1770.9292701081     SG+        A1 (1)
  179   181          67.1511467066        1827.2755987821      PI        B2 (3)
  180   129          67.1511467066        1827.2755987821      PI        B1 (2)
  181    71          68.7494680967        1870.7681349258     SG+        A1 (1)
  182   130          98.7821712837        2687.9995358846      PH        B1 (2)
  183   182          98.7821712837        2687.9995358846      PH        B2 (3)
  184    72          98.8363096029        2689.4727144443      DE        A1 (1)
  185   215          98.8363096029        2689.4727144444      DE        A2 (4)
  186   183          98.8891796924        2690.9113827208      PI        B2 (3)
  187   131          98.8891796924        2690.9113827208      PI        B1 (2)
  188    73          98.9511104361        2692.5966039311     SG+        A1 (1)
  189   132         103.3060503242        2811.1005429128      PH        B1 (2)
  190   184         103.3060503242        2811.1005429128      PH        B2 (3)
  191    74         103.3784417501        2813.0704137552      DE        A1 (1)
  192   216         103.3784417501        2813.0704137564      DE        A2 (4)
  193   133         103.4795462878        2815.8216080950      PI        B1 (2)
  194   185         103.4795462878        2815.8216080951      PI        B2 (3)
  195    75         103.5967034518        2819.0096166032     SG+        A1 (1)
  196   217         115.3798896526        3139.6464139873      DE        A2 (4)
  197    76         115.3798896526        3139.6464139874      DE        A1 (1)
  198   186         115.9430259572        3154.9701318776      PI        B2 (3)
  199   134         115.9430259572        3154.9701318776      PI        B1 (2)
  200    77         116.4657128997        3169.1931666671     SG+        A1 (1)
  201   135         117.2778153194        3191.2915969696      PI        B1 (2)
  202   187         117.2778153194        3191.2915969710      PI        B2 (3)
  203    78         119.2407863607        3244.7067545777     SG+        A1 (1)
  204    79         123.5122558331        3360.9393480733     SG+        A1 (1)
  205    80         198.6662992929        5405.9848387190      DE        A1 (1)
  206   218         198.6662992929        5405.9848387190      DE        A2 (4)
  207   188         199.2119746532        5420.8334201598      PI        B2 (3)
  208   136         199.2119746532        5420.8334201601      PI        B1 (2)
  209    81         199.5599066799        5430.3011319338     SG+        A1 (1)
  210    82         217.4941750137        5918.3173835650     SG+        A1 (1)
  211   137         225.5399703925        6137.2546063743      PI        B1 (2)
  212   189         225.5399703925        6137.2546063743      PI        B2 (3)
  213    83         226.8174755840        6172.0172899365     SG+        A1 (1)
  214   138         395.6809889938       10767.0270956025      PI        B1 (2)
  215   190         395.6809889939       10767.0270956039      PI        B2 (3)
  216    84         397.1268670341       10806.3714373069     SG+        A1 (1)
  217    85         509.9364739854       13876.0769032619     SG+        A1 (1)
  218    86         896.3902048754       24392.0175408686     SG+        A1 (1)


  VSCF finished.

 @CHECKOUT-I, Total execution time (CPU/WALL):       64.04/      13.28 seconds.
--executable xvscf finished with status     0 in       13.29 seconds (walltime).
 --invoking executable--
/nfs/workspaces/public/cfour_mpi/bin/xvtran
 @GETMEM-I,  Allocated    3814 MB of main memory.
  Full RHF integral transformation
  Transformation of IIII integrals :
  1 pass through the AO integral file was required.
     4709398 AO integrals were read.
     8935290 MO integrals were written to HF2.
  Transformation of IIJJ integrals :
  1 pass through the AO integral file was required.
    10620430 AO integrals were read.
    14789453 MO integrals were written to HF2.
  Transformation of IJIJ integrals :
  1 pass through the AO integral file was required.
    20152204 AO integrals were read.
    28360904 MO integrals were written to HF2.
  Transformation of IJKL integrals :
  1 pass through the AO integral file was required.
    14873334 AO integrals were read.
    19254249 MO integrals were written to HF2.
  Summary of active molecular orbitals: 
------------------------------------------------------------------------
 
  Index      Eigenvalue    Symmetry    Index      Eigenvalue    Symmetry
------------------------------------------------------------------------
     1       -20.6487295        1       110         4.2194910        2
     2       -11.2713712        1       111         4.5271012        2
     3        -1.6604452        1       112         4.9344193        2
     4        -0.8208292        1       113         5.3514566        2
     5        -0.5251574        1       114         6.0229722        2
     6        -0.7424748        2       115         6.3169268        2
     7        -0.7424748        3       116         6.4304402        2
     8         0.0559735        1       117         6.5639720        2
     9         0.0781805        1       118         8.0070017        2
    10         0.1560816        1       119         9.0153025        2
    11         0.2261798        1       120        10.2259628        2
    12         0.2271940        1       121        11.0773775        2
    13         0.3028650        1       122        11.4839794        2
    14         0.4005093        1       123        11.8812415        2
    15         0.5072808        1       124        13.3374303        2
    16         0.5188915        1       125        15.2979569        2
    17         0.6589240        1       126        19.7219925        2
    18         0.7695766        1       127        27.9362057        2
    19         0.7976387        1       128        34.0595103        2
    20         0.8802990        1       129        48.2289082        2
    21         0.9100292        1       130        67.1511467        2
    22         0.9662488        1       131        98.7821713        2
    23         1.3627772        1       132        98.8891797        2
    24         1.4952483        1       133       103.3060503        2
    25         1.5623251        1       134       103.4795463        2
    26         1.6645968        1       135       115.9430260        2
    27         1.7732060        1       136       117.2778153        2
    28         1.7786558        1       137       199.2119747        2
    29         2.1165038        1       138       225.5399704        2
    30         2.2387367        1       139       395.6809890        2
    31         2.2437744        1       140         0.0652100        3
    32         2.3514831        1       141         0.1541661        3
    33         2.3940779        1       142         0.2069135        3
    34         2.6524296        1       143         0.3471409        3
    35         3.1602400        1       144         0.4083554        3
    36         3.1845296        1       145         0.6174895        3
    37         3.3539553        1       146         0.7501890        3
    38         3.7792588        1       147         0.8496141        3
    39         4.0069002        1       148         0.8693262        3
    40         4.1802206        1       149         1.1328230        3
    41         4.3560229        1       150         1.4596082        3
    42         4.4737550        1       151         1.5232762        3
    43         4.7209223        1       152         1.8550854        3
    44         5.1745305        1       153         2.0209501        3
    45         5.2069276        1       154         2.2648660        3
    46         5.9322199        1       155         2.3590464        3
    47         6.1459447        1       156         2.4404996        3
    48         6.3516328        1       157         2.6109380        3
    49         6.3624858        1       158         3.0660700        3
    50         6.7877467        1       159         3.7400440        3
    51         7.1722321        1       160         4.0593117        3
    52         8.2100583        1       161         4.2194910        3
    53         8.6876019        1       162         4.5271012        3
    54         8.8784273        1       163         4.9344193        3
    55         9.9011032        1       164         5.3514566        3
    56        10.6094638        1       165         6.0229722        3
    57        11.3763380        1       166         6.3169268        3
    58        11.4092475        1       167         6.4304402        3
    59        12.4942741        1       168         6.5639720        3
    60        13.0212791        1       169         8.0070017        3
    61        13.2166860        1       170         9.0153025        3
    62        14.1983011        1       171        10.2259628        3
    63        15.6500211        1       172        11.0773775        3
    64        19.0526546        1       173        11.4839794        3
    65        21.7962371        1       174        11.8812415        3
    66        26.7936799        1       175        13.3374303        3
    67        29.2113462        1       176        15.2979569        3
    68        36.3325299        1       177        19.7219925        3
    69        37.5049471        1       178        27.9362057        3
    70        47.2448364        1       179        34.0595103        3
    71        48.8593739        1       180        48.2289082        3
    72        65.0804571        1       181        67.1511467        3
    73        68.7494681        1       182        98.7821713        3
    74        98.8363096        1       183        98.8891797        3
    75        98.9511104        1       184       103.3060503        3
    76       103.3784418        1       185       103.4795463        3
    77       103.5967035        1       186       115.9430260        3
    78       115.3798897        1       187       117.2778153        3
    79       116.4657129        1       188       199.2119747        3
    80       119.2407864        1       189       225.5399704        3
    81       123.5122558        1       190       395.6809890        3
    82       198.6662993        1       191         0.2271940        4
    83       199.5599067        1       192         0.5188915        4
    84       217.4941750        1       193         0.7695766        4
    85       226.8174756        1       194         0.9100292        4
    86       397.1268670        1       195         1.4952483        4
    87       509.9364740        1       196         1.7732060        4
    88       896.3902049        1       197         2.1165038        4
    89         0.0652100        2       198         2.2437744        4
    90         0.1541661        2       199         2.3940779        4
    91         0.2069135        2       200         3.1602400        4
    92         0.3471409        2       201         3.7792588        4
    93         0.4083554        2       202         4.1802206        4
    94         0.6174895        2       203         4.4737550        4
    95         0.7501890        2       204         5.2069276        4
    96         0.8496141        2       205         5.9322199        4
    97         0.8693262        2       206         6.3516328        4
    98         1.1328230        2       207         6.7877467        4
    99         1.4596082        2       208         8.2100583        4
   100         1.5232762        2       209        10.6094638        4
   101         1.8550854        2       210        11.3763380        4
   102         2.0209501        2       211        12.4942741        4
   103         2.2648660        2       212        13.2166860        4
   104         2.3590464        2       213        26.7936799        4
   105         2.4404996        2       214        47.2448364        4
   106         2.6109380        2       215        98.8363096        4
   107         3.0660700        2       216       103.3784418        4
   108         3.7400440        2       217       115.3798897        4
   109         4.0593117        2       218       198.6662993        4
------------------------------------------------------------------------
  -20.6487295382115       -11.2713712288942       -1.66044516359311     
 -0.820829154437730      -0.525157392550466      -0.742474786685885     
 -0.742474786691318       5.597347953283970E-002  7.818053427522324E-002
  0.156081614265208       0.226179758350385       0.227194020055862     
  0.302864973611146       0.400509259698075       0.507280756248425     
[...]
 Convergence information after     6 iterations: 
 Largest element of residual vector : -0.34321029E-03.
 Largest element of DIIS residual   : -0.88873007E-04.
 Convergence information after     7 iterations: 
 Largest element of residual vector : -0.59797721E-04.
 Largest element of DIIS residual   : -0.27040527E-04.
 Convergence information after     8 iterations: 
 Largest element of residual vector : -0.16609391E-04.
 Largest element of DIIS residual   :  0.97589112E-05.
 Convergence information after     9 iterations: 
 Largest element of residual vector :  0.50456977E-05.
 Largest element of DIIS residual   :  0.22918969E-05.
 Convergence information after    10 iterations: 
 Largest element of residual vector :  0.18206436E-05.
 Largest element of DIIS residual   :  0.96966518E-06.
 Convergence information after    11 iterations: 
 Largest element of residual vector :  0.50189956E-06.
 Largest element of DIIS residual   :  0.27502596E-06.
 Convergence information after    12 iterations: 
 Largest element of residual vector :  0.19702293E-06.
 Largest element of DIIS residual   :  0.12724828E-06.
 Convergence information after    13 iterations: 
 Largest element of residual vector :  0.79813802E-07.
 Largest element of DIIS residual   :  0.57563726E-07.
 Perturbed amplitude equations converged in    13 iterations.
  Dominant contributions to perturbed wavefunction:
    7    7  142   37   0.2511390194 ABAB
    7    7   37  142   0.2511390194 ABAB
    7    7  142   63   0.1981372054 ABAB
    7    7   63  142   0.1981372054 ABAB
    5    5  142   43   0.1947444149 ABAB
    5    5   43  142   0.1947444149 ABAB
    7    7  142   49   0.1946834601 ABAB
    7    7   49  142   0.1946834601 ABAB
    7    6   37   91   0.1734807345 ABAB
    6    7   91   37   0.1734807345 ABAB
    7    7  143   37   0.1609144392 ABAB
    7    7   37  143   0.1609144392 ABAB
    7    7  142   43   0.1582103361 ABAB
    7    7   43  142   0.1582103361 ABAB
    5    5  142   30  -0.1579302538 ABAB
    5    5   30  142  -0.1579302538 ABAB
    7    7  142   28   0.1568762368 ABAB
    7    7   28  142   0.1568762368 ABAB
    5    5  142   54   0.1558922884 ABAB
    5    5   54  142   0.1558922884 ABAB
  norm of converged amps    3.02254008315654     
 Starting iterative solution of the perturbed Lambda equations.
 The DIIS procedure is used to accelerate convergence.
 Convergence criterion is 10**(-7).
 Maximum number of iterations is 100.
 Convergence information after     1 iterations: 
 Largest element of residual vector : -0.58053389E-01.
 Largest element of DIIS residual   : -0.58053389E-01.
 Convergence information after     2 iterations: 
 Largest element of residual vector :  0.54742191E-02.
 Largest element of DIIS residual   :  0.65276302E-02.
 Convergence information after     3 iterations: 
 Largest element of residual vector : -0.33759814E-02.
 Largest element of DIIS residual   : -0.29953297E-02.
 Convergence information after     4 iterations: 
 Largest element of residual vector : -0.20742584E-02.
 Largest element of DIIS residual   : -0.15378698E-02.
 Convergence information after     5 iterations: 
 Largest element of residual vector : -0.10575577E-02.
 Largest element of DIIS residual   : -0.46623309E-03.
 Convergence information after     6 iterations: 
 Largest element of residual vector : -0.31993076E-03.
 Largest element of DIIS residual   : -0.79950550E-04.
 Convergence information after     7 iterations: 
 Largest element of residual vector : -0.53718369E-04.
 Largest element of DIIS residual   : -0.22498864E-04.
 Convergence information after     8 iterations: 
 Largest element of residual vector : -0.13630506E-04.
 Largest element of DIIS residual   :  0.86387724E-05.
 Convergence information after     9 iterations: 
 Largest element of residual vector :  0.45370964E-05.
 Largest element of DIIS residual   :  0.20145449E-05.
 Convergence information after    10 iterations: 
 Largest element of residual vector :  0.16088976E-05.
 Largest element of DIIS residual   :  0.88230945E-06.
 Convergence information after    11 iterations: 
 Largest element of residual vector :  0.46909197E-06.
 Largest element of DIIS residual   :  0.26506606E-06.
 Convergence information after    12 iterations: 
 Largest element of residual vector :  0.18654085E-06.
 Largest element of DIIS residual   :  0.11874000E-06.
 Convergence information after    13 iterations: 
 Largest element of residual vector :  0.75108965E-07.
 Largest element of DIIS residual   :  0.52372281E-07.
 Perturbed Lambda equations converged in    13 iterations.
  Dominant contributions to perturbed wavefunction:
    7    7  142   37   0.2421278094 ABAB
    7    7   37  142   0.2421278094 ABAB
    7    7  142   63   0.1908249822 ABAB
    7    7   63  142   0.1908249822 ABAB
    7    7  142   49   0.1877527628 ABAB
    7    7   49  142   0.1877527628 ABAB
    5    5  142   43   0.1871678979 ABAB
    5    5   43  142   0.1871678979 ABAB
    7    6   37   91   0.1656611700 ABAB
    6    7   91   37   0.1656611700 ABAB
    7    7  143   37   0.1557336122 ABAB
    7    7   37  143   0.1557336122 ABAB
    5    5  142   30  -0.1520238364 ABAB
    5    5   30  142  -0.1520238364 ABAB
    7    7  142   43   0.1514093967 ABAB
    7    7   43  142   0.1514093967 ABAB
    7    7  142   28   0.1506910202 ABAB
    7    7   28  142   0.1506910202 ABAB
    5    5  142   54   0.1498351068 ABAB
    5    5   54  142   0.1498351068 ABAB
        The DBOC first-order density matrix is being calculated 
             (Symmetry block 3, perturbation   2)
 term   10.9815141550067     
 final tnorm  0.909491065546531     
  norm contr. I: |<0|L dT/dx|0>|^2   0.000000000000000E+000
  norm contr. II: <0|[nabla(1+L)e-T][nabla e^T]|0>   10.9815141550067     
  total norm contribution   10.9815141550067     
 oo  1.352222528686471E-002
 vv  -82.5018482465753     
 vo  1.465845011586740E-002
  Correlated perturbed 1-el contribution to DBOC  -82.4736675711726       cm**-1
  SUM_I |dc_I/dx|^2 contribution to DBOC   41.3422118433064       cm**-1
 
 
  The total diagonal Born-Oppenheimer correction (DBOC) is:      0.0040347742 a.u.
  The total diagonal Born-Oppenheimer correction (DBOC) is:        885.530582 cm-1
 
 Total CC energy including DBOC  -113.145450544582     
 First-order density matrix is being calculated  (Symmetry block 3, perturbation   2)
 Calculation of the contributions of <pq||rs> to dI(i,j)/dx required   1.5 seconds.
 Calculation of the contributions of <pq||rs> to dI(a,b)/dx required  15.5 seconds.
 Calculation of the contributions of <pq||rs> to dI(i,a)/dx required   9.4 seconds.
 First-order Z-vector equations are solved for 1 perturbation.
 Convergence reached after  18 iterations.
        U*G(pq,rs) contribution is being calculated
             (Symmetry block 3, perturbation   2)

 CCSD contribution to force constants 

        0.0000000000        0.0000000000        0.0000000000
        0.0000000000        0.0000000000        0.0000000000
        0.0000000000        0.0000000000        0.0000000000
        0.0000000000        0.0000000000        0.0000000000
        0.0000000000        0.0000000000        0.0000000000
        0.0000000000        0.0000000000        0.0000000000
        0.0000000000        0.0000000000        0.0000000000
        0.0000000000        0.0000000000        0.0000000000
        0.0000000000        0.0000000000        0.0000000000
        0.0000000000        0.0000000000        0.0000000000
        0.0000000000        0.0000000000        0.0000000000
        0.0000000000      -17.0473726890       17.0473726890

 CCSD contribution to dipole derivatives 

        0.0000000000        0.0000000000        0.0000000000
        0.0000000000        0.0000000000        0.0000000000
        0.0000000000        0.0000000000        0.0000000000
        0.0000000000        0.0000000000       -0.0362494066
        0.0000000000        0.0000000000        0.0000000000
        0.0000000000        0.0000000000        0.0000000000
 @CHECKOUT-I, Total execution time (CPU/WALL):      997.38/     282.40 seconds.
--executable xsdcc finished with status     0 in      282.43 seconds (walltime).
 --invoking executable--
/nfs/workspaces/public/cfour_mpi/bin/xanti
 @GETMEM-I,  Allocated    3814 MB of main memory.
 CCSD MO derivative gammas will be sorted to Mulliken order.
 @CHECKOUT-I, Total execution time (CPU/WALL):        9.52/      20.71 seconds.
--executable xanti finished with status     0 in       20.73 seconds (walltime).
 --invoking executable--
/nfs/workspaces/public/cfour_mpi/bin/xbcktrn
 @GETMEM-I,  Allocated    3814 MB of main memory.
 CCSD MO derivative gammas will be transformed to the AO basis.
 @CHECKOUT-I, Total execution time (CPU/WALL):       20.99/       3.67 seconds.
--executable xbcktrn finished with status     0 in        3.69 seconds (walltime).
 --invoking executable--
/nfs/workspaces/public/cfour_mpi/bin/xvdint
 @GETMEM-I,  Allocated    3814 MB of main memory.
 One- and two-electron integral derivatives are calculated
 for RHF-CC/MBPT hessians and dipole derivatives.
 Spherical gaussians are used.
  magnet F F
                    8722  records have been written to the Sort file.
  Total length of Sort file :             178609116  words.
 Evaluation of 2el integral derivatives

                      Two-electron integral gradient
                      ------------------------------

                         C #1 z     0.0000000000
                         O #2 z     0.0000000000


 C #1       0.0000000000           -2.1049126270            0.0000000000
 O #2       0.0000000000            2.1049126270            0.0000000000


 Evaluation of 2e integral derivatives required  352.56 seconds.
  contribution to Hessian
        0.0000000000        0.0000000000        0.0000000000
        0.0000000000       -2.1049126270        2.1049126270
 @CHECKOUT-I, Total execution time (CPU/WALL):      352.55/      75.50 seconds.
--executable xvdint finished with status     0 in       75.52 seconds (walltime).
 --invoking executable--
/nfs/workspaces/public/cfour_mpi/bin/xanti
 @GETMEM-I,  Allocated    3814 MB of main memory.
 CCSD MO gammas will be sorted to Mulliken order.
 @CHECKOUT-I, Total execution time (CPU/WALL):       12.33/      10.98 seconds.
--executable xanti finished with status     0 in       11.00 seconds (walltime).
 --invoking executable--
/nfs/workspaces/public/cfour_mpi/bin/xbcktrn
 @GETMEM-I,  Allocated    3814 MB of main memory.
 CCSD MO gammas will be transformed to the AO basis.
 @CHECKOUT-I, Total execution time (CPU/WALL):       34.24/       5.33 seconds.
--executable xbcktrn finished with status     0 in        5.35 seconds (walltime).
 --invoking executable--
/nfs/workspaces/public/cfour_mpi/bin/xvdint
 @GETMEM-I,  Allocated    3814 MB of main memory.
 One- and two-electron integral derivatives are calculated
 for RHF-CC/MBPT hessians and dipole derivatives.
 Spherical gaussians are used.
  magnet F F

                     Kinetic energy integral gradient
                     --------------------------------

                         C #1 z    -2.0222302404
                         O #2 z     2.0222302404


 C #1       0.0000000000            0.0000000000           -2.0222302404
 O #2       0.0000000000            0.0000000000            2.0222302404



                   Nuclear attraction integral gradient
                   ------------------------------------

                         C #1 z    28.4609800113
                         O #2 z   -28.4609800113


 C #1       0.0000000000            0.0000000000           28.4609800113
 O #2       0.0000000000            0.0000000000          -28.4609800113



                      Reorthonormalization gradient
                      -----------------------------

                         C #1 z     0.0000000000
                         O #2 z     0.0000000000


 C #1       0.0000000000            0.0000000000            0.0000000000
 O #2       0.0000000000            0.0000000000            0.0000000000



                     Kinetic energy integral Hessian
                     -------------------------------


           Symmetry 1

           C #1 z      O #2 z

 C #1 z    0.232079
 O #2 z   -0.232079    0.232079


           Symmetry 2

           C #1 x      O #2 x

 C #1 x   -4.015998
 O #2 x    4.015998   -4.015998


           Symmetry 3

           C #1 y      O #2 y

 C #1 y   -4.015998
 O #2 y    4.015998   -4.015998




           C #1 x      C #1 y      C #1 z      O #2 x      O #2 y      O #2 z

 C #1 x   -4.015998
 C #1 y    0.000000   -4.015998
 C #1 z    0.000000    0.000000    0.232079

 O #2 x    4.015998    0.000000    0.000000   -4.015998
 O #2 y    0.000000    4.015998    0.000000    0.000000   -4.015998
 O #2 z    0.000000    0.000000   -0.232079    0.000000    0.000000    0.232079




                   Nuclear attraction integral Hessian
                   -----------------------------------


           Symmetry 1

           C #1 z      O #2 z

 C #1 z  -11.752460
 O #2 z   11.752460  -11.752460


           Symmetry 2

           C #1 x      O #2 x

 C #1 x   34.760756
 O #2 x  -34.760756   34.760756


           Symmetry 3

           C #1 y      O #2 y

 C #1 y   34.760756
 O #2 y  -34.760756   34.760756




           C #1 x      C #1 y      C #1 z      O #2 x      O #2 y      O #2 z

 C #1 x   34.760756
 C #1 y    0.000000   34.760756
 C #1 z    0.000000    0.000000  -11.752460

 O #2 x  -34.760756    0.000000    0.000000   34.760756
 O #2 y    0.000000  -34.760756    0.000000    0.000000   34.760756
 O #2 z    0.000000    0.000000   11.752460    0.000000    0.000000  -11.752460




                Highest order reorthonormalization Hessian
                ------------------------------------------


           Symmetry 1

           C #1 z      O #2 z

 C #1 z    0.000000
 O #2 z    0.000000    0.000000


           Symmetry 2

           C #1 x      O #2 x

 C #1 x    0.000000
 O #2 x    0.000000    0.000000


           Symmetry 3

           C #1 y      O #2 y

 C #1 y    0.000000
 O #2 y    0.000000    0.000000




           C #1 x      C #1 y      C #1 z      O #2 x      O #2 y      O #2 z




                Electronic contributions to dipole moment
                -----------------------------------------

                               au             Debye

                    z      0.19609838      0.49843246

  Conversion factor used: 1 a.u. =   2.54174691 Debye 



   Electronic contributions to static part of dipole moment derivatives
   --------------------------------------------------------------------


                     Total dipole moment derivatives
                     -------------------------------


           Symmetry 1
                              Ez

               C #1 z    -5.86661244
               O #2 z    -8.13338756

           Symmetry 2
                              Ex

               C #1 x    -5.91024184
               O #2 x    -8.08975816

           Symmetry 3
                              Ey

               C #1 y    -5.91024184
               O #2 y    -8.08975816



                       Ex          Ey          Ez

      C #1    x   -5.910242    0.000000    0.000000
      C #1    y    0.000000   -5.910242    0.000000
      C #1    z    0.000000    0.000000   -5.866612

      O #2    x   -8.089758    0.000000    0.000000
      O #2    y    0.000000   -8.089758    0.000000
      O #2    z    0.000000    0.000000   -8.133388

 Evaluation of 1e integral derivatives required    1.79 seconds.
                    8815  records have been written to the Sort file.
  Total length of Sort file :             180513570  words.
 Evaluation of 2el integral derivatives

                      Two-electron integral gradient
                      ------------------------------

                         C #1 z   -11.7115441428
                         O #2 z    11.7115441428


 C #1       0.0000000000            0.0000000000          -11.7115441428
 O #2       0.0000000000            0.0000000000           11.7115441428


 Evaluation of 2e integral derivatives required  660.32 seconds.

                            Molecular gradient
                            ------------------

                         C #1 z    -0.7792231497
                         O #2 z     0.7792231497


 C #1       0.0000000000            0.0000000000           -0.7792231497
 O #2       0.0000000000            0.0000000000            0.7792231497


  Molecular gradient norm 0.110E+01

                            Molecular hessian
                            -----------------


           Symmetry 1

           C #1 z      O #2 z

 C #1 z  111.475215
 O #2 z -111.475215  111.475215


           Symmetry 2

           C #1 x      O #2 x

 C #1 x   17.785049
 O #2 x  -17.785049   17.785049


           Symmetry 3

           C #1 y      O #2 y

 C #1 y   17.785049
 O #2 y  -17.785049   17.785049




           C #1 x      C #1 y      C #1 z      O #2 x      O #2 y      O #2 z

 C #1 x   17.785049
 C #1 y    0.000000   17.785049
 C #1 z    0.000000    0.000000  111.475215

 O #2 x  -17.785049    0.000000    0.000000   17.785049
 O #2 y    0.000000  -17.785049    0.000000    0.000000   17.785049
 O #2 z    0.000000    0.000000 -111.475215    0.000000    0.000000  111.475215




                           Total dipole moment
                           -------------------

                               au             Debye

                    z     -0.29276208     -0.74412712

  Conversion factor used: 1 a.u. =   2.54174691 Debye 



                     Total dipole moment derivatives
                     -------------------------------


           Symmetry 1
                              Ez

               C #1 z     0.63379372
               O #2 z    -0.63379372

           Symmetry 2
                              Ex

               C #1 x    -0.16976340
               O #2 x     0.16976340

           Symmetry 3
                              Ey

               C #1 y    -0.16976340
               O #2 y     0.16976340



                       Ex          Ey          Ez

      C #1    x   -0.169763    0.000000    0.000000
      C #1    y    0.000000   -0.169763    0.000000
      C #1    z    0.000000    0.000000    0.633794

      O #2    x    0.169763    0.000000    0.000000
      O #2    y    0.000000    0.169763    0.000000
      O #2    z    0.000000    0.000000   -0.633794

 @CHECKOUT-I, Total execution time (CPU/WALL):      662.10/     111.30 seconds.
--executable xvdint finished with status     0 in      111.32 seconds (walltime).
 --invoking executable--
/nfs/workspaces/public/cfour_mpi/bin/xjoda
  @GTFLGS-I, Hessian will be transformed to curvilinear coordinates.
  @GTFLGS-I, Hessian will be transformed to curvilinear coordinates.
  igrd and ihes are                      0                     1
  gradient from JOBARC 
   0.000000000000000   0.000000000000000  -0.779223149659005
   0.000000000000000   0.000000000000000   0.779223149659005
 
  @PROJFCM-I, Projecting force constant matrix onto totally symmetric subspace.
  Largest difference between matrix elements of symmetrized
  and unsymmetrized FCM :     0.1029007990E-08.
  read isotopes from ZMAT file 
 
  Summary of diagonal Born-Oppenheimer correction at the correlated level
  The total diagonal Born-Oppenheimer correction (DBOC) is:      0.0040347742 a.u.
  The total diagonal Born-Oppenheimer correction (DBOC) is:        885.530582 cm-1
  The total diagonal Born-Oppenheimer correction (DBOC) is:            10.593 kJ/mole
  hellooooooo 
  readis is  F
 
 @CHECKOUT-I, Total execution time (CPU/WALL):        0.01/       0.05 seconds.
--executable xjoda finished with status     0 in        0.06 seconds (walltime).
  The final electronic energy is      -113.145450544582175 a.u. 
  This computation required                         2757.39 seconds (walltime).
