 --invoking executable--
/nfs/workspaces/public/cfour_mpi/bin/xjoda


   *************************************************************************
         <<<     CCCCCC     CCCCCC   |||     CCCCCC     CCCCCC   >>>
       <<<      CCC        CCC       |||    CCC        CCC         >>>
      <<<      CCC        CCC        |||   CCC        CCC            >>>
    <<<        CCC        CCC        |||   CCC        CCC              >>>
      <<<      CCC        CCC        |||   CCC        CCC            >>>
       <<<      CCC        CCC       |||    CCC        CCC         >>>
         <<<     CCCCCC     CCCCCC   |||     CCCCCC     CCCCCC   >>>
   *************************************************************************

     ****************************************************************
     * CFOUR Coupled-Cluster techniques for Computational Chemistry *
     ****************************************************************
 

   Department of Chemistry                Institut fuer Physikalische Chemie
   University of Florida                  Universitaet Mainz
   Gainesville, FL 32611, USA             D-55099 Mainz, Germany

   Department of Chemistry                Fakultaet fuer Chemie und Biowiss.
   Johns Hopkins University               Karlsruher Institut fuer Technologie
   Baltimore, MD 21218, USA               D-76131 Karlsruhe, Germany

   Department of Chemistry                Department of Physical Chemistry
   Southern Methodist University          Eotvos Lorand University
   Dallas, TX 75275, USA                  H-1053 Budapest, Hungary

 
                       Version 2.1
 
                     vincent.theory.phys.ucl.ac.uk                     
                     Thu 27 Feb 03:47:47 GMT 2025                      
                     integer*8 version is running
 
********************************************************************************
*                          Input from ZMAT file                                *
********************************************************************************
Carbon Monoxide DBOC calculation                                                
C                                                                               
O 1 r                                                                           
                                                                                
r=1.1482758620689655                                                            
                                                                                
                                                                                
*CFOUR(CALC=CCSD,BASIS=AUG-PCVQZ,SCF_CONV=10                                    
CC_CONV=14,DBOC=ON,MEMORY=500000000                                             
ZFIELD=-200)                                                                    
                                                                                
%isotopes                                                                       
13                                                                              
16                                                                              
********************************************************************************
  @GTFLGS-I, Hessian will be transformed to curvilinear coordinates.
    -------------------------------------------------------------------
                    CFOUR Control Parameters 
    -------------------------------------------------------------------
        External           Internal           Value            Units
          Name               Name
    -------------------------------------------------------------------
       ABCDTYPE             IABCDT         STANDARD    [  0]    ***   
       ANHARMONIC           IANHAR         OFF         [  0]    ***   
       ANH_ALGORIT          IANALG         STANDARD    [  0]    ***   
       ANH_DERIVAT          IANDER         SECOND      [  1]    ***   
       ANH_MODE             ANHMOD         VIBRATION   [  0]    ***   
       ANH_STEPSIZ          ICUBST             50000          x 10-6  
       ANH_SYMMETR          IANHSM         ABELIAN     [  0]    ***   
       AO_LADDERS           IAOLAD         SINGLEPASS  [  1]    ***   
       AV_SCF               IAVSCF         OFF         [  0]    ***   
       BASIS                IBASIS         AUG-PCVQZ   [ 52]    ***   
       BOTHVECTORS          BOTHVC         OFF         [  0]    ***   
       BOX_POTENT           IPIAB          OFF         [  0]    ***   
       BREIT                IBREIT         OFF         [  0]    ***   
       BRUCK_CONV           IBRTOL          10D-  4             ***   
       BRUECKNER            IBRKNR         OFF         [  0]    ***   
       BUFFERSIZE           IBUFFS              4096            ***   
       CACHE_RECS           ICHREC             10               ***   
       CALCLEVEL            ICLLVL         CCSD        [ 10]    ***   
       CCORBOPT             ICCORB         OFF         [  0]  x 0.01  
       CC_CONV              ICCCNV          10D- 14             ***   
       CC_EXPORDER          ICCEOR              5               ***   
       CC_EXTRAPOL          ICCEXT         DIIS        [  1]    ***   
       CC_GUESS             ICCGES         MP2         [  0]    ***   
       CC_MAXCYC            ICCCYC            100              cycles 
       CC_PROGRAM           ICCPRO         VCC         [  0]    ***   
       CHARGE               ICHRGE              0               ***   
       CHOLESKY             ICHOLE         OFF         [  0]    ***   
       CIS_CONV             ICISTL              5               ***   
       COMM_SIZE            IPSIZE            ***               ***   
       CONSTANT             ICONST         OLD         [  1]    ***   
       CONTINUUM            ICONTU         NONE        [  0]    ***   
       CONTRACTION          ICNTYP         GENERAL     [  1]    ***   
       COORDINATES          ICOORD         INTERNAL    [  0]    ***   
       CPHF_CONVER          ICPHFT          10D- 16             ***   
       CPHF_MAXCYC          ICPHFC             64              cycles 
       CUBIC                ICUBIC         OFF         [  0]    ***   
       CURVILINEAR          ICURVY         ON          [  1]    ***   
       DBOC                 IDBOC          ON          [  1]    ***   
       DCT                  IDCT           OFF         [  0]    ***   
       DERIV_LEV            IDRLVL         SECOND      [  2]    ***   
       DEVMEM_SIZE          IDVMEM          50000000           MByte  
       DIAG_MRCC            IEOMST          10D-  0             ***   
       DIFF_TYPE            IDIFTY         RELAXED     [  0]    ***   
       DIRECT               IDIRCT         OFF         [  0]    ***   
       DROPMO               IDRPMO      NONE         
       ECP                  IECP           OFF         [  0]    ***   
       EIGENVECTOR          IVEC                1               ***   
       EL_ANHARM            IELANH         OFF         [  0]    ***   
       EOMFOLLOW            IEOMSR         ENERGY      [  0]    ***   
       EOMIP                IEOMIP         OFF         [  0]    ***   
       EOMLEVEL             HBARFM         SAME        [  0]    ***   
       EOM_MRCC             IMRCCE         NEW         [  1]    ***   
       EOM_NONIT            EOMNON         OFF         [  0]    ***   
       EOM_NSING            IEOMSI          10D-  0             ***   
       EOM_NSTATES          IMRCCD         DAVIDSON    [  0]    ***   
       EOM_NTRIP            IEOMTR          10D-  0             ***   
       EOM_ORDER            IEXORD         ENERGY      [  0]    ***   
       EOM_PROPSTA          IEOMST              0               ***   
       ESTATE_CONV          IEXTOL          10D-  5             ***   
       ESTATE_DIAG          IEXDIG         ITERATIVE   [  0]    ***   
       ESTATE_LOCK          IESLOC         ON          [  1]    ***   
       ESTATE_MAXC          IEXMXC             40               ***   
       ESTATE_PROP          IEXPRP         OFF         [  0]    ***   
       EVAL_HESS            IRECAL              0            # of cyc.
       EXCITATION           IEXCIT              0               ***   
       EXCITE               IEXCIT         NONE        [  0]    ***   
       EXTERN_POT           IEXPOT         OFF         [  0]    ***   
       FCGRADNEW            IFCGNW         OFF         [  0]    ***   
       FC_FIELD             IFINFC              0             x 10-6  
       FD_CALTYPE           IFDCAL         GRADONLY    [  0]    ***   
       FD_PROJECT           IFDPRJ         OFF         [  1]    ***   
       FD_STEPSIZE          IDISFD              0            10-4 bohr
       FD_USEGROUP          IFDGRP         FULL        [  0]    ***   
       FILE_RECSIZ          IFLREC              4096           words  
       FINITE_PERT          IFIPER              0             x 10-6  
       FIXGEOM              IFIXGM         OFF         [  0]    ***   
       FOCK                 IFOCK          AO          [  1]    ***   
       FREQ_ALGORI          IVIALG         STANDARD    [  0]    ***   
       FROZEN_CORE          IFROCO         OFF         [  0]    ***   
       GAMMA_ABCD           IGABCD         STORE       [  0]    ***   
       GAMMA_ABCI           IGABCI         STORE       [  0]    ***   
       GENBAS_1             IGNBS1              0               ***   
       GENBAS_2             IGNBS2              0               ***   
       GENBAS_3             IGNBS3              0               ***   
       GENBAS_4             IGNBS4              0               ***   
       GEO_CONV             ICONTL              5              H/bohr 
       GEO_MAXCYC           IOPTCY             50               ***   
       GEO_MAXSTEP          IMXSTP            300            millibohr
       GEO_METHOD           INR            SINGLE_POINT[  5]    ***   
       GIAO                 IGIAO          OFF         [  1]    ***   
       GIMIC                IGIMIC         OFF         [  0]    ***   
       GRID                 IGRID          OFF         [  0]    ***   
       GRID_ALGO            IGALGO         SERIAL      [  0]    ***   
       GUESS                IGUESS         MOREAD      [  0]    ***   
       HBAR                 IHBAR          OFF         [  0]    ***   
       HESS_TYPE            IHESTP         SCF         [  0]    ***   
       HF2_FILE             IHF2Fl         USE         [  1]    ***   
       HFSTABILITY          ISTABL         OFF         [  0]    ***   
       INCORE               INCORE         OFF         [  0]    ***   
       INPUT_MRCC           IMRCC          ON          [  1]    ***   
       INTEGRALS            INTTYP         VMOL        [  1]    ***   
       JODA_PRINT           IJPRNT              0               ***   
       KEYWORD_OUT          IDMPKW         NO          [  0]    ***   
       LINDEP_TOL           ILINDP              8               ***   
       LINEQ_CONV           IZTACN          10D-  7           cycles  
       LINEQ_EXPOR          ILMAXD              5               ***   
       LINEQ_MAXCY          ILMAXC            100               ***   
       LINEQ_TYPE           ILTYPE         DIIS        [  1]    ***   
       LOCK_ORBOCC          ILOCOC         OFF         [  0]    ***   
       MEMORY_SIZE          IMEMSZ         500000000           words  
       MEM_UNIT             IMEMU          INTEGERWORDS[  0]    ***   
       MRCC                 IMRCCC         OFF         [  0]    ***   
       MULTIPLICTY          IMULTP              1               ***   
       NACOUPLING           IVCOUP         OFF         [  0]    ***   
       NEGEVAL              IDIE           ABORT       [  0]    ***   
       NEWNORM              INEWNO         OFF         [  0]    ***   
       NON-HF               INONHF         OFF         [  0]    ***   
       NTOP_TAMP            ITOPT2             15               ***   
       NUC_MODEL            INUCMO         POINT       [  0]    ***   
       OCCUPATION           IOCCU   ESTIMATED BY SCF 
       OPEN-SHELL           IOPEN          SPIN-ORBITAL[  0]    ***   
       OPTVIB               IOPTVB         OFF         [  0]    ***   
       ORBITALS             IORBTP         STANDARD    [  0]    ***   
       PARALLEL             IPARAL         ON          [  1]    ***   
       PARA_INT             IPINTS         ON          [  1]    ***   
       PARA_PRINT           IPPRIN              0               ***   
       PERT_ORB             IPTORB         STANDARD    [  0]    ***   
       POINTS               IGRDFD              0               ***   
       PRINT                IPRNT               0               ***   
       PROPS                IPROPS         OFF         [  0]    ***   
       PROP_INTEGR          IINTYP         INTERNAL    [  0]    ***   
       PSI                  IPSI           OFF         [  0]    ***   
       QC_ALG               IQCALG         FLM         [  0]    ***   
       QC_LINALG            IQCLIN         TRIDIAG     [  2]    ***   
       QC_MAXCYC            IQCMAX          10D-100           cycles  
       QC_MAXSCFCY          IQCMSC          10D- 15           cycles  
       QC_RTRUST            IQCRTR          10D-  0           x 10-3  
       QC_SKIPSCF           IQCSKI         OFF         [  0]    ***   
       QC_START             IQCSTA          10D-  1             ***   
       QRHFGUESS            IQGUES         OFF         [  0]    ***   
       QUARTIC              IQUART         OFF         [  0]    ***   
       RAMAN_INT            IRAMIN         OFF         [  0]    ***   
       RAMAN_ORB            IRAMRE         UNRELAXED   [  0]    ***   
       RDO                  IRDOFM         ON          [  1]    ***   
       REDUCE_REPR          REDREP         Ir          [  0]    ***   
       REFERENCE            IREFNC         RHF         [  0]    ***   
       RELATIVIST           IRELAT         OFF         [  0]    ***   
       RELAX_DENS           IRDENS         ON          [  1]    ***   
       RESET_FLAGS          IRESET         OFF         [  0]    ***   
       RESTART_CC           ICCRES         OFF         [  0]    ***   
       ROT_EVEC             ROTVEC              0               ***   
       SAVE_INTS            ISVINT         OFF         [  0]    ***   
       SCALE_ON             ISTCRT              0               ***   
       SCF_CONV             ISCFCV          10D- 10             ***   
       SCF_DAMPING          IDAMP               0             x 10-3  
       SCF_EXPORDE          IRPPOR              6               ***   
       SCF_EXPSTAR          IRPPLS              8               ***   
       SCF_EXTRAPO          IRPP           ON          [  1]    ***   
       SCF_MAXCYC           ISCFCY            150              cycles 
       SCF_NOSTOP           ISCFST         OFF         [  0]    ***   
       SCF_PRINT            ISCFPR              0               ***   
       SCF_PROG             ISCFPR         SCF         [  0]    ***   
       SD_FIELD             IFINSD              0             x 10-6  
       SOPERT               IPERSO         OFF         [  0]    ***   
       SPHERICAL            IDFGHI         ON          [  1]    ***   
       SPINORBIT            ISOCAL         OFF         [  0]    ***   
       SPINROTATIO          ISRCON         OFF         [  0]    ***   
       SPIN_FLIP            ISPFLP         OFF         [  0]    ***   
       SPIN_ORBIT           ISPORB         OFF         [  0]    ***   
       SPIN_SCAL            ISCSMP         OFF         [  0]    ***   
       STEEPSCALE           ISTPSC              1000          x 10-3  
       SUBGROUP             ISUBGP         DEFAULT     [  0]    ***   
       SUBGRPAXIS           ISBXYZ         X           [  0]    ***   
       SYMMETRY             ISYM           ON          [  0]    ***   
       SYM_CHECK            ISYMCK         OVERRIDE    [  1]    ***   
       T3_EXTRAPOL          IT3EXT         OFF         [  0]    ***   
       T4_EXTRAPOL          IT4EXP         OFF         [  0]    ***   
       TAMP_SUM             IEVERY              5               ***   
       TESTSUITE            ITESTS         OFF         [  0]    ***   
       THERMOCH             ITHERM         OFF         [  0]    ***   
       TOL_CHOLESK          ITOLCH          10D-  4             ***   
       TRANGRAD             IRESRM         OFF         [  0]    ***   
       TRANS_INV            ITRAIN         IGNORE      [  1]    ***   
       TREAT_PERT           ITREAT         SIMULTANEOUS[  0]    ***   
       TRIP_ALGORI          ITRALG         NORMAL      [  0]    ***   
       UIJ_THRESHO          IUIJTH              1               ***   
       UNITS                IUNITS         ANGSTROM    [  0]    ***   
       UNOS                 IUNOS          OFF         [  0]    ***   
       UPDATE_HESS          IHUPDT         ON          [  1]    ***   
       VIBPHASE             ISETPH         STANDARD    [  0]    ***   
       VIBRATION            IVIB           ANALYTIC    [  1]    ***   
       VIB_ALGORIT          IGEALG         STANDARD    [  0]    ***   
       VNATORB              IVNORB         OFF         [  0]    ***   
       VTRAN                IVTRAN         FULL/PARTIAL[  0]    ***   
       XFIELD               IXEFLD              0             x 10-6  
       XFORM_TOL            IXFTOL          10D- 11             ***   
       YFIELD               IYEFLD              0             x 10-6  
       ZFIELD               IZEFLD            ***             x 10-6  
       ZSCALE_EXP           IZEXPS         OFF         [  0]    ***   
    -------------------------------------------------------------------
   2 entries found in Z-matrix 
   Job Title : Carbon Monoxide DBOC calculation                                                
   There are  1 unique internal coordinates.
   Of these,  0 will be optimized.
   User supplied Z-matrix: 
--------------------------------------------------------------------------------
       SYMBOL    BOND      LENGTH    ANGLE     ANGLE     DIHED     ANGLE
                  TO      (ANGST)    WRT      (DEG)      WRT      (DEG)
--------------------------------------------------------------------------------
        C    
        O          1         r    
                  *Initial values for internal coordinates* 
                      Name             Value
                        r               1.1482758621
--------------------------------------------------------------------------------
  read isotopes from ZMAT file 
   Rotational constants (in cm-1): 
          1.7825381160             1.7825381160
   Rotational constants (in MHz): 
      53439.1558141979         53439.1558141979
********************************************************************************
   The full molecular point group is CXv .
   The largest Abelian subgroup of the full molecular point group is C2v .
   The computational point group is C2v .
********************************************************************************
--------------------------------------------------------------------------------
   Analysis of internal coordinates specified by Z-matrix 
--------------------------------------------------------------------------------
   *The nuclear repulsion energy is   22.120556252252253 a.u.
   *There is   1 degree of freedom within the tot. symm. molecular subspace.
   *Z-matrix requests optimization of   0 coordinates.
   *The optimization is constrained.
   *The following   1 parameters can have non-zero 
    derivatives within the totally symmetric subspace:
             r    [ 1]
   *The following   0 parameters are to be optimized:

   *The following coordinates must be varied in an  unconstrained optimization.
             r    [ 1]
--------------------------------------------------------------------------------


 ----------------------------------------------------------------
         Coordinates used in calculation (QCOMP) 
 ----------------------------------------------------------------
 Z-matrix   Atomic            Coordinates (in bohr)
  Symbol    Number           X              Y              Z
 ----------------------------------------------------------------
     C         6        -0.00000000     0.00000000     1.19689221
     O         8         0.00000000     0.00000000    -0.97303514
 ----------------------------------------------------------------
 
   Interatomic distance matrix (Angstroms) 
 
                 C             O    
                [ 1]        [ 2]
  C    [ 1]     0.00000
  O    [ 2]     1.14828     0.00000
 rotcon2
   Rotational constants (in cm-1): 
          1.7825381160             0.0000000000
   Rotational constants (in MHz): 
      53439.1558141979             0.0000000000
  ECPDATA file not present.   Using default ECPDATA. 
  @GTFLGS-I, Hessian will be transformed to curvilinear coordinates.
  There are  218 basis functions.
 @CHECKOUT-I, Total execution time (CPU/WALL):        0.09/       0.13 seconds.
--executable xjoda finished with status     0 in        0.14 seconds (walltime).
 --invoking executable--
/nfs/workspaces/public/cfour_mpi/bin/xvmol
 SERIAL VERSION OF MOLECULE STARTED
********************************************************************************
                    INPUT FROM MOL FILE
********************************************************************************
INTGRL        1    0    1    0    0    0    0    0    0                         
         *** CFOUR Program System (Release V0.1) ***                            
Carbon Monoxide DBOC calculation                                                
    2    2 X  Y       0.10E-08              0    0                              
   9999.00      3.00                                                            
          6.00000000    1    5    1    1    1    1    1                         
C #1  -0.000000000000000   0.000000000000000   1.196892206368565                
   16    9                                                                      
   33980.0000000000       9.100000000000000E-005 -1.900000000000000E-005        
  0.000000000000000E+000  0.000000000000000E+000  0.000000000000000E+000        
  0.000000000000000E+000  0.000000000000000E+000  0.000000000000000E+000        
  0.000000000000000E+000                                                        
   5089.00000000000       7.040000000000000E-004 -1.510000000000000E-004        
  0.000000000000000E+000  0.000000000000000E+000  0.000000000000000E+000        
  0.000000000000000E+000  0.000000000000000E+000  0.000000000000000E+000        
  0.000000000000000E+000                                                        
   1157.00000000000       3.693000000000000E-003 -7.850000000000000E-004        
  0.000000000000000E+000  0.000000000000000E+000  0.000000000000000E+000        
  0.000000000000000E+000  0.000000000000000E+000  0.000000000000000E+000        
  0.000000000000000E+000                                                        
   326.600000000000       1.536000000000000E-002 -3.324000000000000E-003        
  0.000000000000000E+000  0.000000000000000E+000  0.000000000000000E+000        
  0.000000000000000E+000  0.000000000000000E+000  0.000000000000000E+000        
  0.000000000000000E+000                                                        
   106.100000000000       5.292900000000000E-002 -1.151200000000000E-002        
  0.000000000000000E+000  0.000000000000000E+000  0.000000000000000E+000        
  0.000000000000000E+000  0.000000000000000E+000  0.000000000000000E+000        
  0.000000000000000E+000                                                        
   38.1100000000000       0.147043000000000      -3.416000000000000E-002        
  0.000000000000000E+000  0.000000000000000E+000  0.000000000000000E+000        
  0.000000000000000E+000  0.000000000000000E+000  0.000000000000000E+000        
  0.000000000000000E+000                                                        
   14.7500000000000       0.305631000000000      -7.717300000000001E-002        
  0.000000000000000E+000  0.000000000000000E+000  0.000000000000000E+000        
  0.000000000000000E+000  0.000000000000000E+000  0.000000000000000E+000        
  0.000000000000000E+000                                                        
   6.03500000000000       0.399345000000000      -0.141493000000000             
  0.000000000000000E+000  0.000000000000000E+000  0.000000000000000E+000        
  0.000000000000000E+000  0.000000000000000E+000  0.000000000000000E+000        
  0.000000000000000E+000                                                        
   2.53000000000000       0.217051000000000      -0.118019000000000             
  0.000000000000000E+000  0.000000000000000E+000  0.000000000000000E+000        
  0.000000000000000E+000  0.000000000000000E+000  0.000000000000000E+000        
  0.000000000000000E+000                                                        
  0.735500000000000       1.589400000000000E-002  0.273806000000000             
   1.00000000000000       0.000000000000000E+000  0.000000000000000E+000        
  0.000000000000000E+000  0.000000000000000E+000  0.000000000000000E+000        
  0.000000000000000E+000                                                        
  0.290500000000000      -3.084000000000000E-003  0.586510000000000             
  0.000000000000000E+000   1.00000000000000       0.000000000000000E+000        
  0.000000000000000E+000  0.000000000000000E+000  0.000000000000000E+000        
  0.000000000000000E+000                                                        
  0.111100000000000       9.779999999999999E-004  0.285430000000000             
  0.000000000000000E+000  0.000000000000000E+000   1.00000000000000             
  0.000000000000000E+000  0.000000000000000E+000  0.000000000000000E+000        
  0.000000000000000E+000                                                        
   7.21600000000000       0.000000000000000E+000  0.000000000000000E+000        
  0.000000000000000E+000  0.000000000000000E+000  0.000000000000000E+000        
   1.00000000000000       0.000000000000000E+000  0.000000000000000E+000        
  0.000000000000000E+000                                                        
   19.5700000000000       0.000000000000000E+000  0.000000000000000E+000        
  0.000000000000000E+000  0.000000000000000E+000  0.000000000000000E+000        
  0.000000000000000E+000   1.00000000000000       0.000000000000000E+000        
  0.000000000000000E+000                                                        
   53.0730000000000       0.000000000000000E+000  0.000000000000000E+000        
  0.000000000000000E+000  0.000000000000000E+000  0.000000000000000E+000        
  0.000000000000000E+000  0.000000000000000E+000   1.00000000000000             
  0.000000000000000E+000                                                        
  4.145000000000000E-002  0.000000000000000E+000  0.000000000000000E+000        
  0.000000000000000E+000  0.000000000000000E+000  0.000000000000000E+000        
  0.000000000000000E+000  0.000000000000000E+000  0.000000000000000E+000        
   1.00000000000000                                                             
   10    8                                                                      
   34.5100000000000       5.378000000000000E-003  0.000000000000000E+000        
  0.000000000000000E+000  0.000000000000000E+000  0.000000000000000E+000        
  0.000000000000000E+000  0.000000000000000E+000  0.000000000000000E+000        
   7.91500000000000       3.613200000000000E-002  0.000000000000000E+000        
  0.000000000000000E+000  0.000000000000000E+000  0.000000000000000E+000        
  0.000000000000000E+000  0.000000000000000E+000  0.000000000000000E+000        
   2.36800000000000       0.142493000000000       0.000000000000000E+000        
  0.000000000000000E+000  0.000000000000000E+000  0.000000000000000E+000        
  0.000000000000000E+000  0.000000000000000E+000  0.000000000000000E+000        
  0.813200000000000       0.342150000000000        1.00000000000000             
  0.000000000000000E+000  0.000000000000000E+000  0.000000000000000E+000        
  0.000000000000000E+000  0.000000000000000E+000  0.000000000000000E+000        
  0.289000000000000       0.463864000000000       0.000000000000000E+000        
   1.00000000000000       0.000000000000000E+000  0.000000000000000E+000        
  0.000000000000000E+000  0.000000000000000E+000  0.000000000000000E+000        
  0.100700000000000       0.250028000000000       0.000000000000000E+000        
  0.000000000000000E+000   1.00000000000000       0.000000000000000E+000        
  0.000000000000000E+000  0.000000000000000E+000  0.000000000000000E+000        
   8.18200000000000       0.000000000000000E+000  0.000000000000000E+000        
  0.000000000000000E+000  0.000000000000000E+000   1.00000000000000             
  0.000000000000000E+000  0.000000000000000E+000  0.000000000000000E+000        
   24.1860000000000       0.000000000000000E+000  0.000000000000000E+000        
  0.000000000000000E+000  0.000000000000000E+000  0.000000000000000E+000        
   1.00000000000000       0.000000000000000E+000  0.000000000000000E+000        
   71.4940000000000       0.000000000000000E+000  0.000000000000000E+000        
  0.000000000000000E+000  0.000000000000000E+000  0.000000000000000E+000        
  0.000000000000000E+000   1.00000000000000       0.000000000000000E+000        
  3.218000000000000E-002  0.000000000000000E+000  0.000000000000000E+000        
  0.000000000000000E+000  0.000000000000000E+000  0.000000000000000E+000        
  0.000000000000000E+000  0.000000000000000E+000   1.00000000000000             
    6    6                                                                      
   1.84800000000000        1.00000000000000       0.000000000000000E+000        
  0.000000000000000E+000  0.000000000000000E+000  0.000000000000000E+000        
  0.000000000000000E+000                                                        
  0.649000000000000       0.000000000000000E+000   1.00000000000000             
  0.000000000000000E+000  0.000000000000000E+000  0.000000000000000E+000        
  0.000000000000000E+000                                                        
  0.228000000000000       0.000000000000000E+000  0.000000000000000E+000        
   1.00000000000000       0.000000000000000E+000  0.000000000000000E+000        
  0.000000000000000E+000                                                        
   8.65600000000000       0.000000000000000E+000  0.000000000000000E+000        
  0.000000000000000E+000   1.00000000000000       0.000000000000000E+000        
  0.000000000000000E+000                                                        
   33.2130000000000       0.000000000000000E+000  0.000000000000000E+000        
  0.000000000000000E+000  0.000000000000000E+000   1.00000000000000             
  0.000000000000000E+000                                                        
  7.660000000000000E-002  0.000000000000000E+000  0.000000000000000E+000        
  0.000000000000000E+000  0.000000000000000E+000  0.000000000000000E+000        
   1.00000000000000                                                             
    4    4                                                                      
   1.41900000000000        1.00000000000000       0.000000000000000E+000        
  0.000000000000000E+000  0.000000000000000E+000                                
  0.485000000000000       0.000000000000000E+000   1.00000000000000             
  0.000000000000000E+000  0.000000000000000E+000                                
   24.6940000000000       0.000000000000000E+000  0.000000000000000E+000        
   1.00000000000000       0.000000000000000E+000                                
  0.187000000000000       0.000000000000000E+000  0.000000000000000E+000        
  0.000000000000000E+000   1.00000000000000                                     
    2    2                                                                      
   1.01100000000000        1.00000000000000       0.000000000000000E+000        
  0.424000000000000       0.000000000000000E+000   1.00000000000000             
          8.00000000    1    5    1    1    1    1    1                         
O #2   0.000000000000000   0.000000000000000  -0.973035143225674                
   16    9                                                                      
   61420.0000000000       9.000000000000001E-005 -2.000000000000000E-005        
  0.000000000000000E+000  0.000000000000000E+000  0.000000000000000E+000        
  0.000000000000000E+000  0.000000000000000E+000  0.000000000000000E+000        
  0.000000000000000E+000                                                        
   9199.00000000000       6.980000000000001E-004 -1.590000000000000E-004        
  0.000000000000000E+000  0.000000000000000E+000  0.000000000000000E+000        
  0.000000000000000E+000  0.000000000000000E+000  0.000000000000000E+000        
  0.000000000000000E+000                                                        
   2091.00000000000       3.664000000000000E-003 -8.290000000000000E-004        
  0.000000000000000E+000  0.000000000000000E+000  0.000000000000000E+000        
  0.000000000000000E+000  0.000000000000000E+000  0.000000000000000E+000        
  0.000000000000000E+000                                                        
   590.900000000000       1.521800000000000E-002 -3.508000000000000E-003        
  0.000000000000000E+000  0.000000000000000E+000  0.000000000000000E+000        
  0.000000000000000E+000  0.000000000000000E+000  0.000000000000000E+000        
  0.000000000000000E+000                                                        
   192.300000000000       5.242300000000000E-002 -1.215600000000000E-002        
  0.000000000000000E+000  0.000000000000000E+000  0.000000000000000E+000        
  0.000000000000000E+000  0.000000000000000E+000  0.000000000000000E+000        
  0.000000000000000E+000                                                        
   69.3200000000000       0.145921000000000      -3.626100000000000E-002        
  0.000000000000000E+000  0.000000000000000E+000  0.000000000000000E+000        
  0.000000000000000E+000  0.000000000000000E+000  0.000000000000000E+000        
  0.000000000000000E+000                                                        
   26.9700000000000       0.305258000000000      -8.299200000000000E-002        
  0.000000000000000E+000  0.000000000000000E+000  0.000000000000000E+000        
  0.000000000000000E+000  0.000000000000000E+000  0.000000000000000E+000        
  0.000000000000000E+000                                                        
   11.1000000000000       0.398508000000000      -0.152090000000000             
  0.000000000000000E+000  0.000000000000000E+000  0.000000000000000E+000        
  0.000000000000000E+000  0.000000000000000E+000  0.000000000000000E+000        
  0.000000000000000E+000                                                        
   4.68200000000000       0.216980000000000      -0.115331000000000             
  0.000000000000000E+000  0.000000000000000E+000  0.000000000000000E+000        
  0.000000000000000E+000  0.000000000000000E+000  0.000000000000000E+000        
  0.000000000000000E+000                                                        
   1.42800000000000       1.759400000000000E-002  0.288979000000000             
   1.00000000000000       0.000000000000000E+000  0.000000000000000E+000        
  0.000000000000000E+000  0.000000000000000E+000  0.000000000000000E+000        
  0.000000000000000E+000                                                        
  0.554700000000000      -2.502000000000000E-003  0.586128000000000             
  0.000000000000000E+000   1.00000000000000       0.000000000000000E+000        
  0.000000000000000E+000  0.000000000000000E+000  0.000000000000000E+000        
  0.000000000000000E+000                                                        
  0.206700000000000       9.540000000000000E-004  0.277624000000000             
  0.000000000000000E+000  0.000000000000000E+000   1.00000000000000             
  0.000000000000000E+000  0.000000000000000E+000  0.000000000000000E+000        
  0.000000000000000E+000                                                        
   12.9740000000000       0.000000000000000E+000  0.000000000000000E+000        
  0.000000000000000E+000  0.000000000000000E+000  0.000000000000000E+000        
   1.00000000000000       0.000000000000000E+000  0.000000000000000E+000        
  0.000000000000000E+000                                                        
   34.9000000000000       0.000000000000000E+000  0.000000000000000E+000        
  0.000000000000000E+000  0.000000000000000E+000  0.000000000000000E+000        
  0.000000000000000E+000   1.00000000000000       0.000000000000000E+000        
  0.000000000000000E+000                                                        
   93.8810000000000       0.000000000000000E+000  0.000000000000000E+000        
  0.000000000000000E+000  0.000000000000000E+000  0.000000000000000E+000        
  0.000000000000000E+000  0.000000000000000E+000   1.00000000000000             
  0.000000000000000E+000                                                        
  6.959000000000000E-002  0.000000000000000E+000  0.000000000000000E+000        
  0.000000000000000E+000  0.000000000000000E+000  0.000000000000000E+000        
  0.000000000000000E+000  0.000000000000000E+000  0.000000000000000E+000        
   1.00000000000000                                                             
   10    8                                                                      
   63.4200000000000       6.044000000000000E-003  0.000000000000000E+000        
  0.000000000000000E+000  0.000000000000000E+000  0.000000000000000E+000        
  0.000000000000000E+000  0.000000000000000E+000  0.000000000000000E+000        
   14.6600000000000       4.179900000000000E-002  0.000000000000000E+000        
  0.000000000000000E+000  0.000000000000000E+000  0.000000000000000E+000        
  0.000000000000000E+000  0.000000000000000E+000  0.000000000000000E+000        
   4.45900000000000       0.161143000000000       0.000000000000000E+000        
  0.000000000000000E+000  0.000000000000000E+000  0.000000000000000E+000        
  0.000000000000000E+000  0.000000000000000E+000  0.000000000000000E+000        
   1.53100000000000       0.356731000000000        1.00000000000000             
  0.000000000000000E+000  0.000000000000000E+000  0.000000000000000E+000        
  0.000000000000000E+000  0.000000000000000E+000  0.000000000000000E+000        
  0.530200000000000       0.448309000000000       0.000000000000000E+000        
   1.00000000000000       0.000000000000000E+000  0.000000000000000E+000        
  0.000000000000000E+000  0.000000000000000E+000  0.000000000000000E+000        
  0.175000000000000       0.244940000000000       0.000000000000000E+000        
  0.000000000000000E+000   1.00000000000000       0.000000000000000E+000        
  0.000000000000000E+000  0.000000000000000E+000  0.000000000000000E+000        
   14.4750000000000       0.000000000000000E+000  0.000000000000000E+000        
  0.000000000000000E+000  0.000000000000000E+000   1.00000000000000             
  0.000000000000000E+000  0.000000000000000E+000  0.000000000000000E+000        
   42.7300000000000       0.000000000000000E+000  0.000000000000000E+000        
  0.000000000000000E+000  0.000000000000000E+000  0.000000000000000E+000        
   1.00000000000000       0.000000000000000E+000  0.000000000000000E+000        
   126.140000000000       0.000000000000000E+000  0.000000000000000E+000        
  0.000000000000000E+000  0.000000000000000E+000  0.000000000000000E+000        
  0.000000000000000E+000   1.00000000000000       0.000000000000000E+000        
  5.348000000000000E-002  0.000000000000000E+000  0.000000000000000E+000        
  0.000000000000000E+000  0.000000000000000E+000  0.000000000000000E+000        
  0.000000000000000E+000  0.000000000000000E+000   1.00000000000000             
    6    6                                                                      
   3.77500000000000        1.00000000000000       0.000000000000000E+000        
  0.000000000000000E+000  0.000000000000000E+000  0.000000000000000E+000        
  0.000000000000000E+000                                                        
   1.30000000000000       0.000000000000000E+000   1.00000000000000             
  0.000000000000000E+000  0.000000000000000E+000  0.000000000000000E+000        
  0.000000000000000E+000                                                        
  0.444000000000000       0.000000000000000E+000  0.000000000000000E+000        
   1.00000000000000       0.000000000000000E+000  0.000000000000000E+000        
  0.000000000000000E+000                                                        
   14.9270000000000       0.000000000000000E+000  0.000000000000000E+000        
  0.000000000000000E+000   1.00000000000000       0.000000000000000E+000        
  0.000000000000000E+000                                                        
   57.5440000000000       0.000000000000000E+000  0.000000000000000E+000        
  0.000000000000000E+000  0.000000000000000E+000   1.00000000000000             
  0.000000000000000E+000                                                        
  0.154000000000000       0.000000000000000E+000  0.000000000000000E+000        
  0.000000000000000E+000  0.000000000000000E+000  0.000000000000000E+000        
   1.00000000000000                                                             
    4    4                                                                      
   2.66600000000000        1.00000000000000       0.000000000000000E+000        
  0.000000000000000E+000  0.000000000000000E+000                                
  0.859000000000000       0.000000000000000E+000   1.00000000000000             
  0.000000000000000E+000  0.000000000000000E+000                                
   26.4830000000000       0.000000000000000E+000  0.000000000000000E+000        
   1.00000000000000       0.000000000000000E+000                                
  0.324000000000000       0.000000000000000E+000  0.000000000000000E+000        
  0.000000000000000E+000   1.00000000000000                                     
    2    2                                                                      
   1.84600000000000        1.00000000000000       0.000000000000000E+000        
  0.714000000000000       0.000000000000000E+000   1.00000000000000             
FINISH                                                                          
 
********************************************************************************
 ONE- AND TWO-ELECTRON INTEGRALS OVER SYMMETRY-ADAPTED AOS ARE CALCULATED.

  SPHERICAL HARMONICS ARE USED.
  
  INTEGRALS LESS THAN  0.10E-13 ARE NEGLECTED.

  NUCLEAR REPULSION ENERGY :   22.1205562523 A.U.
  @MOLECU-I, ONE ELECTRON INTEGRALS (CPU/WALL):        0.06/       0.09 SECONDS.
  @TWOEL-I,    4587238 INTEGRALS OF SYMMETRY TYPE  I I I I
  @TWOEL-I,   19695665 INTEGRALS OF SYMMETRY TYPE  I J I J
  @TWOEL-I,   10378869 INTEGRALS OF SYMMETRY TYPE  I I J J
  @TWOEL-I,   14572553 INTEGRALS OF SYMMETRY TYPE  I J K L
  @TWOEL-I, TOTAL NUMBER OF 2-E INTEGRALS   49234325.
  @MOLECU-I, TWO ELECTRON INTEGRALS (CPU/WALL):      179.68/      25.22 SECONDS.
 @CHECKOUT-I, Total execution time (CPU/WALL):      179.76/      25.34 seconds.

Running with 14 threads/proc

--executable xvmol finished with status     0 in       25.35 seconds (walltime).
 --invoking executable--
/nfs/workspaces/public/cfour_mpi/bin/xvmol2ja
 @GETMEM-I,  Allocated    3814 MB of main memory.
 @CHECKOUT-I, Total execution time (CPU/WALL):        0.14/       0.06 seconds.
--executable xvmol2ja finished with status     0 in        0.09 seconds (walltime).
 --invoking executable--
/nfs/workspaces/public/cfour_mpi/bin/xvprop
 @GETMEM-I,  Allocated    3814 MB of main memory.
   Property integrals will be calculated.
    --------------------------------------------------------------
                                   Property evaluated at 
    Property type                X             Y             Z
    --------------------------------------------------------------
    Dipole moment               ----          ----          ----  
    Quadrupole moment           ----          ----          ----  
    Octopole moment             ----          ----          ----  
    Relativisitic corr.         ----          ----          ----  
    Second moment            0.0000000     0.0000000     0.0000000
    Electron density         0.0000000     0.0000000     1.1968922
    Electron density         0.0000000     0.0000000    -0.9730351
    Field gradient           0.0000000     0.0000000     1.1968922
    Field gradient           0.0000000     0.0000000    -0.9730351
    Potential                0.0000000     0.0000000     1.1968922
    Potential                0.0000000     0.0000000    -0.9730351
    --------------------------------------------------------------
 @CHECKOUT-I, Total execution time (CPU/WALL):        1.30/       1.33 seconds.
--executable xvprop finished with status     0 in        1.34 seconds (walltime).
 --invoking executable--
/nfs/workspaces/public/cfour_mpi/bin/xvscf
  There are  218 functions in the AO basis.

  There are 4 irreducible representations.

       Irrep        # of functions
         1                 86
         2                 52
         3                 52
         4                 28


  Parameters for SCF calculation: 
        SCF reference function:  RHF  
  Maximum number of iterations:  150
     Full symmetry point group: CXv 
     Computational point group: C2v 
        Initial density matrix: MOREAD                 
     SCF convergence tolerance: 10**(-10)
  DIIS convergence acceleration:  ON
          Latest start for DIIS:   8
                     DIIS order:   6

  Memory information:    2523578 words required.
  Fock matrices are constructed from AO integral file.
 @GETMEM-I,  Allocated      19 MB of main memory.
  Initialization and symmetry analysis required      0.001 seconds.

  Adding electric field perturbation to one-electron Hamiltonian.
  Field direction     : Z
  Field strength      : -0.0002000 a.u.

  @INITGES-I, Occupancies from core Hamiltonian:

          Alpha population by irrep:   5    1    1    0
           Beta population by irrep:   5    1    1    0


 total no. of electrons in initial guess :  0.000000000000000E+000
  --------------------------------------------------------------------
  Iteration         Total Energy            Largest Density Difference
  --------------------------------------------------------------------
       0            22.120435666671039              0.0000000000D+00
   current occupation vector 
     5  1  1  0
     5  1  1  0
       1           -91.940764001807963              0.1859370388D+02
   current occupation vector 
     5  1  1  0
     5  1  1  0
       2           -96.884488831983077              0.1858929741D+02
   current occupation vector 
     5  1  1  0
     5  1  1  0
       3          -103.408921547269600              0.1690338726D+02
   current occupation vector 
     5  1  1  0
     5  1  1  0
       4          -100.323385979487810              0.7517066671D+01
   current occupation vector 
     5  1  1  0
     5  1  1  0
       5          -103.230048768073061              0.7033963256D+01
   current occupation vector 
     5  1  1  0
     5  1  1  0
       6          -100.221395198365542              0.5828508819D+01
   current occupation vector 
     5  1  1  0
     5  1  1  0
       7          -103.093286288132703              0.5667880093D+01
   current occupation vector 
     5  1  1  0
     5  1  1  0
       8          -100.022061481783908              0.5656061258D+01
   current occupation vector 
     5  1  1  0
     5  1  1  0
       9          -110.677364276291328              0.4260171734D+01
   current occupation vector 
     5  1  1  0
     5  1  1  0
      10          -112.232317125423933              0.9244903262D+00
   current occupation vector 
     5  1  1  0
     5  1  1  0
      11          -112.766860370533735              0.5188310501D+00
   current occupation vector 
     5  1  1  0
     5  1  1  0
      12          -112.785125019462029              0.1155647890D+00
   current occupation vector 
     5  1  1  0
     5  1  1  0
      13          -112.785643001459604              0.2693074742D-01
   current occupation vector 
     5  1  1  0
     5  1  1  0
      14          -112.785741465936653              0.1482040474D-01
   current occupation vector 
     5  1  1  0
     5  1  1  0
      15          -112.785747490822970              0.4891311376D-02
   current occupation vector 
     5  1  1  0
     5  1  1  0
      16          -112.785747553280586              0.4361663679D-03
   current occupation vector 
     5  1  1  0
     5  1  1  0
      17          -112.785747554999872              0.4774930928D-04
   current occupation vector 
     5  1  1  0
     5  1  1  0
      18          -112.785747555046655              0.9061515808D-05
   current occupation vector 
     5  1  1  0
     5  1  1  0
      19          -112.785747555048900              0.1730128765D-05
   current occupation vector 
     5  1  1  0
     5  1  1  0
      20          -112.785747555048616              0.3316066226D-06
   current occupation vector 
     5  1  1  0
     5  1  1  0
      21          -112.785747555049809              0.4356829142D-07
   current occupation vector 
     5  1  1  0
     5  1  1  0
      22          -112.785747555050094              0.1093241342D-07
   current occupation vector 
     5  1  1  0
     5  1  1  0
      23          -112.785747555049213              0.6087029325D-08
   current occupation vector 
     5  1  1  0
     5  1  1  0
      24          -112.785747555048758              0.2231891061D-09
   current occupation vector 
     5  1  1  0
     5  1  1  0
      25          -112.785747555048843              0.3748898969D-09
   current occupation vector 
     5  1  1  0
     5  1  1  0
      26          -112.785747555048957              0.1167785868D-09
   current occupation vector 
     5  1  1  0
     5  1  1  0

  SCF has converged.

 Density matrix saved to file den.dat
 total electron number:   14.0000000000001     
     E(SCF)=      -112.785747555049156              0.3332668863D-10

  Eigenvector printing suppressed.

 @PUTMOS-I, Writing converged MOs to NEWMOS. 
 @PUTMOS-I, Symmetry   1 Full Blocks 21 Partial Blocksize   2
 @PUTMOS-I, Symmetry   2 Full Blocks 13 Partial Blocksize   0
 @PUTMOS-I, Symmetry   3 Full Blocks 13 Partial Blocksize   0
 @PUTMOS-I, Symmetry   4 Full Blocks  7 Partial Blocksize   0
 @PUTFOCK-I, Writing converged Fock matrix to NEWFOCK. 
 @PUTFOCK-I, Symmetry   1 Full Blocks 21 Partial Blocksize   2
 @PUTFOCK-I, Symmetry   2 Full Blocks 13 Partial Blocksize   0
 @PUTFOCK-I, Symmetry   3 Full Blocks 13 Partial Blocksize   0
 @PUTFOCK-I, Symmetry   4 Full Blocks  7 Partial Blocksize   0


 
  ORBITAL EIGENVALUES (ALPHA)  (1H = 27.2113834 eV)

       MO #        E(hartree)               E(eV)           FULLSYM    COMPSYM
       ----   --------------------   --------------------   -------   ---------
    1     1         -20.6659977101        -562.3503870341     SG+        A1 (1)
    2     2         -11.3694926329        -309.3796230972     SG+        A1 (1)
    3     3          -1.5079933981         -41.0345865207     SG+        A1 (1)
    4     4          -0.8029026272         -21.8480912212     SG+        A1 (1)
    5   139          -0.6317429595         -17.1905998813      PI        B2 (3)
    6    87          -0.6317429595         -17.1905998813      PI        B1 (2)
    7     5          -0.5573954142         -15.1675003222     SG+        A1 (1)
  +++++++++++++++++++++++++++++++++++++++++++++++++++++++++++++++++++++++++++++
    8     6           0.0608778622           1.6565708484     SG+        A1 (1)
    9    88           0.0616716076           1.6781697603      PI        B1 (2)
   10   140           0.0616716076           1.6781697603      PI        B2 (3)
   11     7           0.0733314204           1.9954493963     SG+        A1 (1)
   12    89           0.1362652344           3.7079655381      PI        B1 (2)
   13   141           0.1362652344           3.7079655381      PI        B2 (3)
   14     8           0.1567438094           4.2652158937     SG+        A1 (1)
   15    90           0.1664897455           4.5304162974      PI        B1 (2)
   16   142           0.1664897455           4.5304162974      PI        B2 (3)
   17   191           0.2275836328           6.1928654886      DE        A2 (4)
   18     9           0.2275836328           6.1928654886      DE        A1 (1)
   19    10           0.2282447628           6.2108557490     SG+        A1 (1)
   20    11           0.3007956832           8.1850666596     SG+        A1 (1)
   21    91           0.3181710046           8.6578731920      PI        B1 (2)
   22   143           0.3181710046           8.6578731921      PI        B2 (3)
   23    12           0.3905006091          10.6260617924     SG+        A1 (1)
   24    92           0.3955145045          10.7624968221      PI        B1 (2)
   25   144           0.3955145045          10.7624968222      PI        B2 (3)
   26    13           0.5087580401          13.8440100872     SG+        A1 (1)
   27   192           0.5360116088          14.5856173952      DE        A2 (4)
   28    14           0.5360116088          14.5856173952      DE        A1 (1)
   29    93           0.6240183642          16.9804029557      PI        B1 (2)
   30   145           0.6240183642          16.9804029557      PI        B2 (3)
   31    15           0.6392306698          17.3943508359     SG+        A1 (1)
   32   146           0.7481542596          20.3583124010      PH        B2 (3)
   33    94           0.7481542596          20.3583124010      PH        B1 (2)
   34   193           0.7675784851          20.8868724483      DE        A2 (4)
   35    16           0.7675784851          20.8868724484      DE        A1 (1)
   36    17           0.7794483613          21.2098681997     SG+        A1 (1)
   37    95           0.8205994259          22.3296455965      PI        B1 (2)
   38   147           0.8205994259          22.3296455966      PI        B2 (3)
   39    18           0.8710727900          23.7030956593     SG+        A1 (1)
   40    96           0.8825900611          24.0164965373      PI        B1 (2)
   41   148           0.8825900611          24.0164965374      PI        B2 (3)
   42   194           0.8896739894          24.2092600268      DE        A2 (4)
   43    19           0.8896739894          24.2092600268      DE        A1 (1)
   44    20           0.9000357088          24.4912167456     SG+        A1 (1)
   45    97           1.0720678577          29.1724495075      PI        B1 (2)
   46   149           1.0720678577          29.1724495076      PI        B2 (3)
   47    21           1.1811635820          32.1410950868     SG+        A1 (1)
   48   150           1.4461817405          39.3526058062      PH        B2 (3)
   49    98           1.4461817405          39.3526058062      PH        B1 (2)
   50    22           1.4662237876          39.8979776344     SG+        A1 (1)
   51   195           1.5209392264          41.3868604166      DE        A2 (4)
   52    23           1.5209392264          41.3868604166      DE        A1 (1)
   53    99           1.5569885269          42.3678117545      PI        B1 (2)
   54   151           1.5569885269          42.3678117545      PI        B2 (3)
   55    24           1.6679202730          45.3864180279     SG+        A1 (1)
   56   196           1.7665324017          48.0697904723      DE        A2 (4)
   57    25           1.7665324017          48.0697904724      DE        A1 (1)
   58    26           1.7773004297          48.3628034092     SG+        A1 (1)
   59   100           1.7900617920          48.7100577305      PI        B1 (2)
   60   152           1.7900617920          48.7100577305      PI        B2 (3)
   61   101           1.9774323940          53.8086710207      PI        B1 (2)
   62   153           1.9774323940          53.8086710210      PI        B2 (3)
   63   197           2.1041067517          57.2556555360      PI        A2 (4)
   64    27           2.1041067517          57.2556555360      PI        A1 (1)
   65    28           2.1229332754          57.7679512890     SG+        A1 (1)
   66   198           2.1917370357          59.6401967911      DE        A2 (4)
   67    29           2.1917370357          59.6401967911      DE        A1 (1)
   68   154           2.2499960427          61.2255049676      PH        B2 (3)
   69   102           2.2499960427          61.2255049676      PH        B1 (2)
   70    30           2.3137437365          62.9601679025     SG+        A1 (1)
   71   103           2.3206152461          63.1471511864      PI        B1 (2)
   72   155           2.3206152461          63.1471511864      PI        B2 (3)
   73   156           2.3556740349          64.1011493301      PH        B2 (3)
   74   104           2.3556740349          64.1011493301      PH        B1 (2)
   75    31           2.3610448335          64.2472961892      DE        A1 (1)
   76   199           2.3610448335          64.2472961892      DE        A2 (4)
   77    32           2.4831779411          67.5707070045     SG+        A1 (1)
   78   105           2.5937062718          70.5783357891      PI        B1 (2)
   79   157           2.5937062718          70.5783357891      PI        B2 (3)
   80   158           2.8136744986          76.5639755444      PI        B2 (3)
   81   106           2.8136744986          76.5639755445      PI        B1 (2)
   82    33           2.9146385556          79.3113472079     SG+        A1 (1)
   83   200           2.9923809848          81.4268262556      DE        A2 (4)
   84    34           2.9923809848          81.4268262559      DE        A1 (1)
   85    35           3.4796934910          94.6872736971     SG+        A1 (1)
   86    36           3.7202452041         101.2330185919      PI        A1 (1)
   87   201           3.7202452041         101.2330185919      PI        A2 (4)
   88   107           3.7441816515         101.8843624390      PI        B1 (2)
   89   159           3.7441816515         101.8843624390      PI        B2 (3)
   90    37           3.9400856842         107.2151821819     SG+        A1 (1)
   91   160           4.0844571620         111.1437298168      PH        B2 (3)
   92   108           4.0844571620         111.1437298168      PH        B1 (2)
   93   202           4.1780714394         113.6911038095      DE        A2 (4)
   94    38           4.1780714394         113.6911038095      DE        A1 (1)
   95   161           4.2095488295         114.5476471414      PI        B2 (3)
   96   109           4.2095488295         114.5476471414      PI        B1 (2)
   97   110           4.2627212372         115.9945419132      PH        B1 (2)
   98   162           4.2627212372         115.9945419132      PH        B2 (3)
   99    39           4.2662686392         116.0910716291     SG+        A1 (1)
  100   203           4.3731246562         118.9987716759      DE        A2 (4)
  101    40           4.3731246562         118.9987716759      DE        A1 (1)
  102    41           4.5037376951         122.5529331557     SG+        A1 (1)
  103   111           4.7691793266         129.7759671591      PI        B1 (2)
  104   163           4.7691793266         129.7759671591      PI        B2 (3)
  105    42           5.0396849000         137.1367980291     SG+        A1 (1)
  106   164           5.0996759089         138.7692363729      PI        B2 (3)
  107   112           5.0996759089         138.7692363730      PI        B1 (2)
  108   204           5.1395460774         139.8541588135      DE        A2 (4)
  109    43           5.1395460774         139.8541588136      DE        A1 (1)
  110    44           5.7809954731         157.3088842531     SG+        A1 (1)
  111   165           5.7932393672         157.6420575485      PI        B2 (3)
  112   113           5.7932393672         157.6420575488      PI        B1 (2)
  113   205           5.8978707987         160.4892235483      PI        A2 (4)
  114    45           5.8978707987         160.4892235483      PI        A1 (1)
  115   166           6.1170437913         166.4532238798      PH        B2 (3)
  116   114           6.1170437913         166.4532238798      PH        B1 (2)
  117    46           6.2353618788         169.6728227229     SG+        A1 (1)
  118   206           6.2990776148         171.4066160434      DE        A2 (4)
  119    47           6.2990776148         171.4066160434      DE        A1 (1)
  120   167           6.3225448481         172.0451919258      PI        B2 (3)
  121   115           6.3225448481         172.0451919258      PI        B1 (2)
  122   168           6.4396144376         175.2308174107      PH        B2 (3)
  123   116           6.4396144376         175.2308174107      PH        B1 (2)
  124   207           6.5807655092         179.0717333352      DE        A2 (4)
  125    48           6.5807655092         179.0717333355      DE        A1 (1)
  126    49           7.0113193633         190.7876993342     SG+        A1 (1)
  127    50           7.2751599554         197.9671668429      DE        A1 (1)
  128   208           7.2751599554         197.9671668429      DE        A2 (4)
  129   169           7.4459692274         202.6151234321      PI        B2 (3)
  130   117           7.4459692274         202.6151234321      PI        B1 (2)
  131    51           7.7625438098         211.2295557676     SG+        A1 (1)
  132    52           8.2056052759         223.2858711928     SG+        A1 (1)
  133   170           8.4274362604         229.3221991616      PI        B2 (3)
  134   118           8.4274362604         229.3221991619      PI        B1 (2)
  135   119          10.1222436903         275.4402539241      PI        B1 (2)
  136   171          10.1222436903         275.4402539248      PI        B2 (3)
  137    53          10.5658517346         287.5114424984     SG+        A1 (1)
  138   209          10.6027815380         288.5163535372      PI        A2 (4)
  139    54          10.6027815380         288.5163535372      PI        A1 (1)
  140   120          10.8690651501         295.7622989994      PH        B1 (2)
  141   172          10.8690651501         295.7622989994      PH        B2 (3)
  142   210          11.1175312684         302.5234058071      DE        A2 (4)
  143    55          11.1175312684         302.5234058073      DE        A1 (1)
  144    56          11.1298987345         302.8599416670     SG+        A1 (1)
  145   173          11.3621059853         309.1786221962      PI        B2 (3)
  146   121          11.3621059853         309.1786221963      PI        B1 (2)
  147    57          11.5441951652         314.1335206837     SG+        A1 (1)
  148   174          11.8548227823         322.5861278675      PH        B2 (3)
  149   122          11.8548227823         322.5861278675      PH        B1 (2)
  150   211          12.2724434359         333.9501635889      DE        A2 (4)
  151    58          12.2724434359         333.9501635889      DE        A1 (1)
  152   123          12.6167062841         343.3180319408      PI        B1 (2)
  153   175          12.6167062841         343.3180319408      PI        B2 (3)
  154   212          12.8647101654         350.0665606410      DE        A2 (4)
  155    59          12.8647101654         350.0665606410      DE        A1 (1)
  156    60          13.2438228395         360.3827409677     SG+        A1 (1)
  157   176          14.0775811507         383.0704580358      PI        B2 (3)
  158   124          14.0775811507         383.0704580358      PI        B1 (2)
  159    61          15.4813566133         421.2691303572     SG+        A1 (1)
  160    62          18.0208588947         490.3725005803     SG+        A1 (1)
  161   177          19.3755561937         527.2356881745      PI        B2 (3)
  162   125          19.3755561937         527.2356881749      PI        B1 (2)
  163    63          20.6242800573         561.2151919894     SG+        A1 (1)
  164   213          26.5184002903         721.6023574549      DE        A2 (4)
  165    64          26.5184002903         721.6023574550      DE        A1 (1)
  166   178          26.9863214503         734.3351395410      PI        B2 (3)
  167   126          26.9863214503         734.3351395410      PI        B1 (2)
  168    65          28.1561912599         766.1689154560     SG+        A1 (1)
  169   127          33.7888303987         919.4408186178      PI        B1 (2)
  170   179          33.7888303988         919.4408186188      PI        B2 (3)
  171    66          34.9591528522         951.2869116011     SG+        A1 (1)
  172    67          36.7523850545        1000.0832405837     SG+        A1 (1)
  173   214          47.1179410429        1282.1443587375      DE        A2 (4)
  174    68          47.1179410429        1282.1443587376      DE        A1 (1)
  175   180          47.6720543772        1297.2225491224      PI        B2 (3)
  176   128          47.6720543772        1297.2225491225      PI        B1 (2)
  177    69          48.5376552785        1320.7767471202     SG+        A1 (1)
  178    70          64.2033626659        1747.0623170722     SG+        A1 (1)
  179   181          66.8247961227        1818.3951479215      PI        B2 (3)
  180   129          66.8247961227        1818.3951479216      PI        B1 (2)
  181    71          67.7948721096        1844.7922575283     SG+        A1 (1)
  182   182          98.6670948124        2684.8681459051      PH        B2 (3)
  183   130          98.6670948124        2684.8681459051      PH        B1 (2)
  184   215          98.6883604954        2685.4468145564      DE        A2 (4)
  185    72          98.6883604954        2685.4468145564      DE        A1 (1)
  186   131          98.7538690529        2687.2293930317      PI        B1 (2)
  187   183          98.7538690529        2687.2293930317      PI        B2 (3)
  188    73          98.7658806025        2687.5562439123     SG+        A1 (1)
  189   132         103.2834490280        2810.4855303746      PH        B1 (2)
  190   184         103.2834490280        2810.4855303746      PH        B2 (3)
  191   216         103.3316486934        2811.7971099499      DE        A2 (4)
  192    74         103.3316486935        2811.7971099523      DE        A1 (1)
  193   133         103.3595400252        2812.5560716736      PI        B1 (2)
  194   185         103.3595400252        2812.5560716736      PI        B2 (3)
  195    75         103.4167714637        2814.1134182888     SG+        A1 (1)
  196    76         115.1753397797        3134.0803289711      DE        A1 (1)
  197   217         115.1753397797        3134.0803289711      DE        A2 (4)
  198   134         115.4040964940        3140.3051156291      PI        B1 (2)
  199   186         115.4040964940        3140.3051156291      PI        B2 (3)
  200    77         116.0009228118        3156.5455853862     SG+        A1 (1)
  201   135         117.0387050374        3184.7850754112      PI        B1 (2)
  202   187         117.0387050374        3184.7850754118      PI        B2 (3)
  203    78         118.0080966942        3211.1635634500     SG+        A1 (1)
  204    79         122.8802144555        3343.7406278223     SG+        A1 (1)
  205   218         198.5760618077        5403.5293519110      DE        A2 (4)
  206    80         198.5760618077        5403.5293519112      DE        A1 (1)
  207   136         198.8755811721        5411.6796881706      PI        B1 (2)
  208   188         198.8755811721        5411.6796881710      PI        B2 (3)
  209    81         199.3076602603        5423.4371578987     SG+        A1 (1)
  210    82         216.6825042440        5896.2306990547     SG+        A1 (1)
  211   189         225.2398796988        6129.0887234542      PI        B2 (3)
  212   137         225.2398796988        6129.0887234542      PI        B1 (2)
  213    83         226.0357239435        6150.7447463243     SG+        A1 (1)
  214   138         395.4970259954       10762.0212079216      PI        B1 (2)
  215   190         395.4970259954       10762.0212079218      PI        B2 (3)
  216    84         396.3015972474       10783.9147047323     SG+        A1 (1)
  217    85         509.4246330537       13862.1490034272     SG+        A1 (1)
  218    86         895.5121748271       24368.1251285892     SG+        A1 (1)


  VSCF finished.

 @CHECKOUT-I, Total execution time (CPU/WALL):       46.76/       9.01 seconds.
--executable xvscf finished with status     0 in        9.03 seconds (walltime).
 --invoking executable--
/nfs/workspaces/public/cfour_mpi/bin/xvtran
 @GETMEM-I,  Allocated    3814 MB of main memory.
  Full RHF integral transformation
  Transformation of IIII integrals :
  1 pass through the AO integral file was required.
     4587238 AO integrals were read.
     8813739 MO integrals were written to HF2.
  Transformation of IIJJ integrals :
  1 pass through the AO integral file was required.
    10378869 AO integrals were read.
    14624877 MO integrals were written to HF2.
  Transformation of IJIJ integrals :
  1 pass through the AO integral file was required.
    19695665 AO integrals were read.
    27515300 MO integrals were written to HF2.
  Transformation of IJKL integrals :
  1 pass through the AO integral file was required.
    14572553 AO integrals were read.
    18601152 MO integrals were written to HF2.
  Summary of active molecular orbitals: 
------------------------------------------------------------------------
 
  Index      Eigenvalue    Symmetry    Index      Eigenvalue    Symmetry
------------------------------------------------------------------------
     1       -20.6659977        1       110         4.2095488        2
     2       -11.3694926        1       111         4.2627212        2
     3        -1.5079934        1       112         4.7691793        2
     4        -0.8029026        1       113         5.0996759        2
     5        -0.5573954        1       114         5.7932394        2
     6        -0.6317430        2       115         6.1170438        2
     7        -0.6317430        3       116         6.3225448        2
     8         0.0608779        1       117         6.4396144        2
     9         0.0733314        1       118         7.4459692        2
    10         0.1567438        1       119         8.4274363        2
    11         0.2275836        1       120        10.1222437        2
    12         0.2282448        1       121        10.8690652        2
    13         0.3007957        1       122        11.3621060        2
    14         0.3905006        1       123        11.8548228        2
    15         0.5087580        1       124        12.6167063        2
    16         0.5360116        1       125        14.0775812        2
    17         0.6392307        1       126        19.3755562        2
    18         0.7675785        1       127        26.9863215        2
    19         0.7794484        1       128        33.7888304        2
    20         0.8710728        1       129        47.6720544        2
    21         0.8896740        1       130        66.8247961        2
    22         0.9000357        1       131        98.6670948        2
    23         1.1811636        1       132        98.7538691        2
    24         1.4662238        1       133       103.2834490        2
    25         1.5209392        1       134       103.3595400        2
    26         1.6679203        1       135       115.4040965        2
    27         1.7665324        1       136       117.0387050        2
    28         1.7773004        1       137       198.8755812        2
    29         2.1041068        1       138       225.2398797        2
    30         2.1229333        1       139       395.4970260        2
    31         2.1917370        1       140         0.0616716        3
    32         2.3137437        1       141         0.1362652        3
    33         2.3610448        1       142         0.1664897        3
    34         2.4831779        1       143         0.3181710        3
    35         2.9146386        1       144         0.3955145        3
    36         2.9923810        1       145         0.6240184        3
    37         3.4796935        1       146         0.7481543        3
    38         3.7202452        1       147         0.8205994        3
    39         3.9400857        1       148         0.8825901        3
    40         4.1780714        1       149         1.0720679        3
    41         4.2662686        1       150         1.4461817        3
    42         4.3731247        1       151         1.5569885        3
    43         4.5037377        1       152         1.7900618        3
    44         5.0396849        1       153         1.9774324        3
    45         5.1395461        1       154         2.2499960        3
    46         5.7809955        1       155         2.3206152        3
    47         5.8978708        1       156         2.3556740        3
    48         6.2353619        1       157         2.5937063        3
    49         6.2990776        1       158         2.8136745        3
    50         6.5807655        1       159         3.7441817        3
    51         7.0113194        1       160         4.0844572        3
    52         7.2751600        1       161         4.2095488        3
    53         7.7625438        1       162         4.2627212        3
    54         8.2056053        1       163         4.7691793        3
    55        10.5658517        1       164         5.0996759        3
    56        10.6027815        1       165         5.7932394        3
    57        11.1175313        1       166         6.1170438        3
    58        11.1298987        1       167         6.3225448        3
    59        11.5441952        1       168         6.4396144        3
    60        12.2724434        1       169         7.4459692        3
    61        12.8647102        1       170         8.4274363        3
    62        13.2438228        1       171        10.1222437        3
    63        15.4813566        1       172        10.8690652        3
    64        18.0208589        1       173        11.3621060        3
    65        20.6242801        1       174        11.8548228        3
    66        26.5184003        1       175        12.6167063        3
    67        28.1561913        1       176        14.0775812        3
    68        34.9591529        1       177        19.3755562        3
    69        36.7523851        1       178        26.9863215        3
    70        47.1179410        1       179        33.7888304        3
    71        48.5376553        1       180        47.6720544        3
    72        64.2033627        1       181        66.8247961        3
    73        67.7948721        1       182        98.6670948        3
    74        98.6883605        1       183        98.7538691        3
    75        98.7658806        1       184       103.2834490        3
    76       103.3316487        1       185       103.3595400        3
    77       103.4167715        1       186       115.4040965        3
    78       115.1753398        1       187       117.0387050        3
    79       116.0009228        1       188       198.8755812        3
    80       118.0080967        1       189       225.2398797        3
    81       122.8802145        1       190       395.4970260        3
    82       198.5760618        1       191         0.2275836        4
    83       199.3076603        1       192         0.5360116        4
    84       216.6825042        1       193         0.7675785        4
    85       226.0357239        1       194         0.8896740        4
    86       396.3015972        1       195         1.5209392        4
    87       509.4246331        1       196         1.7665324        4
    88       895.5121748        1       197         2.1041068        4
    89         0.0616716        2       198         2.1917370        4
    90         0.1362652        2       199         2.3610448        4
    91         0.1664897        2       200         2.9923810        4
    92         0.3181710        2       201         3.7202452        4
    93         0.3955145        2       202         4.1780714        4
    94         0.6240184        2       203         4.3731247        4
    95         0.7481543        2       204         5.1395461        4
    96         0.8205994        2       205         5.8978708        4
    97         0.8825901        2       206         6.2990776        4
    98         1.0720679        2       207         6.5807655        4
    99         1.4461817        2       208         7.2751600        4
   100         1.5569885        2       209        10.6027815        4
   101         1.7900618        2       210        11.1175313        4
   102         1.9774324        2       211        12.2724434        4
   103         2.2499960        2       212        12.8647102        4
   104         2.3206152        2       213        26.5184003        4
   105         2.3556740        2       214        47.1179410        4
   106         2.5937063        2       215        98.6883605        4
   107         2.8136745        2       216       103.3316487        4
   108         3.7441817        2       217       115.1753398        4
   109         4.0844572        2       218       198.5760618        4
------------------------------------------------------------------------
  -20.6659977101386       -11.3694926328974       -1.50799339811144     
 -0.802902627186235      -0.557395414236135      -0.631742959502081     
 -0.631742959502112       6.087786218181800E-002  7.333142042121213E-002
  0.156743809419591       0.227583632833443       0.228244762780048     
  0.300795683160685       0.390500609108234       0.508758040106110     
  0.536011608848807       0.639230669762202       0.767578485125863     
  0.779448361295658       0.871072790046450       0.889673989408147     
  0.900035708789918        1.18116358195861        1.46622378759153     
   1.52093922636037        1.66792027295030        1.76653240174361     
   1.77730042968586        2.10410675173485        2.12293327538135     
   2.19173703572375        2.31374373647237        2.36104483350783     
   2.48317794105533        2.91463855556507        2.99238098478517     
   3.47969349096281        3.72024520414181        3.94008568421209     
   4.17807143937778        4.26626863921740        4.37312465620337     
   4.50373769514771        5.03968490000192        5.13954607738012     
   5.78099547313236        5.89787079874469        6.23536187884133     
   6.29907761482795        6.58076550916843        7.01131936328553     
   7.27515995540734        7.76254380979567        8.20560527594549     
   10.5658517346246        10.6027815380089        11.1175312684490     
   11.1298987344770        11.5441951651623        12.2724434358934     
   12.8647101654148        13.2438228395157        15.4813566133195     
   18.0208588946746        20.6242800573457        26.5184002903372     
   28.1561912598675        34.9591528522256        36.7523850545475     
[...]
 Convergence information after     9 iterations: 
 Largest element of residual vector : -0.95648827E-05.
 Largest element of DIIS residual   : -0.49762738E-05.
 Convergence information after    10 iterations: 
 Largest element of residual vector :  0.57733469E-05.
 Largest element of DIIS residual   :  0.39167983E-05.
 Convergence information after    11 iterations: 
 Largest element of residual vector :  0.23201215E-05.
 Largest element of DIIS residual   :  0.79889025E-06.
 Convergence information after    12 iterations: 
 Largest element of residual vector :  0.95670985E-06.
 Largest element of DIIS residual   :  0.44255236E-06.
 Convergence information after    13 iterations: 
 Largest element of residual vector :  0.34119283E-06.
 Largest element of DIIS residual   :  0.21672065E-06.
 Convergence information after    14 iterations: 
 Largest element of residual vector :  0.17536878E-06.
 Largest element of DIIS residual   :  0.89441549E-07.
 Perturbed amplitude equations converged in    14 iterations.
  Dominant contributions to perturbed wavefunction:
    7    7  141   28   0.2292763376 ABAB
    7    7   28  141   0.2292763376 ABAB
    7    7  141   37   0.2076828638 ABAB
    7    7   37  141   0.2076828638 ABAB
    7    7  141   55   0.1782824573 ABAB
    7    7   55  141   0.1782824573 ABAB
    7    7  141   53  -0.1513738742 ABAB
    7    7   53  141  -0.1513738742 ABAB
    7    6   28   90   0.1504117673 ABAB
    6    7   90   28   0.1504117673 ABAB
    7    7  141   39   0.1441865159 ABAB
    7    7   39  141   0.1441865159 ABAB
    5    5  141   44   0.1440788394 ABAB
    5    5   44  141   0.1440788394 ABAB
    7    7  141   44   0.1434060550 ABAB
    7    7   44  141   0.1434060550 ABAB
    7    7  142   28   0.1417580884 ABAB
    7    7   28  142   0.1417580884 ABAB
    7    6   37   90   0.1365708282 ABAB
    6    7   90   37   0.1365708282 ABAB
  norm of converged amps    2.39787695411647     
 Starting iterative solution of the perturbed Lambda equations.
 The DIIS procedure is used to accelerate convergence.
 Convergence criterion is 10**(-7).
 Maximum number of iterations is 100.
 Convergence information after     1 iterations: 
 Largest element of residual vector : -0.67690848E-01.
 Largest element of DIIS residual   : -0.67690848E-01.
 Convergence information after     2 iterations: 
 Largest element of residual vector :  0.79357817E-02.
 Largest element of DIIS residual   :  0.50190965E-02.
 Convergence information after     3 iterations: 
 Largest element of residual vector : -0.46520485E-02.
 Largest element of DIIS residual   : -0.40560010E-02.
 Convergence information after     4 iterations: 
 Largest element of residual vector : -0.28821104E-02.
 Largest element of DIIS residual   : -0.22922978E-02.
 Convergence information after     5 iterations: 
 Largest element of residual vector : -0.17131301E-02.
 Largest element of DIIS residual   : -0.80745432E-03.
 Convergence information after     6 iterations: 
 Largest element of residual vector : -0.56262573E-03.
 Largest element of DIIS residual   :  0.13388615E-03.
 Convergence information after     7 iterations: 
 Largest element of residual vector : -0.11347469E-03.
 Largest element of DIIS residual   : -0.48375817E-04.
 Convergence information after     8 iterations: 
 Largest element of residual vector : -0.22361646E-04.
 Largest element of DIIS residual   :  0.21629550E-04.
 Convergence information after     9 iterations: 
 Largest element of residual vector : -0.76398777E-05.
 Largest element of DIIS residual   : -0.48870609E-05.
 Convergence information after    10 iterations: 
 Largest element of residual vector :  0.46069802E-05.
 Largest element of DIIS residual   :  0.33593397E-05.
 Convergence information after    11 iterations: 
 Largest element of residual vector :  0.18042433E-05.
 Largest element of DIIS residual   :  0.76237904E-06.
 Convergence information after    12 iterations: 
 Largest element of residual vector :  0.85494673E-06.
 Largest element of DIIS residual   :  0.56383690E-06.
 Convergence information after    13 iterations: 
 Largest element of residual vector :  0.42125267E-06.
 Largest element of DIIS residual   :  0.31062402E-06.
 Convergence information after    14 iterations: 
 Largest element of residual vector :  0.24445684E-06.
 Largest element of DIIS residual   :  0.12181279E-06.
 Convergence information after    15 iterations: 
 Largest element of residual vector :  0.83913379E-07.
 Largest element of DIIS residual   :  0.38614444E-07.
 Perturbed Lambda equations converged in    15 iterations.
  Dominant contributions to perturbed wavefunction:
    7    7  141   28   0.2156815534 ABAB
    7    7   28  141   0.2156815534 ABAB
    7    7  141   37   0.1964875419 ABAB
    7    7   37  141   0.1964875419 ABAB
    7    7  141   55   0.1660956878 ABAB
    7    7   55  141   0.1660956878 ABAB
    7    7  141   53  -0.1419510277 ABAB
    7    7   53  141  -0.1419510277 ABAB
    7    6   28   90   0.1394420875 ABAB
    6    7   90   28   0.1394420875 ABAB
    5    5  141   44   0.1381941416 ABAB
    5    5   44  141   0.1381941416 ABAB
    7    7  142   28   0.1351262697 ABAB
    7    7   28  142   0.1351262697 ABAB
    7    7  141   39   0.1343453790 ABAB
    7    7   39  141   0.1343453790 ABAB
    7    7  141   44   0.1319635729 ABAB
    7    7   44  141   0.1319635729 ABAB
    7    6   37   90   0.1275871181 ABAB
    6    7   90   37   0.1275871181 ABAB
        The DBOC first-order density matrix is being calculated 
             (Symmetry block 3, perturbation   2)
 term   6.72218655301801     
 final tnorm  0.884898392258131     
  norm contr. I: |<0|L dT/dx|0>|^2   0.000000000000000E+000
  norm contr. II: <0|[nabla(1+L)e-T][nabla e^T]|0>   6.72218655301801     
  total norm contribution   6.72218655301801     
 oo  1.155911297424161E-002
 vv  -50.4669150816889     
 vo  4.240506153425355E-002
  Correlated perturbed 1-el contribution to DBOC  -50.4129509071804       cm**-1
  SUM_I |dc_I/dx|^2 contribution to DBOC   25.3070802989760       cm**-1
 
 
  The total diagonal Born-Oppenheimer correction (DBOC) is:      0.0040105698 a.u.
  The total diagonal Born-Oppenheimer correction (DBOC) is:        880.218338 cm-1
 
 Total CC energy including DBOC  -113.280339020027     
 First-order density matrix is being calculated  (Symmetry block 3, perturbation   2)
 Calculation of the contributions of <pq||rs> to dI(i,j)/dx required   1.9 seconds.
 Calculation of the contributions of <pq||rs> to dI(a,b)/dx required  15.6 seconds.
 Calculation of the contributions of <pq||rs> to dI(i,a)/dx required   9.3 seconds.
 First-order Z-vector equations are solved for 1 perturbation.
 Convergence reached after  18 iterations.
        U*G(pq,rs) contribution is being calculated
             (Symmetry block 3, perturbation   2)

 CCSD contribution to force constants 

        0.0000000000        0.0000000000        0.0000000000
        0.0000000000        0.0000000000        0.0000000000
        0.0000000000        0.0000000000        0.0000000000
        0.0000000000        0.0000000000        0.0000000000
        0.0000000000        0.0000000000        0.0000000000
        0.0000000000        0.0000000000        0.0000000000
        0.0000000000        0.0000000000        0.0000000000
        0.0000000000        0.0000000000        0.0000000000
        0.0000000000        0.0000000000        0.0000000000
        0.0000000000        0.0000000000        0.0000000000
        0.0000000000        0.0000000000        0.0000000000
        0.0000000000       -0.9681411528        0.9681411528

 CCSD contribution to dipole derivatives 

        0.0000000000        0.0000000000        0.0000000000
        0.0000000000        0.0000000000        0.0000000000
        0.0000000000        0.0000000000        0.0000000000
        0.0000000000        0.0000000000       -0.0453143055
        0.0000000000        0.0000000000        0.0000000000
        0.0000000000        0.0000000000        0.0000000000
 @CHECKOUT-I, Total execution time (CPU/WALL):     1001.64/     252.51 seconds.
--executable xsdcc finished with status     0 in      252.54 seconds (walltime).
 --invoking executable--
/nfs/workspaces/public/cfour_mpi/bin/xanti
 @GETMEM-I,  Allocated    3814 MB of main memory.
 CCSD MO derivative gammas will be sorted to Mulliken order.
 @CHECKOUT-I, Total execution time (CPU/WALL):       10.00/      19.01 seconds.
--executable xanti finished with status     0 in       19.03 seconds (walltime).
 --invoking executable--
/nfs/workspaces/public/cfour_mpi/bin/xbcktrn
 @GETMEM-I,  Allocated    3814 MB of main memory.
 CCSD MO derivative gammas will be transformed to the AO basis.
 @CHECKOUT-I, Total execution time (CPU/WALL):       23.03/       4.30 seconds.
--executable xbcktrn finished with status     0 in        4.32 seconds (walltime).
 --invoking executable--
/nfs/workspaces/public/cfour_mpi/bin/xvdint
 @GETMEM-I,  Allocated    3814 MB of main memory.
 One- and two-electron integral derivatives are calculated
 for RHF-CC/MBPT hessians and dipole derivatives.
 Spherical gaussians are used.
  magnet F F
                    8722  records have been written to the Sort file.
  Total length of Sort file :             178609116  words.
 Evaluation of 2el integral derivatives

                      Two-electron integral gradient
                      ------------------------------

                         C #1 z     0.0000000000
                         O #2 z     0.0000000000


 C #1       0.0000000000           -0.5757880462            0.0000000000
 O #2       0.0000000000            0.5757880462            0.0000000000


 Evaluation of 2e integral derivatives required  350.50 seconds.
  contribution to Hessian
        0.0000000000        0.0000000000        0.0000000000
        0.0000000000       -0.5757880462        0.5757880462
 @CHECKOUT-I, Total execution time (CPU/WALL):      350.50/      71.09 seconds.
--executable xvdint finished with status     0 in       71.11 seconds (walltime).
 --invoking executable--
/nfs/workspaces/public/cfour_mpi/bin/xanti
 @GETMEM-I,  Allocated    3814 MB of main memory.
 CCSD MO gammas will be sorted to Mulliken order.
 @CHECKOUT-I, Total execution time (CPU/WALL):       10.35/       8.98 seconds.
--executable xanti finished with status     0 in        9.00 seconds (walltime).
 --invoking executable--
/nfs/workspaces/public/cfour_mpi/bin/xbcktrn
 @GETMEM-I,  Allocated    3814 MB of main memory.
 CCSD MO gammas will be transformed to the AO basis.
 @CHECKOUT-I, Total execution time (CPU/WALL):       24.57/       3.79 seconds.
--executable xbcktrn finished with status     0 in        3.82 seconds (walltime).
 --invoking executable--
/nfs/workspaces/public/cfour_mpi/bin/xvdint
 @GETMEM-I,  Allocated    3814 MB of main memory.
 One- and two-electron integral derivatives are calculated
 for RHF-CC/MBPT hessians and dipole derivatives.
 Spherical gaussians are used.
  magnet F F

                     Kinetic energy integral gradient
                     --------------------------------

                         C #1 z    -1.4459940471
                         O #2 z     1.4459940471


 C #1       0.0000000000            0.0000000000           -1.4459940471
 O #2       0.0000000000            0.0000000000            1.4459940471



                   Nuclear attraction integral gradient
                   ------------------------------------

                         C #1 z    23.1502220247
                         O #2 z   -23.1502220247


 C #1       0.0000000000            0.0000000000           23.1502220247
 O #2       0.0000000000            0.0000000000          -23.1502220247



                      Reorthonormalization gradient
                      -----------------------------

                         C #1 z     0.0000000000
                         O #2 z     0.0000000000


 C #1       0.0000000000            0.0000000000            0.0000000000
 O #2       0.0000000000            0.0000000000            0.0000000000



                     Kinetic energy integral Hessian
                     -------------------------------


           Symmetry 1

           C #1 z      O #2 z

 C #1 z    1.098308
 O #2 z   -1.098308    1.098308


           Symmetry 2

           C #1 x      O #2 x

 C #1 x   -1.867773
 O #2 x    1.867773   -1.867773


           Symmetry 3

           C #1 y      O #2 y

 C #1 y   -1.867773
 O #2 y    1.867773   -1.867773




           C #1 x      C #1 y      C #1 z      O #2 x      O #2 y      O #2 z

 C #1 x   -1.867773
 C #1 y    0.000000   -1.867773
 C #1 z    0.000000    0.000000    1.098308

 O #2 x    1.867773    0.000000    0.000000   -1.867773
 O #2 y    0.000000    1.867773    0.000000    0.000000   -1.867773
 O #2 z    0.000000    0.000000   -1.098308    0.000000    0.000000    1.098308




                   Nuclear attraction integral Hessian
                   -----------------------------------


           Symmetry 1

           C #1 z      O #2 z

 C #1 z  -13.228542
 O #2 z   13.228542  -13.228542


           Symmetry 2

           C #1 x      O #2 x

 C #1 x   20.206997
 O #2 x  -20.206997   20.206997


           Symmetry 3

           C #1 y      O #2 y

 C #1 y   20.206997
 O #2 y  -20.206997   20.206997




           C #1 x      C #1 y      C #1 z      O #2 x      O #2 y      O #2 z

 C #1 x   20.206997
 C #1 y    0.000000   20.206997
 C #1 z    0.000000    0.000000  -13.228542

 O #2 x  -20.206997    0.000000    0.000000   20.206997
 O #2 y    0.000000  -20.206997    0.000000    0.000000   20.206997
 O #2 z    0.000000    0.000000   13.228542    0.000000    0.000000  -13.228542




                Highest order reorthonormalization Hessian
                ------------------------------------------


           Symmetry 1

           C #1 z      O #2 z

 C #1 z    0.000000
 O #2 z    0.000000    0.000000


           Symmetry 2

           C #1 x      O #2 x

 C #1 x    0.000000
 O #2 x    0.000000    0.000000


           Symmetry 3

           C #1 y      O #2 y

 C #1 y    0.000000
 O #2 y    0.000000    0.000000




           C #1 x      C #1 y      C #1 z      O #2 x      O #2 y      O #2 z




                Electronic contributions to dipole moment
                -----------------------------------------

                               au             Debye

                    z      0.57510453      1.46177017

  Conversion factor used: 1 a.u. =   2.54174691 Debye 



   Electronic contributions to static part of dipole moment derivatives
   --------------------------------------------------------------------


                     Total dipole moment derivatives
                     -------------------------------


           Symmetry 1
                              Ez

               C #1 z    -5.74359299
               O #2 z    -8.25640701

           Symmetry 2
                              Ex

               C #1 x    -5.78643723
               O #2 x    -8.21356277

           Symmetry 3
                              Ey

               C #1 y    -5.78643723
               O #2 y    -8.21356277



                       Ex          Ey          Ez

      C #1    x   -5.786437    0.000000    0.000000
      C #1    y    0.000000   -5.786437    0.000000
      C #1    z    0.000000    0.000000   -5.743593

      O #2    x   -8.213563    0.000000    0.000000
      O #2    y    0.000000   -8.213563    0.000000
      O #2    z    0.000000    0.000000   -8.256407

 Evaluation of 1e integral derivatives required    1.65 seconds.
                    8815  records have been written to the Sort file.
  Total length of Sort file :             180513570  words.
 Evaluation of 2el integral derivatives

                      Two-electron integral gradient
                      ------------------------------

                         C #1 z   -11.0114326305
                         O #2 z    11.0114326305


 C #1       0.0000000000            0.0000000000          -11.0114326305
 O #2       0.0000000000            0.0000000000           11.0114326305


 Evaluation of 2e integral derivatives required  707.13 seconds.

                            Molecular gradient
                            ------------------

                         C #1 z     0.4986493282
                         O #2 z    -0.4986493282


 C #1       0.0000000000            0.0000000000            0.4986493282
 O #2       0.0000000000            0.0000000000           -0.4986493282


  Molecular gradient norm 0.705E+00

                            Molecular hessian
                            -----------------


           Symmetry 1

           C #1 z      O #2 z

 C #1 z   62.537219
 O #2 z  -62.537219   62.537219


           Symmetry 2

           C #1 x      O #2 x

 C #1 x    1.683491
 O #2 x   -1.683491    1.683491


           Symmetry 3

           C #1 y      O #2 y

 C #1 y    1.683491
 O #2 y   -1.683491    1.683491




           C #1 x      C #1 y      C #1 z      O #2 x      O #2 y      O #2 z

 C #1 x    1.683491
 C #1 y    0.000000    1.683491
 C #1 z    0.000000    0.000000   62.537219

 O #2 x   -1.683491    0.000000    0.000000    1.683491
 O #2 y    0.000000   -1.683491    0.000000    0.000000    1.683491
 O #2 z    0.000000    0.000000  -62.537219    0.000000    0.000000   62.537219




                           Total dipole moment
                           -------------------

                               au             Debye

                    z     -0.02782338     -0.07071998

  Conversion factor used: 1 a.u. =   2.54174691 Debye 



                     Total dipole moment derivatives
                     -------------------------------


           Symmetry 1
                              Ez

               C #1 z     0.71433988
               O #2 z    -0.71433988

           Symmetry 2
                              Ex

               C #1 x    -0.01350111
               O #2 x     0.01350111

           Symmetry 3
                              Ey

               C #1 y    -0.01350111
               O #2 y     0.01350111



                       Ex          Ey          Ez

      C #1    x   -0.013501    0.000000    0.000000
      C #1    y    0.000000   -0.013501    0.000000
      C #1    z    0.000000    0.000000    0.714340

      O #2    x    0.013501    0.000000    0.000000
      O #2    y    0.000000    0.013501    0.000000
      O #2    z    0.000000    0.000000   -0.714340

 @CHECKOUT-I, Total execution time (CPU/WALL):      708.77/     119.84 seconds.
--executable xvdint finished with status     0 in      119.86 seconds (walltime).
 --invoking executable--
/nfs/workspaces/public/cfour_mpi/bin/xjoda
  @GTFLGS-I, Hessian will be transformed to curvilinear coordinates.
  @GTFLGS-I, Hessian will be transformed to curvilinear coordinates.
  igrd and ihes are                      0                     1
  gradient from JOBARC 
   0.000000000000000   0.000000000000000   0.498649328207213
   0.000000000000000   0.000000000000000  -0.498649328207213
 
  @PROJFCM-I, Projecting force constant matrix onto totally symmetric subspace.
  Largest difference between matrix elements of symmetrized
  and unsymmetrized FCM :     0.9764633546E-11.
  read isotopes from ZMAT file 
 
  Summary of diagonal Born-Oppenheimer correction at the correlated level
  The total diagonal Born-Oppenheimer correction (DBOC) is:      0.0040105698 a.u.
  The total diagonal Born-Oppenheimer correction (DBOC) is:        880.218338 cm-1
  The total diagonal Born-Oppenheimer correction (DBOC) is:            10.530 kJ/mole
  hellooooooo 
  readis is  F
 
 @CHECKOUT-I, Total execution time (CPU/WALL):        0.01/       0.05 seconds.
--executable xjoda finished with status     0 in        0.08 seconds (walltime).
  The final electronic energy is      -113.280339020027370 a.u. 
  This computation required                         2794.33 seconds (walltime).
